Title
82269
    1SAPS     N    1   0.621   4.005  10.968  0.2598  0.0363  0.2969
    1SAPS   HN1    2   0.582   3.910  10.956  2.3318 -0.8399  0.2507
    1SAPS   HN2    3   0.546   4.057  11.019 -0.1301 -0.8496  0.6514
    1SAPS   HN3    4   0.635   4.048  10.875 -1.0935  0.0732  0.0823
    1SAPS   C12    5   0.745   3.970  11.047  0.4188 -0.0663  0.6059
    1SAPS  H12A    6   0.785   4.069  11.056 -2.2253  1.3197 -1.5094
    1SAPS   C13    7   0.722   3.885  11.176  0.6668 -0.2262  0.4795
    1SAPS  O13A    8   0.604   3.861  11.211 -0.4909 -0.0205  0.0074
    1SAPS  O13B    9   0.817   3.883  11.257  0.9606 -0.1617  0.9087
    1SAPS   C11   10   0.846   3.886  10.958  0.2451  0.1031 -0.0004
    1SAPS  H11A   11   0.937   3.882  11.022 -0.6982 -0.5035  1.3292
    1SAPS  H11B   12   0.864   3.951  10.869  1.4974  0.3410  0.4093
    1SAPS     P   13   0.902   3.650  10.865  0.4274 -0.3012  0.4818
    1SAPS   O13   14   1.007   3.634  10.968 -0.1865 -0.0490 -0.5510
    1SAPS   O14   15   0.822   3.535  10.831 -0.1312  0.0974  0.4968
    1SAPS   O12   16   0.802   3.757  10.921  0.1916 -0.4378  0.0709
    1SAPS   O11   17   0.962   3.723  10.739 -0.9576  0.3667  0.5877
    1SAPS    C1   18   0.896   3.802  10.637  0.5195  1.0983 -0.1622
    1SAPS    HA   19   0.847   3.887  10.689 -0.0626  0.1431  0.9070
    1SAPS    HB   20   0.973   3.834  10.564  0.1129  0.8403 -0.7029
    1SAPS    C2   21   0.787   3.730  10.559  0.2420 -0.0102  0.1040
    1SAPS    HS   22   0.729   3.671  10.633  1.2918 -2.4774 -0.9480
    1SAPS   O21   23   0.857   3.644  10.471  0.2479  0.4929  0.5544
    1SAPS   C21   24   0.802   3.531  10.449  0.5619 -0.3599  0.0585
    1SAPS   O22   25   0.694   3.495  10.490  0.1242 -0.3339  0.1484
    1SAPS   C22   26   0.880   3.445  10.346 -0.5720 -0.0853  0.0500
    1SAPS   H2R   27   0.920   3.517  10.271 -1.0708  0.2710  0.1185
    1SAPS   H2S   28   0.963   3.395  10.399  0.5083 -0.7805 -2.2106
    1SAPS    C3   29   0.701   3.837  10.475  0.2687  0.9009 -0.4741
    1SAPS    HX   30   0.780   3.898  10.426 -0.2985  1.3995 -0.7705
    1SAPS    HY   31   0.651   3.907  10.546 -0.4318 -1.5465  1.5816
    1SAPS   O31   32   0.616   3.778  10.369 -0.6711 -0.1282  0.1712
    1SAPS   C31   33   0.505   3.716  10.424  0.1405  0.7400 -0.1665
    1SAPS   O32   34   0.485   3.720  10.547  0.3246 -0.5219  0.0281
    1SAPS   C32   35   0.418   3.641  10.323 -0.0658  0.0518 -0.0960
    1SAPS   H2X   36   0.318   3.625  10.368 -0.4234  2.7353  0.2112
    1SAPS   H2Y   37   0.468   3.542  10.314  0.3496  0.3234 -0.8268
    1SAPS   C23   38   0.793   3.332  10.278 -0.0387  0.4891  0.2363
    1SAPS   H3R   39   0.688   3.360  10.256  0.4981  1.4392 -1.2839
    1SAPS   H3S   40   0.782   3.250  10.352 -1.2966  0.4614  0.0257
    1SAPS   C24   41   0.866   3.274  10.160  0.6811 -0.6994  0.0269
    1SAPS   H4R   42   0.964   3.238  10.197  1.2390  0.4983 -0.2454
    1SAPS   H4S   43   0.892   3.352  10.085 -0.8978 -0.3242 -0.1601
    1SAPS   C25   44   0.812   3.163  10.082  0.3113  0.8054 -0.3773
    1SAPS   H5R   45   0.849   3.063  10.110 -0.0503  0.7718  0.0030
    1SAPS   C26   46   0.709   3.177   9.997 -0.9312  0.3725 -0.1975
    1SAPS   H6R   47   0.682   3.090   9.935 -0.0598 -0.9281  1.1744
    1SAPS   C27   48   0.641   3.306   9.967  0.2701  0.0935 -0.3708
    1SAPS   H7R   49   0.693   3.367   9.889  0.6471  1.1068  0.6405
    1SAPS   H7S   50   0.636   3.373  10.056 -0.6982 -0.5225  0.0485
    1SAPS   C28   51   0.504   3.290   9.907  0.2866 -0.1819 -0.0236
    1SAPS   H8R   52   0.423   3.302   9.980  2.4495 -0.8248  2.6397
    1SAPS   C29   53   0.472   3.254   9.780 -0.2377  0.4870 -0.2557
    1SAPS   H9R   54   0.366   3.237   9.755 -0.2768  1.2570 -0.6642
    1SAPS  C210   55   0.563   3.213   9.671  0.4606  0.1151  1.0607
    1SAPS  H10R   56   0.512   3.154   9.593  1.6194  0.4639  0.0117
    1SAPS  H10S   57   0.632   3.143   9.723 -2.0039 -2.5150  1.0450
    1SAPS  C211   58   0.646   3.328   9.612 -0.1269 -0.1089 -0.3101
    1SAPS  H11R   59   0.658   3.412   9.683 -3.2843  0.2271 -0.0095
    1SAPS  C212   60   0.676   3.347   9.477 -0.3462  0.1098 -0.4993
    1SAPS  H12R   61   0.740   3.430   9.444 -0.8205 -0.0336 -1.8018
    1SAPS  C213   62   0.634   3.254   9.367 -0.0400  0.1253  0.1769
    1SAPS  H13R   63   0.595   3.158   9.405 -0.5983 -0.5334 -1.9145
    1SAPS  H13S   64   0.725   3.229   9.309  0.7946  0.6039  1.2399
    1SAPS  C214   65   0.530   3.316   9.278  0.1380  0.2149 -1.2539
    1SAPS  H14R   66   0.428   3.312   9.319  0.2660  2.2654 -0.6640
    1SAPS  C215   67   0.545   3.398   9.169 -0.1462  0.1592 -0.5860
    1SAPS  H15R   68   0.456   3.422   9.109 -1.2982 -0.1232  0.9239
    1SAPS  C216   69   0.681   3.436   9.108 -0.0366 -0.6468 -0.0233
    1SAPS  H16R   70   0.770   3.437   9.175  2.7614 -1.1184 -3.4272
    1SAPS  H16S   71   0.668   3.545   9.089 -0.9658 -0.2233  2.6217
    1SAPS  C217   72   0.717   3.356   8.981  0.1734  0.5650  0.2722
    1SAPS  H17R   73   0.632   3.320   8.919  2.1264 -0.3837 -2.0267
    1SAPS  H17S   74   0.761   3.257   9.006  2.1631  1.7792  1.8760
    1SAPS  C218   75   0.802   3.425   8.874  0.5965  0.1452 -0.6806
    1SAPS  H18R   76   0.837   3.347   8.803  1.2726 -1.4798  1.3301
    1SAPS  H18S   77   0.893   3.467   8.922 -0.5767  1.4627  0.4726
    1SAPS  C219   78   0.727   3.530   8.795  0.4378 -0.0119 -0.0350
    1SAPS  H19R   79   0.670   3.600   8.860  0.7884  0.5686 -0.3399
    1SAPS  H19S   80   0.649   3.478   8.735 -0.5179  2.1465 -0.7572
    1SAPS  C220   81   0.825   3.586   8.694  0.6270  0.1984 -0.5524
    1SAPS  H20R   82   0.910   3.635   8.745 -1.3330  1.7472  1.4547
    1SAPS  H20S   83   0.776   3.658   8.624 -0.5730 -0.0564  0.0027
    1SAPS  H20T   84   0.861   3.498   8.636  1.5087 -0.7173  1.3051
    1SAPS   C33   85   0.402   3.702  10.181 -0.3126 -0.4768 -0.5132
    1SAPS   H3X   86   0.501   3.713  10.132 -0.0120 -1.1064 -0.0663
    1SAPS   H3Y   87   0.362   3.804  10.193  1.0924  0.2059 -1.3860
    1SAPS   C34   88   0.316   3.608  10.090 -0.3634  0.0140 -0.1012
    1SAPS   H4X   89   0.212   3.605  10.128 -2.0142  2.6168 -3.8039
    1SAPS   H4Y   90   0.352   3.504  10.104 -0.1295  0.2880  1.5466
    1SAPS   C35   91   0.316   3.639   9.939 -0.0518 -0.5327 -0.5639
    1SAPS   H5X   92   0.267   3.737   9.923  1.2341  0.2310 -0.0179
    1SAPS   H5Y   93   0.255   3.556   9.897  0.3575 -0.9418 -0.3664
    1SAPS   C36   94   0.451   3.649   9.871 -0.3941  0.1593 -0.0377
    1SAPS   H6X   95   0.507   3.561   9.910  0.2435  0.0897 -1.0506
    1SAPS   H6Y   96   0.503   3.742   9.901 -0.7502 -0.5795  3.1837
    1SAPS   C37   97   0.430   3.657   9.725  0.2660 -0.3250  0.2011
    1SAPS   H7X   98   0.361   3.741   9.702 -0.6376 -0.8209  1.0481
    1SAPS   H7Y   99   0.380   3.564   9.692 -0.3761 -0.3116  1.1019
    1SAPS   C38  100   0.557   3.680   9.650 -0.6694  0.0478  0.1172
    1SAPS   H8X  101   0.634   3.610   9.687  0.5621  0.8485 -0.8436
    1SAPS   H8Y  102   0.600   3.781   9.670  1.0653 -0.1315 -2.2794
    1SAPS   C39  103   0.546   3.645   9.500 -0.0509 -0.4492  0.3827
    1SAPS   H9X  104   0.483   3.556   9.483  1.0773 -1.5486  1.6894
    1SAPS   H9Y  105   0.652   3.626   9.471  0.4267  0.2932  1.5626
    1SAPS  C310  106   0.499   3.760   9.421  0.2796 -0.3563 -0.0247
    1SAPS  H10X  107   0.555   3.849   9.455  0.0421 -0.4183  0.5462
    1SAPS  H10Y  108   0.393   3.784   9.443  0.3254 -0.2474  0.0712
    1SAPS  C311  109   0.524   3.739   9.280 -0.3851 -0.4592 -0.2837
    1SAPS  H11X  110   0.446   3.666   9.250 -0.2527 -1.6555  2.0558
    1SAPS  H11Y  111   0.622   3.696   9.249  1.1560  3.0195 -0.7244
    1SAPS  C312  112   0.507   3.869   9.200  0.0815  0.8886 -0.3820
    1SAPS  H12X  113   0.588   3.943   9.217  0.3870  0.5312 -0.2413
    1SAPS  H12Y  114   0.415   3.917   9.238 -1.3513 -1.2937 -0.8441
    1SAPS  C313  115   0.519   3.847   9.047 -0.2588 -0.4772  0.0322
    1SAPS  H13X  116   0.624   3.814   9.032  0.8720  1.6630  2.4080
    1SAPS  H13Y  117   0.507   3.951   9.009  2.5546  0.3322  1.0677
    1SAPS  C314  118   0.421   3.755   8.982 -0.5479  0.2924 -0.5725
    1SAPS  H14X  119   0.322   3.769   9.030  1.3247  0.9537  3.4890
    1SAPS  H14Y  120   0.453   3.652   9.007 -0.5866 -0.0785 -1.9907
    1SAPS  C315  121   0.433   3.767   8.831  0.1170 -0.5877  0.4219
    1SAPS  H15X  122   0.536   3.743   8.799  0.4058  0.3606  0.5998
    1SAPS  H15Y  123   0.411   3.874   8.811  0.8711 -0.3583  0.7706
    1SAPS  C316  124   0.344   3.671   8.752 -0.1261  0.2412  0.4453
    1SAPS  H16X  125   0.234   3.679   8.769 -0.6883 -1.7389 -1.6435
    1SAPS  H16Y  126   0.369   3.569   8.790 -0.2322  0.5529  1.3756
    1SAPS  C317  127   0.376   3.677   8.602  0.0620  0.4831 -0.6891
    1SAPS  H17X  128   0.463   3.618   8.568 -0.4691 -1.6206  1.3675
    1SAPS  H17Y  129   0.413   3.780   8.582  1.2051 -0.1492 -1.9938
    1SAPS  C318  130   0.262   3.639   8.503  0.6243  0.3988  0.0386
    1SAPS  H18X  131   0.296   3.656   8.399  0.0577 -1.6647 -0.5393
    1SAPS  H18Y  132   0.170   3.702   8.515  1.5669  1.9736 -0.7305
    1SAPS  H18Z  133   0.234   3.532   8.517 -1.1470  0.9300  0.9087
    2SAPS     N  134   4.623   0.440  11.067 -0.4822 -0.6911 -0.5642
    2SAPS   HN1  135   4.670   0.376  11.135  2.6628  2.0747  0.1322
    2SAPS   HN2  136   4.527   0.461  11.100 -0.8485 -1.8061 -0.8717
    2SAPS   HN3  137   4.607   0.391  10.976  0.5227 -0.2082 -1.0230
    2SAPS   C12  138   4.702   0.574  11.061 -0.1932  0.4207 -0.4591
    2SAPS  H12A  139   4.648   0.649  11.004 -0.8762  0.2816 -0.0018
    2SAPS   C13  140   4.738   0.637  11.198  0.3650 -0.1377 -1.1314
    2SAPS  O13A  141   4.693   0.580  11.304 -0.1077  0.2305  0.5645
    2SAPS  O13B  142   4.818   0.734  11.209  0.4006  0.5711  0.1674
    2SAPS   C11  143   4.838   0.551  10.991 -0.2821  0.0870 -0.5722
    2SAPS  H11A  144   4.895   0.472  11.044  1.6402  1.4610 -0.5035
    2SAPS  H11B  145   4.903   0.641  10.995 -1.5069  1.1353 -2.5234
    2SAPS     P  146   4.830   0.624  10.741 -0.3416  0.0545 -0.2619
    2SAPS   O13  147   4.764   0.592  10.611 -0.0354 -0.3346 -0.1525
    2SAPS   O14  148   4.788   0.755  10.798  0.1753 -0.0867  0.3572
    2SAPS   O12  149   4.817   0.508  10.853  0.1906  1.2699  0.1424
    2SAPS   O11  150   4.984   0.635  10.722 -0.4506 -0.1909  0.4193
    2SAPS    C1  151   5.075   0.522  10.728  0.0333 -0.7106 -0.2049
    2SAPS    HA  152   5.130   0.529  10.824 -2.8807 -2.2760  1.7209
    2SAPS    HB  153   5.025   0.423  10.727  0.3502 -0.9648  2.3256
    2SAPS    C2  154   5.172   0.524  10.600 -0.5431  0.1273  0.5871
    2SAPS    HS  155   5.228   0.620  10.600 -2.0771  1.0571  0.1497
    2SAPS   O21  156   5.086   0.510  10.487  0.0790  0.1470 -0.4164
    2SAPS   C21  157   5.058   0.622  10.428 -0.1268  0.2419 -1.0047
    2SAPS   O22  158   5.100   0.732  10.461  0.3044 -0.2018  0.1431
    2SAPS   C22  159   4.964   0.604  10.310 -0.5931  0.1249  0.5062
    2SAPS   H2R  160   4.876   0.549  10.348 -1.9347  1.2540 -0.8486
    2SAPS   H2S  161   4.937   0.707  10.279  3.5454  1.1761 -0.2345
    2SAPS    C3  162   5.284   0.410  10.609  0.2648 -0.2644 -0.1307
    2SAPS    HX  163   5.256   0.331  10.681 -4.2522 -0.3178 -1.6199
    2SAPS    HY  164   5.374   0.465  10.646  1.3086 -1.3289 -1.0192
    2SAPS   O31  165   5.324   0.355  10.485  0.4449  0.2544  0.3914
    2SAPS   C31  166   5.258   0.249  10.436  0.0778  0.8007  0.2927
    2SAPS   O32  167   5.161   0.200  10.492 -0.1744  0.3987 -0.3640
    2SAPS   C32  168   5.327   0.198  10.308 -0.1719  0.7089  0.1780
    2SAPS   H2X  169   5.409   0.137  10.349 -0.7983 -0.2510  0.0336
    2SAPS   H2Y  170   5.374   0.282  10.252  1.3082  0.3340  0.8126
    2SAPS   C23  171   5.027   0.515  10.205 -0.3595 -0.0281  0.9241
    2SAPS   H3R  172   5.061   0.419  10.247 -0.0497 -0.4487 -0.2332
    2SAPS   H3S  173   5.121   0.554  10.161  0.2412 -0.0792  2.1395
    2SAPS   C24  174   4.932   0.478  10.087 -0.3574 -0.0027 -0.2062
    2SAPS   H4R  175   4.900   0.580  10.057 -2.9987 -0.0905  1.9372
    2SAPS   H4S  176   4.845   0.421  10.126 -0.9246  0.1931 -1.1484
    2SAPS   C25  177   5.006   0.397   9.986 -0.6379 -0.4346  0.1723
    2SAPS   H5R  178   5.089   0.332  10.020 -0.0562  0.2622  0.1123
    2SAPS   C26  179   4.960   0.396   9.857  0.1566 -0.9105  0.4618
    2SAPS   H6R  180   5.000   0.323   9.785 -0.4174 -1.9335  1.1542
    2SAPS   C27  181   4.836   0.466   9.807  0.0726  0.3701 -0.1219
    2SAPS   H7R  182   4.782   0.523   9.887 -0.3738 -0.0432 -0.1221
    2SAPS   H7S  183   4.764   0.397   9.759  0.5642  0.4632 -1.0153
    2SAPS   C28  184   4.873   0.584   9.711  0.3467 -0.2728 -0.0434
    2SAPS   H8R  185   4.862   0.683   9.756 -1.6452  0.1720 -1.3590
    2SAPS   C29  186   4.916   0.561   9.587  0.4900  0.0365  0.5698
    2SAPS   H9R  187   4.944   0.646   9.522 -0.5275  2.0561  2.6132
    2SAPS  C210  188   4.914   0.423   9.526  0.1635 -0.7432 -0.2093
    2SAPS  H10R  189   4.812   0.381   9.509 -0.4624  0.8774 -0.6550
    2SAPS  H10S  190   4.964   0.350   9.593  0.6042 -1.0979 -0.9221
    2SAPS  C211  191   4.995   0.426   9.395 -0.8226  0.8928 -0.5287
    2SAPS  H11R  192   5.102   0.403   9.403 -1.1724 -0.6225  0.0912
    2SAPS  C212  193   4.949   0.448   9.268  0.6868  0.0898 -0.0273
    2SAPS  H12R  194   5.025   0.438   9.189  0.1345 -2.2995 -0.3151
    2SAPS  C213  195   4.807   0.491   9.241  0.5429 -0.4152 -0.1337
    2SAPS  H13R  196   4.813   0.602   9.244 -3.7752  0.0027 -0.6435
    2SAPS  H13S  197   4.739   0.447   9.318  0.7026 -1.0669 -0.3601
    2SAPS  C214  198   4.752   0.462   9.103 -0.0429 -0.0841  0.6540
    2SAPS  H14R  199   4.700   0.365   9.094  1.8553 -1.2619  1.5555
    2SAPS  C215  200   4.764   0.540   8.996 -0.2375  0.6921 -0.2226
    2SAPS  H15R  201   4.728   0.502   8.899 -0.7827  1.5427 -0.3603
    2SAPS  C216  202   4.834   0.673   8.985 -0.1221 -0.5209  0.4160
    2SAPS  H16R  203   4.942   0.669   8.958  0.6452  4.6259  1.7451
    2SAPS  H16S  204   4.818   0.728   9.080  0.1334  0.6168 -0.1836
    2SAPS  C217  205   4.755   0.759   8.883 -0.6673 -0.3852 -0.1403
    2SAPS  H17R  206   4.651   0.781   8.913 -0.0063  2.0941  0.5739
    2SAPS  H17S  207   4.769   0.725   8.778  0.8536 -0.3406  0.0156
    2SAPS  C218  208   4.816   0.898   8.874 -0.3385  0.0452 -0.4454
    2SAPS  H18R  209   4.908   0.894   8.811  0.8171 -2.7593  1.2338
    2SAPS  H18S  210   4.857   0.937   8.970 -1.3181 -1.2785  0.5399
    2SAPS  C219  211   4.706   0.997   8.828  0.8144 -0.2022  0.7664
    2SAPS  H19R  212   4.625   0.982   8.903  2.1757  0.3422  2.4047
    2SAPS  H19S  213   4.671   0.970   8.726  2.0083  1.0984 -0.0185
    2SAPS  C220  214   4.759   1.146   8.818 -0.3774 -0.2897  0.5913
    2SAPS  H20R  215   4.684   1.213   8.771 -0.8730 -0.8984  0.5085
    2SAPS  H20S  216   4.848   1.138   8.752 -0.8385  1.8287 -0.3857
    2SAPS  H20T  217   4.800   1.176   8.917  2.9205 -2.1180 -0.0760
    2SAPS   C33  218   5.237   0.108  10.220 -0.7926  0.2101  0.4138
    2SAPS   H3X  219   5.148   0.162  10.184 -0.7682  1.2649  1.8460
    2SAPS   H3Y  220   5.209   0.024  10.288  1.6716 -0.4260  0.7488
    2SAPS   C34  221   5.321   0.050  10.105  0.2805  0.6126 -0.2269
    2SAPS   H4X  222   5.289  -0.054  10.084 -1.5456  0.8278  1.2001
    2SAPS   H4Y  223   5.426   0.050  10.143 -1.1922 -0.4335  4.6486
    2SAPS   C35  224   5.318   0.147   9.985 -0.7576  0.4946  0.2252
    2SAPS   H5X  225   5.364   0.245  10.010  1.8650 -0.1137 -1.8031
    2SAPS   H5Y  226   5.213   0.171   9.955 -0.3053 -0.1261 -2.0516
    2SAPS   C36  227   5.402   0.101   9.865  0.4463 -0.6367 -0.3571
    2SAPS   H6X  228   5.374   0.001   9.825  2.1071 -0.9594 -0.8287
    2SAPS   H6Y  229   5.511   0.099   9.890  0.5979  1.8332 -0.5859
    2SAPS   C37  230   5.386   0.199   9.748 -0.8312 -0.3635  0.0828
    2SAPS   H7X  231   5.399   0.304   9.782 -0.1008 -0.6966  0.8741
    2SAPS   H7Y  232   5.282   0.188   9.710 -1.0598 -1.7573  1.0016
    2SAPS   C38  233   5.484   0.183   9.635 -0.4718  0.6582 -0.4327
    2SAPS   H8X  234   5.479   0.081   9.593 -1.0610  0.6237 -0.2859
    2SAPS   H8Y  235   5.578   0.213   9.685 -0.5568 -0.9408  0.7457
    2SAPS   C39  236   5.465   0.262   9.506 -0.1079 -0.5493  1.2841
    2SAPS   H9X  237   5.514   0.361   9.519 -0.6105 -0.3395  1.6115
    2SAPS   H9Y  238   5.356   0.270   9.489 -0.1403 -0.5524  1.4893
    2SAPS  C310  239   5.519   0.198   9.377 -0.3995  0.2551  0.7439
    2SAPS  H10X  240   5.496   0.089   9.372  3.4886 -0.7170  1.1938
    2SAPS  H10Y  241   5.629   0.210   9.378 -0.3044  0.4648 -2.5580
    2SAPS  C311  242   5.495   0.272   9.237 -0.6006 -0.5634 -0.3898
    2SAPS  H11X  243   5.578   0.243   9.169  1.4510  1.5092  1.0513
    2SAPS  H11Y  244   5.502   0.381   9.258  0.3482 -0.8209  0.7065
    2SAPS  C312  245   5.360   0.232   9.179 -0.5303 -0.9109  0.6126
    2SAPS  H12X  246   5.280   0.247   9.254  0.0619  0.0495  1.0809
    2SAPS  H12Y  247   5.355   0.128   9.141  3.8679 -0.3649 -2.3030
    2SAPS  C313  248   5.333   0.320   9.057  0.8594  0.5323 -0.1187
    2SAPS  H13X  249   5.418   0.325   8.986  1.4917  0.7109  0.6389
    2SAPS  H13Y  250   5.314   0.427   9.083  2.5127  0.6719  0.6184
    2SAPS  C314  251   5.197   0.281   8.982 -0.0952  0.4362 -0.0594
    2SAPS  H14X  252   5.112   0.262   9.051  1.0476  0.9433  1.5463
    2SAPS  H14Y  253   5.221   0.186   8.930 -2.9043 -0.8617  0.8459
    2SAPS  C315  254   5.142   0.388   8.885 -0.5609 -0.4026  0.0290
    2SAPS  H15X  255   5.226   0.406   8.815 -0.7055  1.9598  0.3885
    2SAPS  H15Y  256   5.124   0.487   8.933 -0.1456  0.3741 -1.3668
    2SAPS  C316  257   5.027   0.331   8.807  0.3264 -0.0734  0.1824
    2SAPS  H16X  258   4.936   0.329   8.871  1.0497 -0.2954  1.2270
    2SAPS  H16Y  259   5.046   0.226   8.779 -0.7040 -0.1556 -0.2758
    2SAPS  C317  260   4.988   0.418   8.686 -0.3844 -0.1648  0.1335
    2SAPS  H17X  261   5.072   0.434   8.616 -1.3655  0.2098 -0.9815
    2SAPS  H17Y  262   4.982   0.517   8.737  1.6216  0.0840 -0.0212
    2SAPS  C318  263   4.857   0.372   8.624  0.4944 -0.2090 -0.5800
    2SAPS  H18X  264   4.879   0.271   8.583  3.0483 -0.8422  1.9614
    2SAPS  H18Y  265   4.810   0.442   8.552 -0.2874  0.7550  0.8121
    2SAPS  H18Z  266   4.776   0.366   8.699  0.2536  2.2060 -0.5575
    3SAPS     N  267   6.252   4.964  10.632  0.1014  0.1251 -0.1632
    3SAPS   HN1  268   6.275   5.040  10.565  0.3990  0.8724  0.7656
    3SAPS   HN2  269   6.338   4.944  10.686 -0.0050 -0.0287 -0.0525
    3SAPS   HN3  270   6.226   4.874  10.587  1.6531 -0.9861  1.0441
    3SAPS   C12  271   6.149   5.004  10.729  0.1767 -0.4253 -0.0000
    3SAPS  H12A  272   6.151   4.935  10.812  0.3151  0.6754  0.9355
    3SAPS   C13  273   6.185   5.139  10.801  0.4241  0.5406 -0.5066
    3SAPS  O13A  274   6.260   5.222  10.756  0.3406  0.7120 -0.0937
    3SAPS  O13B  275   6.112   5.161  10.905  0.1230 -0.1345  0.0835
    3SAPS   C11  276   6.007   5.021  10.656 -0.3935 -0.4912 -0.6829
    3SAPS  H11A  277   6.020   5.115  10.597  1.5469  0.4214  1.0620
    3SAPS  H11B  278   5.919   5.046  10.719  0.6579 -1.0087  1.0477
    3SAPS     P  279   5.916   4.786  10.642  0.1380 -0.4927 -0.0362
    3SAPS   O13  280   6.017   4.689  10.696  0.5104  0.0160 -0.1607
    3SAPS   O14  281   5.802   4.829  10.728  0.1716 -0.2150  0.0642
    3SAPS   O12  282   5.977   4.916  10.565  0.1188 -0.4348 -0.4547
    3SAPS   O11  283   5.840   4.723  10.521 -0.3525 -0.0881 -0.4634
    3SAPS    C1  284   5.745   4.796  10.442 -0.2940 -0.0617 -1.7763
    3SAPS    HA  285   5.711   4.887  10.497  0.8326  0.3871 -1.8092
    3SAPS    HB  286   5.783   4.840  10.347 -1.6572  1.0122 -1.8751
    3SAPS    C2  287   5.627   4.711  10.392  0.5071 -0.6127 -0.2734
    3SAPS    HS  288   5.564   4.678  10.478  0.1061 -0.5028 -0.5179
    3SAPS   O21  289   5.675   4.598  10.313 -0.8077  0.6136 -0.3273
    3SAPS   C21  290   5.608   4.482  10.321  0.2817 -0.5192 -0.0057
    3SAPS   O22  291   5.497   4.471  10.368 -0.3040 -0.1034 -0.1686
    3SAPS   C22  292   5.691   4.377  10.247  0.1499 -0.2678 -0.2969
    3SAPS   H2R  293   5.791   4.420  10.225  1.4503 -0.4850  4.1290
    3SAPS   H2S  294   5.710   4.296  10.321  1.2961 -0.4747 -0.7960
    3SAPS    C3  295   5.520   4.799  10.309 -0.3464  1.0047 -0.2927
    3SAPS    HX  296   5.573   4.868  10.240  1.6721 -2.2400 -2.2955
    3SAPS    HY  297   5.468   4.863  10.382  0.7304  0.4628  0.9992
    3SAPS   O31  298   5.421   4.718  10.238 -0.6216 -0.4525  0.3192
    3SAPS   C31  299   5.435   4.698  10.107 -1.4106  0.3176  0.4195
    3SAPS   O32  300   5.519   4.746  10.032 -0.2309  0.1108 -0.2717
    3SAPS   C32  301   5.327   4.616  10.049 -0.6615  0.3326 -0.3143
    3SAPS   H2X  302   5.233   4.672  10.066 -1.3101  0.0404 -2.5506
    3SAPS   H2Y  303   5.329   4.518  10.102  3.7104 -0.5121 -1.6021
    3SAPS   C23  304   5.617   4.312  10.124 -0.3398  0.6832  0.4013
    3SAPS   H3R  305   5.658   4.366  10.036  2.2249 -0.5238  0.7797
    3SAPS   H3S  306   5.507   4.328  10.131 -0.2064  1.8307  0.0472
    3SAPS   C24  307   5.652   4.167  10.113 -0.6648 -0.0760 -0.2198
    3SAPS   H4R  308   5.626   4.112  10.206  1.4530 -0.5203  0.1626
    3SAPS   H4S  309   5.762   4.153  10.103 -0.9811 -1.6615 -2.4592
    3SAPS   C25  310   5.569   4.112  10.002  0.1687 -0.0952 -0.0423
    3SAPS   H5R  311   5.478   4.057  10.032  0.0385 -0.6329 -1.3179
    3SAPS   C26  312   5.609   4.107   9.872 -0.4291  0.2247 -1.1468
    3SAPS   H6R  313   5.543   4.074   9.791 -0.3875  3.3081 -2.5887
    3SAPS   C27  314   5.741   4.167   9.824 -0.3011 -0.0074 -1.1593
    3SAPS   H7R  315   5.824   4.165   9.898  1.1825 -0.2293 -2.7662
    3SAPS   H7S  316   5.737   4.274   9.795  0.0607 -0.4785 -3.0863
    3SAPS   C28  317   5.800   4.089   9.713  0.2191  0.4591  0.4379
    3SAPS   H8R  318   5.864   4.003   9.736  1.1783  0.2302 -2.6100
    3SAPS   C29  319   5.769   4.090   9.583 -0.5213  0.8620 -0.6539
    3SAPS   H9R  320   5.820   4.014   9.523 -0.7920 -0.6310  0.9202
    3SAPS  C210  321   5.673   4.186   9.516 -0.0742  0.3472  0.4204
    3SAPS  H10R  322   5.624   4.250   9.592  0.5413  2.9623 -1.2649
    3SAPS  H10S  323   5.581   4.137   9.477 -1.4670  2.2255  1.1802
    3SAPS  C211  324   5.745   4.257   9.406  0.1655  0.7002 -0.6271
    3SAPS  H11R  325   5.835   4.305   9.448 -0.6153  0.8593  0.9620
    3SAPS  C212  326   5.713   4.274   9.280  0.0388 -0.3786 -0.0198
    3SAPS  H12R  327   5.780   4.341   9.225 -0.7426 -0.0037 -0.5335
    3SAPS  C213  328   5.599   4.215   9.210  0.1469 -0.5638  0.7392
    3SAPS  H13R  329   5.511   4.276   9.240  1.7085  1.2723  1.8414
    3SAPS  H13S  330   5.583   4.114   9.254 -0.6338 -0.2279  1.2472
    3SAPS  C214  331   5.601   4.207   9.059  0.1419 -0.2678  0.7853
    3SAPS  H14R  332   5.695   4.244   9.015 -0.0820 -0.7461 -0.1311
    3SAPS  C215  333   5.500   4.165   8.978  0.0313 -0.0898  0.1554
    3SAPS  H15R  334   5.501   4.171   8.868  0.1336 -0.2022  0.1496
    3SAPS  C216  335   5.363   4.127   9.032 -0.7146  0.5430  0.3204
    3SAPS  H16R  336   5.336   4.170   9.131 -1.8250 -2.5359  1.4611
    3SAPS  H16S  337   5.367   4.017   9.044  3.0320  0.4338 -0.6617
    3SAPS  C217  338   5.251   4.169   8.935  0.3102  0.1619 -0.5605
    3SAPS  H17R  339   5.158   4.109   8.949  0.4816  0.4723  2.3570
    3SAPS  H17S  340   5.276   4.146   8.829  0.4151  1.3110 -0.8013
    3SAPS  C218  341   5.213   4.318   8.954  0.1536  0.2589 -0.2752
    3SAPS  H18R  342   5.303   4.379   8.932  0.4544  0.2183  0.8132
    3SAPS  H18S  343   5.174   4.328   9.057  1.6993 -3.1000  0.7793
    3SAPS  C219  344   5.111   4.373   8.852 -0.0681  0.9998 -0.2022
    3SAPS  H19R  345   5.018   4.314   8.869  1.3450 -1.2847  0.1308
    3SAPS  H19S  346   5.145   4.348   8.749  0.1185 -0.0594  0.0981
    3SAPS  C220  347   5.078   4.520   8.869  0.1156  0.0995  0.0429
    3SAPS  H20R  348   5.055   4.539   8.976  0.6810 -1.6715  0.5215
    3SAPS  H20S  349   4.989   4.535   8.804 -0.2357 -0.2641  0.4311
    3SAPS  H20T  350   5.157   4.592   8.838  1.6773 -0.9496  1.3702
    3SAPS   C33  351   5.345   4.604   9.903 -0.2100  0.9657 -0.2574
    3SAPS   H3X  352   5.360   4.698   9.846 -1.4794  0.5441 -1.3384
    3SAPS   H3Y  353   5.245   4.572   9.865  0.0581 -1.5585  0.9703
    3SAPS   C34  354   5.449   4.497   9.866 -0.5104 -0.6087  0.1220
    3SAPS   H4X  355   5.422   4.398   9.908  1.7425 -1.6146 -0.6288
    3SAPS   H4Y  356   5.544   4.533   9.911 -1.7279  0.8913  1.6071
    3SAPS   C35  357   5.460   4.463   9.715 -0.4012 -0.3507 -0.1009
    3SAPS   H5X  358   5.362   4.435   9.672 -0.3386  0.9555 -1.1566
    3SAPS   H5Y  359   5.520   4.372   9.694 -1.8668 -2.1777  2.9559
    3SAPS   C36  360   5.522   4.581   9.646 -0.5176  0.2105  0.0426
    3SAPS   H6X  361   5.624   4.609   9.681 -0.3582  0.7620 -0.8305
    3SAPS   H6Y  362   5.458   4.670   9.665 -2.8168 -1.2921 -0.3016
    3SAPS   C37  363   5.524   4.576   9.491 -0.1365 -0.0183  0.5154
    3SAPS   H7X  364   5.605   4.507   9.458  0.0104  1.0937 -1.6108
    3SAPS   H7Y  365   5.564   4.672   9.451  0.6354 -2.1775 -4.8421
    3SAPS   C38  366   5.389   4.546   9.423  0.0726 -0.2382  0.2329
    3SAPS   H8X  367   5.299   4.583   9.476 -0.7758 -1.3135 -0.4170
    3SAPS   H8Y  368   5.378   4.436   9.415 -1.3861  0.0180 -2.0885
    3SAPS   C39  369   5.379   4.615   9.287  0.4284 -0.5257 -0.4040
    3SAPS   H9X  370   5.408   4.722   9.289  0.1495 -0.4482 -0.3731
    3SAPS   H9Y  371   5.271   4.604   9.261  0.4565  0.2396 -0.8897
    3SAPS  C310  372   5.465   4.548   9.184  0.0323 -0.8379 -0.2420
    3SAPS  H10X  373   5.431   4.444   9.164  0.6903 -1.1685  0.3217
    3SAPS  H10Y  374   5.570   4.539   9.219 -0.7969 -0.1480  2.7085
    3SAPS  C311  375   5.466   4.615   9.047 -0.5616 -0.2291  0.2651
    3SAPS  H11X  376   5.488   4.723   9.056  0.2842 -0.3074 -0.6724
    3SAPS  H11Y  377   5.359   4.604   9.018 -0.6491 -1.1618  0.8887
    3SAPS  C312  378   5.570   4.554   8.952 -0.0520  0.3625  0.1189
    3SAPS  H12X  379   5.555   4.444   8.947 -0.1027  0.4043 -0.7038
    3SAPS  H12Y  380   5.671   4.572   8.994  0.7067 -0.3815 -1.2921
    3SAPS  C313  381   5.557   4.614   8.814 -0.3455  0.4646 -0.6936
    3SAPS  H13X  382   5.569   4.725   8.809  0.2230  0.4509  0.1522
    3SAPS  H13Y  383   5.461   4.600   8.761 -0.9367  3.3119 -0.5821
    3SAPS  C314  384   5.673   4.552   8.728 -0.0961  0.1619 -0.3033
    3SAPS  H14X  385   5.683   4.443   8.746  1.4690  0.2780 -0.3057
    3SAPS  H14Y  386   5.767   4.598   8.765 -0.0369  0.1757 -0.4700
    3SAPS  C315  387   5.672   4.599   8.579  0.6931  0.6283  0.1201
    3SAPS  H15X  388   5.774   4.603   8.536  0.6380 -2.2158 -0.4928
    3SAPS  H15Y  389   5.637   4.704   8.589  1.6569  1.1334 -1.4951
    3SAPS  C316  390   5.573   4.519   8.491  0.1639 -0.2594 -0.4073
    3SAPS  H16X  391   5.562   4.559   8.388  0.2513  0.6701 -0.0709
    3SAPS  H16Y  392   5.470   4.523   8.531 -0.2248  0.3321 -1.4302
    3SAPS  C317  393   5.639   4.389   8.443 -0.4221 -0.9955  0.1220
    3SAPS  H17X  394   5.570   4.329   8.380  1.0536 -2.3742 -0.2517
    3SAPS  H17Y  395   5.667   4.328   8.531 -2.9858 -0.5381  1.3548
    3SAPS  C318  396   5.759   4.418   8.351 -0.3880 -0.2037  0.1353
    3SAPS  H18X  397   5.837   4.471   8.409  0.3585  0.6936 -1.5965
    3SAPS  H18Y  398   5.725   4.475   8.261 -1.2153 -1.3967 -0.3284
    3SAPS  H18Z  399   5.794   4.322   8.310  0.3920 -0.3621  1.1450
    4SAPS     N  400   6.423   6.014  10.947  0.2756  0.1886 -0.0227
    4SAPS   HN1  401   6.527   6.010  10.947  0.3064  0.7897  0.7151
    4SAPS   HN2  402   6.402   6.106  10.991  0.0802 -0.4911  1.3497
    4SAPS   HN3  403   6.379   5.936  10.998  0.7414  0.3431  0.6257
    4SAPS   C12  404   6.361   6.021  10.804  0.1477 -0.6248  0.3670
    4SAPS  H12A  405   6.257   6.050  10.808 -0.2821 -0.8371 -4.3961
    4SAPS   C13  406   6.435   6.124  10.709  0.9308  1.1392  0.6449
    4SAPS  O13A  407   6.525   6.195  10.757 -0.3431 -0.0293  0.5012
    4SAPS  O13B  408   6.407   6.126  10.580  0.1020  0.0661  0.0442
    4SAPS   C11  409   6.351   5.870  10.752 -0.1816  0.4746 -0.4101
    4SAPS  H11A  410   6.450   5.825  10.730 -0.3809  0.2168 -0.8054
    4SAPS  H11B  411   6.294   5.878  10.657  0.1517  0.2829 -0.6275
    4SAPS     P  412   6.164   5.693  10.820  0.1408 -0.0397 -0.0487
    4SAPS   O13  413   6.159   5.589  10.925 -0.4401  0.1826  0.4478
    4SAPS   O14  414   6.043   5.784  10.807 -0.1299  0.4076 -0.2267
    4SAPS   O12  415   6.291   5.783  10.850  0.1802  0.2297  0.1068
    4SAPS   O11  416   6.210   5.637  10.682  0.2575  0.1725  0.1319
    4SAPS    C1  417   6.119   5.637  10.574  0.1613  0.0096  1.0974
    4SAPS    HA  418   6.023   5.589  10.602  0.5883 -0.3210  2.0428
    4SAPS    HB  419   6.095   5.738  10.535 -1.7720 -1.7605 -2.7715
    4SAPS    C2  420   6.178   5.560  10.452  0.2322 -0.2003  0.1279
    4SAPS    HS  421   6.281   5.594  10.475 -1.2363  3.1170  2.6440
    4SAPS   O21  422   6.143   5.631  10.332 -0.6135  0.4312  0.0010
    4SAPS   C21  423   6.240   5.640  10.239  0.2860  0.4129 -0.0346
    4SAPS   O22  424   6.348   5.580  10.244  0.2976 -0.2370  0.3739
    4SAPS   C22  425   6.201   5.743  10.143  0.4066 -0.5327  1.0520
    4SAPS   H2R  426   6.092   5.761  10.130  0.3845  0.5962  2.4965
    4SAPS   H2S  427   6.233   5.840  10.185 -2.4040  1.2177 -0.5311
    4SAPS    C3  428   6.152   5.408  10.460  0.7851 -0.1799  0.0623
    4SAPS    HX  429   6.050   5.386  10.498  0.5570 -2.5716 -1.6822
    4SAPS    HY  430   6.226   5.371  10.533  1.2558  0.7823  0.0952
    4SAPS   O31  431   6.178   5.332  10.340  1.0456 -0.4413 -0.0838
    4SAPS   C31  432   6.092   5.341  10.240 -0.5997 -0.4854 -0.0484
    4SAPS   O32  433   5.985   5.401  10.243 -0.1253  0.1201  0.4998
    4SAPS   C32  434   6.152   5.264  10.117  0.5484 -0.4501 -0.3847
    4SAPS   H2X  435   6.125   5.157  10.123 -0.1033 -0.2493  0.4780
    4SAPS   H2Y  436   6.262   5.284  10.121  0.2338  1.6704 -0.9553
    4SAPS   C23  437   6.248   5.730   9.993 -0.3365 -1.2748 -0.0574
    4SAPS   H3R  438   6.199   5.639   9.951  3.0738 -3.3274  0.0040
    4SAPS   H3S  439   6.358   5.716   9.995  0.0095  1.0291  2.0588
    4SAPS   C24  440   6.231   5.860   9.912  0.2333  0.3940 -0.0809
    4SAPS   H4R  441   6.284   5.933   9.976  1.0454 -1.6538  1.6899
    4SAPS   H4S  442   6.123   5.888   9.909  0.1794  0.1583 -0.3871
    4SAPS   C25  443   6.285   5.848   9.769 -0.3269 -0.3167 -0.2914
    4SAPS   H5R  444   6.388   5.884   9.752 -0.9045  1.2743 -0.6376
    4SAPS   C26  445   6.222   5.813   9.660  0.6254 -0.3712  0.0439
    4SAPS   H6R  446   6.273   5.799   9.564 -1.7284  0.3711 -1.3968
    4SAPS   C27  447   6.082   5.756   9.658  0.1167 -0.0942  0.0611
    4SAPS   H7R  448   6.028   5.786   9.566  0.2556 -2.3979 -0.8422
    4SAPS   H7S  449   6.021   5.801   9.740  1.0400  0.4724  0.4419
    4SAPS   C28  450   6.082   5.599   9.665  0.8528  0.6229  0.7274
    4SAPS   H8R  451   6.087   5.560   9.767 -0.3788  1.2700  1.0566
    4SAPS   C29  452   6.056   5.512   9.565  0.3655  0.4006  0.3436
    4SAPS   H9R  453   6.055   5.402   9.577 -2.3149  0.1369 -1.2329
    4SAPS  C210  454   6.017   5.547   9.421 -0.3762 -0.7005 -0.0312
    4SAPS  H10R  455   5.971   5.647   9.409  1.5519  0.1204 -0.9255
    4SAPS  H10S  456   5.942   5.479   9.374 -0.4058  0.1524 -1.2681
    4SAPS  C211  457   6.150   5.546   9.347 -0.1719 -0.6096 -0.7797
    4SAPS  H11R  458   6.241   5.582   9.397  1.3721 -1.1812 -3.0037
    4SAPS  C212  459   6.167   5.516   9.217  0.0294  1.0719 -0.4990
    4SAPS  H12R  460   6.268   5.525   9.175  0.8746 -0.5784  1.0337
    4SAPS  C213  461   6.053   5.472   9.126  0.0781 -0.0382  0.3487
    4SAPS  H13R  462   6.031   5.562   9.065 -0.5397  0.2962  1.0564
    4SAPS  H13S  463   5.959   5.449   9.181 -0.8296 -0.0099 -1.1230
    4SAPS  C214  464   6.082   5.349   9.050 -0.1895 -0.0385 -0.6763
    4SAPS  H14R  465   6.128   5.264   9.101  0.2000  0.8675  0.5293
    4SAPS  C215  466   6.073   5.332   8.921 -0.0470 -0.6123  0.0110
    4SAPS  H15R  467   6.104   5.235   8.879 -0.2314 -1.5243  1.8795
    4SAPS  C216  468   6.038   5.433   8.817 -0.9896  0.6847 -0.4004
    4SAPS  H16R  469   5.956   5.500   8.850 -0.2283  0.9147  1.0832
    4SAPS  H16S  470   5.999   5.368   8.736  0.8717 -0.9069 -0.1076
    4SAPS  C217  471   6.155   5.521   8.767  0.9013  0.2677  0.1387
    4SAPS  H17R  472   6.257   5.476   8.762  0.9697  0.4743 -0.4420
    4SAPS  H17S  473   6.166   5.608   8.835 -0.2771  0.8347 -0.3601
    4SAPS  C218  474   6.132   5.592   8.634  0.5712  0.1726  0.2757
    4SAPS  H18R  475   6.184   5.690   8.632 -1.6245  1.4779  2.2428
    4SAPS  H18S  476   6.025   5.617   8.621  0.5523  0.5107  1.0172
    4SAPS  C219  477   6.182   5.505   8.511 -0.6026  0.2346  0.0718
    4SAPS  H19R  478   6.119   5.413   8.512 -2.4321  1.4236 -0.4018
    4SAPS  H19S  479   6.284   5.464   8.526 -0.8928 -0.5291  0.0032
    4SAPS  C220  480   6.165   5.574   8.377 -0.5760 -0.7279  0.5535
    4SAPS  H20R  481   6.062   5.559   8.338  0.6436 -2.3016 -2.4074
    4SAPS  H20S  482   6.239   5.528   8.308 -0.8005  0.0705 -0.2400
    4SAPS  H20T  483   6.198   5.680   8.375  0.8802 -1.1683 -0.1586
    4SAPS   C33  484   6.093   5.314   9.982 -0.4336 -0.3383  0.2864
    4SAPS   H3X  485   6.128   5.419   9.983 -1.4776  0.0179 -0.1155
    4SAPS   H3Y  486   5.983   5.321   9.988 -0.4581 -0.7345  0.3519
    4SAPS   C34  487   6.138   5.260   9.843 -0.7260 -0.2241  0.4464
    4SAPS   H4X  488   6.249   5.273   9.844 -0.8765  1.4404  2.1349
    4SAPS   H4Y  489   6.087   5.327   9.770  1.1925  0.6213 -0.1962
    4SAPS   C35  490   6.094   5.116   9.831 -0.4264  0.0680  0.4910
    4SAPS   H5X  491   5.984   5.101   9.828 -1.0313  3.5805  0.9689
    4SAPS   H5Y  492   6.127   5.062   9.922 -1.6917 -1.9858 -0.2245
    4SAPS   C36  493   6.167   5.050   9.712 -0.0011 -0.6554 -0.1735
    4SAPS   H6X  494   6.147   4.941   9.725  2.3842 -1.1599 -0.1490
    4SAPS   H6Y  495   6.276   5.068   9.728 -0.4691 -0.1542  3.2237
    4SAPS   C37  496   6.130   5.096   9.573  0.4723 -0.7804 -0.6619
    4SAPS   H7X  497   6.154   5.205   9.571 -0.9413 -0.4565 -0.8454
    4SAPS   H7Y  498   6.028   5.070   9.537  1.0361 -0.1536 -2.8491
    4SAPS   C38  499   6.205   5.029   9.456 -0.4401  0.2975 -0.3963
    4SAPS   H8X  500   6.174   4.922   9.450 -1.1689  0.5152 -0.5901
    4SAPS   H8Y  501   6.315   5.029   9.470 -0.3842  0.6907 -0.8409
    4SAPS   C39  502   6.167   5.086   9.321  0.5285 -0.6560 -0.0484
    4SAPS   H9X  503   6.234   5.171   9.297 -0.7228  0.2996 -0.2197
    4SAPS   H9Y  504   6.065   5.128   9.319  0.1677 -1.5388 -1.9560
    4SAPS  C310  505   6.185   4.987   9.201 -0.1304 -0.9280 -0.6585
    4SAPS  H10X  506   6.170   5.041   9.105 -0.2184 -2.1003 -1.3183
    4SAPS  H10Y  507   6.104   4.911   9.195 -0.6903 -0.2975 -1.2769
    4SAPS  C311  508   6.316   4.904   9.214  0.2352 -0.5625  0.1451
    4SAPS  H11X  509   6.298   4.818   9.283 -0.4737  0.3417  1.1143
    4SAPS  H11Y  510   6.398   4.971   9.249 -0.7787  1.0919 -0.5628
    4SAPS  C312  511   6.364   4.851   9.079  0.1531 -0.0361  0.1772
    4SAPS  H12X  512   6.473   4.834   9.081  0.2839  0.5876 -0.9000
    4SAPS  H12Y  513   6.349   4.916   8.989 -1.8358  2.2266  1.9897
    4SAPS  C313  514   6.291   4.724   9.042 -0.3594  0.1540 -0.4913
    4SAPS  H13X  515   6.181   4.744   9.043 -0.3613  0.3320 -2.0707
    4SAPS  H13Y  516   6.314   4.651   9.123  0.5511 -1.9805 -2.5882
    4SAPS  C314  517   6.316   4.659   8.905  0.1821 -0.5126  0.1145
    4SAPS  H14X  518   6.308   4.549   8.914 -0.9825 -0.2957  3.3332
    4SAPS  H14Y  519   6.416   4.702   8.883 -0.6291  1.3191 -0.1511
    4SAPS  C315  520   6.220   4.696   8.788 -1.1862  0.5547  0.1604
    4SAPS  H15X  521   6.221   4.807   8.777 -1.2212  0.5368 -0.0263
    4SAPS  H15Y  522   6.119   4.663   8.819  0.0468 -2.8876  0.9114
    4SAPS  C316  523   6.248   4.629   8.654  0.1434  0.3529 -0.0537
    4SAPS  H16X  524   6.254   4.518   8.662  2.8564  0.3419 -1.1941
    4SAPS  H16Y  525   6.349   4.650   8.613  1.3007 -0.5109  2.1964
    4SAPS  C317  526   6.134   4.665   8.554 -0.1204  0.0263  0.1150
    4SAPS  H17X  527   6.134   4.770   8.516 -3.4288  0.3253  0.6200
    4SAPS  H17Y  528   6.034   4.652   8.600 -1.2585  2.2820 -1.5183
    4SAPS  C318  529   6.151   4.595   8.413  0.4759  0.6605 -0.4065
    4SAPS  H18X  530   6.133   4.485   8.417 -0.6159  0.7160 -2.5489
    4SAPS  H18Y  531   6.245   4.621   8.360  0.5915 -0.8451 -1.0033
    4SAPS  H18Z  532   6.060   4.627   8.358  1.5010  3.0449 -0.8103
    5SAPS     N  533   4.589   2.243  10.820  0.2324  0.1077  0.5545
    5SAPS   HN1  534   4.550   2.151  10.847 -0.8736  1.1367  2.7813
    5SAPS   HN2  535   4.513   2.302  10.779 -0.3321 -0.7449  0.3606
    5SAPS   HN3  536   4.665   2.231  10.751 -1.5988 -1.8196 -1.2937
    5SAPS   C12  537   4.643   2.318  10.939  0.2737 -0.4514  0.1433
    5SAPS  H12A  538   4.560   2.332  11.007 -0.5146 -1.5854 -0.5517
    5SAPS   C13  539   4.750   2.250  11.022  0.1952  0.6362  0.1883
    5SAPS  O13A  540   4.803   2.141  10.990  0.0626  0.5150  0.3993
    5SAPS  O13B  541   4.817   2.324  11.103  0.1522  0.1536  0.0562
    5SAPS   C11  542   4.697   2.453  10.893  0.0879 -0.5152 -0.0471
    5SAPS  H11A  543   4.771   2.426  10.815  0.1113 -1.3631  0.2540
    5SAPS  H11B  544   4.736   2.513  10.979 -2.8919 -0.8642  1.6725
    5SAPS     P  545   4.615   2.688  10.818 -0.3681 -0.4846 -0.0816
    5SAPS   O13  546   4.524   2.754  10.910 -0.0965  0.0832 -0.7562
    5SAPS   O14  547   4.763   2.711  10.824 -0.2236  0.0795  0.2253
    5SAPS   O12  548   4.585   2.534  10.837 -0.1728 -0.2139 -0.0504
    5SAPS   O11  549   4.568   2.709  10.670  0.3244 -0.5819 -0.1402
    5SAPS    C1  550   4.616   2.636  10.556  0.0975  0.4964  0.3857
    5SAPS    HA  551   4.631   2.528  10.576 -3.5289 -0.0764  0.6643
    5SAPS    HB  552   4.529   2.637  10.487 -0.9121 -0.0598  1.6005
    5SAPS    C2  553   4.732   2.710  10.485 -0.1462  0.2018  0.4183
    5SAPS    HS  554   4.820   2.714  10.553 -0.3160  2.3521  0.5535
    5SAPS   O21  555   4.690   2.835  10.438  0.8905 -0.0456  0.4726
    5SAPS   C21  556   4.745   2.943  10.483 -0.1157 -0.3281 -0.4099
    5SAPS   O22  557   4.840   2.945  10.559  0.7322  0.5738 -0.1623
    5SAPS   C22  558   4.666   3.064  10.430 -0.7740 -0.1525 -0.0133
    5SAPS   H2R  559   4.618   3.045  10.332 -3.1942  4.0369  0.0919
    5SAPS   H2S  560   4.585   3.086  10.503 -0.6523  1.4265 -0.3100
    5SAPS    C3  561   4.766   2.634  10.350  0.4828  0.2103  0.0354
    5SAPS    HX  562   4.677   2.657  10.288 -0.4333  0.5188  1.4234
    5SAPS    HY  563   4.765   2.524  10.361  3.6949  0.1779  0.9675
    5SAPS   O31  564   4.880   2.690  10.294 -0.0029  1.1482  0.6905
    5SAPS   C31  565   4.992   2.630  10.345  0.1319 -0.2060  0.6189
    5SAPS   O32  566   5.003   2.533  10.410  0.3757  0.4894  0.0686
    5SAPS   C32  567   5.118   2.691  10.291 -0.7886 -0.5829 -0.1483
    5SAPS   H2X  568   5.195   2.612  10.290  0.6888  0.8016 -0.7902
    5SAPS   H2Y  569   5.146   2.767  10.367 -1.7879 -0.0863 -0.2546
    5SAPS   C23  570   4.764   3.178  10.404  0.5981 -1.0213 -0.8319
    5SAPS   H3R  571   4.809   3.201  10.503 -1.0482  1.5615 -0.5827
    5SAPS   H3S  572   4.707   3.273  10.391 -2.6560 -2.5382  1.1086
    5SAPS   C24  573   4.870   3.154  10.295 -0.2114 -0.4583 -0.2542
    5SAPS   H4R  574   4.933   3.070  10.332 -0.5789 -0.1037  1.2832
    5SAPS   H4S  575   4.932   3.244  10.313 -1.6226  0.5838 -0.3944
    5SAPS   C25  576   4.840   3.139  10.150 -0.5251 -0.9815  0.0672
    5SAPS   H5R  577   4.831   3.033  10.120 -0.0740 -0.8891 -0.3973
    5SAPS   C26  578   4.834   3.237  10.046  0.8784  0.4103 -0.0327
    5SAPS   H6R  579   4.816   3.200   9.945 -1.1035  3.8037 -1.0902
    5SAPS   C27  580   4.857   3.384  10.047  0.7182 -0.0481 -0.1045
    5SAPS   H7R  581   4.808   3.433  10.134  0.4678  0.7898 -0.7133
    5SAPS   H7S  582   4.801   3.428   9.962  0.8106 -2.0674 -1.2918
    5SAPS   C28  583   5.006   3.418  10.049  0.1106 -0.1125 -0.1508
    5SAPS   H8R  584   5.037   3.449  10.150 -1.5018  0.1976  0.2826
    5SAPS   C29  585   5.095   3.409   9.945  0.6448  0.0645 -0.3169
    5SAPS   H9R  586   5.200   3.431   9.969  1.2759 -1.6464 -1.3169
    5SAPS  C210  587   5.072   3.372   9.801 -0.4824  0.8429 -0.3909
    5SAPS  H10R  588   4.965   3.353   9.776 -0.3107  2.2298 -2.3517
    5SAPS  H10S  589   5.125   3.277   9.783 -0.6885  0.4179  1.0671
    5SAPS  C211  590   5.114   3.478   9.705  0.4424 -0.5730 -0.8173
    5SAPS  H11R  591   5.219   3.467   9.674  1.1342 -0.1855  1.2587
    5SAPS  C212  592   5.039   3.575   9.652  0.1105  0.4831  0.0805
    5SAPS  H12R  593   5.081   3.645   9.578 -2.4206  1.0916 -0.8932
    5SAPS  C213  594   4.896   3.610   9.692  0.3848  0.1206 -0.0013
    5SAPS  H13R  595   4.832   3.523   9.717  1.2229 -1.0452 -1.6910
    5SAPS  H13S  596   4.851   3.653   9.600 -0.1313  0.5861  0.4617
    5SAPS  C214  597   4.891   3.704   9.809  0.3894 -0.3580 -0.3210
    5SAPS  H14R  598   4.925   3.665   9.906 -2.2850 -0.1154  0.7949
    5SAPS  C215  599   4.860   3.832   9.799 -0.1029  0.1671  0.2296
    5SAPS  H15R  600   4.848   3.894   9.889 -3.3686  0.2935 -0.1868
    5SAPS  C216  601   4.809   3.907   9.678  0.0541 -0.2947 -0.7611
    5SAPS  H16R  602   4.767   3.842   9.598 -1.1022 -0.1109 -0.3183
    5SAPS  H16S  603   4.885   3.979   9.640 -1.3092  2.0388  0.6697
    5SAPS  C217  604   4.702   4.001   9.721 -0.2550  0.1281 -0.0635
    5SAPS  H17R  605   4.737   4.076   9.795  0.4449 -1.3337  1.1409
    5SAPS  H17S  606   4.625   3.936   9.768  0.0196  0.8019  1.3750
    5SAPS  C218  607   4.640   4.095   9.613  0.6733 -0.3105  0.1751
    5SAPS  H18R  608   4.619   4.039   9.519  1.2496 -1.9356  0.9802
    5SAPS  H18S  609   4.543   4.127   9.658  0.6970 -1.2267  0.9162
    5SAPS  C219  610   4.715   4.223   9.576 -0.6823  0.0556  0.0330
    5SAPS  H19R  611   4.817   4.203   9.535  0.7498  1.5323  2.6435
    5SAPS  H19S  612   4.739   4.276   9.671 -1.4685  1.1303 -0.3503
    5SAPS  C220  613   4.636   4.304   9.478  0.2677  0.6926  0.4853
    5SAPS  H20R  614   4.531   4.315   9.513  0.1233 -0.4116  0.4384
    5SAPS  H20S  615   4.626   4.236   9.391  1.1031 -0.8393  1.5329
    5SAPS  H20T  616   4.685   4.398   9.445 -1.5095  1.3038 -0.5903
    5SAPS   C33  617   5.120   2.756  10.138 -0.2110  0.4719 -0.5359
    5SAPS   H3X  618   5.218   2.799  10.109 -1.0541  0.5714 -3.6100
    5SAPS   H3Y  619   5.053   2.844  10.146  2.0789  2.3369 -0.6925
    5SAPS   C34  620   5.093   2.653  10.029 -0.1634 -0.5102  0.3607
    5SAPS   H4X  621   4.984   2.633  10.042 -0.8401  2.2081 -0.4117
    5SAPS   H4Y  622   5.149   2.560  10.053  0.1344 -0.5370 -0.4087
    5SAPS   C35  623   5.145   2.714   9.902  0.0703  0.4889  0.2924
    5SAPS   H5X  624   5.250   2.747   9.914 -0.0849  2.0713 -1.9475
    5SAPS   H5Y  625   5.086   2.806   9.881 -3.1729 -1.5778 -0.4410
    5SAPS   C36  626   5.145   2.594   9.798 -0.4168 -0.3043 -0.4826
    5SAPS   H6X  627   5.038   2.570   9.781  0.4396 -4.2640 -1.1328
    5SAPS   H6Y  628   5.189   2.497   9.830 -0.3770 -0.0758  0.1780
    5SAPS   C37  629   5.214   2.641   9.668  0.0337 -0.2524  0.0128
    5SAPS   H7X  630   5.233   2.557   9.598  1.6068 -0.7553  0.9902
    5SAPS   H7Y  631   5.309   2.694   9.688 -0.6693  1.5762 -1.2533
    5SAPS   C38  632   5.114   2.729   9.590  0.1283  0.1746 -0.2152
    5SAPS   H8X  633   5.081   2.816   9.649 -0.0601 -0.1358  0.1412
    5SAPS   H8Y  634   5.025   2.668   9.562  1.0060 -0.8314 -0.8881
    5SAPS   C39  635   5.169   2.763   9.453  0.0340 -0.3590  0.1874
    5SAPS   H9X  636   5.085   2.800   9.391  1.0160 -0.4466 -1.2478
    5SAPS   H9Y  637   5.221   2.677   9.405  2.4643 -0.2141  2.3392
    5SAPS  C310  638   5.279   2.870   9.453  0.9897 -0.2075 -0.5820
    5SAPS  H10X  639   5.358   2.838   9.525 -0.0634  0.6155  1.0045
    5SAPS  H10Y  640   5.244   2.971   9.485  2.2881  0.5543 -1.4447
    5SAPS  C311  641   5.323   2.889   9.303 -0.1995  0.0834 -0.0384
    5SAPS  H11X  642   5.358   2.793   9.261 -0.3441 -1.5444  3.2646
    5SAPS  H11Y  643   5.412   2.955   9.298 -0.1212 -0.0740 -0.7876
    5SAPS  C312  644   5.218   2.955   9.213 -0.0824 -0.3567  0.0912
    5SAPS  H12X  645   5.176   3.043   9.266 -0.9921 -0.7866  0.1018
    5SAPS  H12Y  646   5.138   2.880   9.194 -0.4912  0.1868 -0.4000
    5SAPS  C313  647   5.271   2.983   9.072 -0.2417 -0.4385  0.5207
    5SAPS  H13X  648   5.190   2.953   9.002 -0.7196 -1.6564  1.5592
    5SAPS  H13Y  649   5.358   2.919   9.047  0.2014  0.4352 -0.2407
    5SAPS  C314  650   5.300   3.132   9.061 -0.1878 -0.3471  0.4491
    5SAPS  H14X  651   5.385   3.155   9.129  0.5753 -0.7741 -0.3389
    5SAPS  H14Y  652   5.213   3.189   9.099  1.2810  1.5751  1.0637
    5SAPS  C315  653   5.331   3.184   8.917 -0.4566 -0.7671  0.2536
    5SAPS  H15X  654   5.324   3.293   8.934 -0.1380 -0.2530 -2.4802
    5SAPS  H15Y  655   5.262   3.162   8.833  0.2053 -1.6996 -0.0739
    5SAPS  C316  656   5.464   3.141   8.856  0.2601  0.4380  0.5660
    5SAPS  H16X  657   5.453   3.032   8.840  2.4835  0.1026  1.0541
    5SAPS  H16Y  658   5.544   3.156   8.931 -0.0927  0.3674  0.9580
    5SAPS  C317  659   5.501   3.201   8.715 -0.2205 -0.1559 -0.7421
    5SAPS  H17X  660   5.609   3.219   8.700  0.0189 -0.0931  0.9038
    5SAPS  H17Y  661   5.451   3.300   8.717  0.3791  0.2245 -2.5942
    5SAPS  C318  662   5.435   3.123   8.596  0.4280  0.0777  0.0633
    5SAPS  H18X  663   5.324   3.119   8.603  0.1204  4.1801 -0.1727
    5SAPS  H18Y  664   5.471   3.018   8.605 -2.3159 -0.8297  1.5591
    5SAPS  H18Z  665   5.465   3.172   8.501 -0.8689  1.3399  0.2738
    6SAPS     N  666   3.089   2.257  10.716  0.2558  0.1144  0.0752
    6SAPS   HN1  667   3.144   2.208  10.642 -1.1368 -0.4735 -0.6088
    6SAPS   HN2  668   3.076   2.195  10.798  1.8488  0.9343  1.0041
    6SAPS   HN3  669   2.997   2.292  10.680  1.4647  1.9226 -1.4853
    6SAPS   C12  670   3.170   2.380  10.746  0.3218  0.3967  0.5478
    6SAPS  H12A  671   3.149   2.451  10.668 -3.0170 -1.4789 -0.4597
    6SAPS   C13  672   3.139   2.448  10.878  0.8775 -0.2556 -0.6992
    6SAPS  O13A  673   3.049   2.413  10.963 -0.2097  0.8394  0.4659
    6SAPS  O13B  674   3.210   2.553  10.901 -0.4649  0.0788 -0.0303
    6SAPS   C11  675   3.320   2.348  10.735  0.0955 -0.2226 -0.0167
    6SAPS  H11A  676   3.332   2.293  10.830  0.1501 -2.7828 -1.4225
    6SAPS  H11B  677   3.377   2.443  10.737 -1.2916  0.7105 -1.6502
    6SAPS     P  678   3.497   2.189  10.627  0.1637 -0.1254  0.8601
    6SAPS   O13  679   3.586   2.252  10.724 -0.3081 -0.2352  0.3531
    6SAPS   O14  680   3.487   2.039  10.625 -0.2782 -0.7338  0.5439
    6SAPS   O12  681   3.355   2.261  10.634 -0.3442 -0.0726  0.3253
    6SAPS   O11  682   3.559   2.229  10.482  0.1134  0.2266  0.3622
    6SAPS    C1  683   3.515   2.346  10.414  0.1237 -0.1394  0.4380
    6SAPS    HA  684   3.493   2.421  10.493 -1.7812 -1.3269  1.0843
    6SAPS    HB  685   3.605   2.379  10.358  1.0199 -0.0886  1.8527
    6SAPS    C2  686   3.391   2.345  10.326  0.3198  0.2596 -0.1483
    6SAPS    HS  687   3.320   2.266  10.359  1.0211 -0.6920 -0.8684
    6SAPS   O21  688   3.434   2.336  10.191 -0.2266  0.3528  0.2863
    6SAPS   C21  689   3.449   2.207  10.148 -0.0050 -0.3918  0.0894
    6SAPS   O22  690   3.407   2.108  10.201  0.1831 -0.6724 -0.3109
    6SAPS   C22  691   3.526   2.210  10.019  0.2632 -0.0538  0.1554
    6SAPS   H2R  692   3.611   2.280  10.033 -0.2800  1.4416 -3.0696
    6SAPS   H2S  693   3.562   2.105  10.011  1.5301  0.2676  1.3114
    6SAPS    C3  694   3.306   2.479  10.348 -0.8263 -0.5516 -0.1911
    6SAPS    HX  695   3.371   2.568  10.352 -2.6958  0.8957 -0.5619
    6SAPS    HY  696   3.259   2.471  10.449 -0.9507  3.9304  0.3044
    6SAPS   O31  697   3.214   2.488  10.247 -0.4242  0.7256  0.2044
    6SAPS   C31  698   3.093   2.438  10.264  0.2523  0.5267  0.5327
    6SAPS   O32  699   3.054   2.374  10.355  0.0756  0.0115 -0.2567
    6SAPS   C32  700   3.001   2.463  10.141  0.3830  0.1367 -0.0187
    6SAPS   H2X  701   2.951   2.560  10.164  0.9304  0.8514 -1.7399
    6SAPS   H2Y  702   2.924   2.383  10.147 -0.1519  0.6958  0.8817
    6SAPS   C23  703   3.443   2.260   9.897  0.6757 -0.4413  0.0237
    6SAPS   H3R  704   3.494   2.348   9.854 -0.0904 -1.1089 -2.4429
    6SAPS   H3S  705   3.342   2.301   9.920  0.4114  0.5126 -2.5223
    6SAPS   C24  706   3.424   2.152   9.781 -0.3111  0.1787  0.6009
    6SAPS   H4R  707   3.356   2.190   9.702 -0.5028 -1.2377  0.0524
    6SAPS   H4S  708   3.376   2.059   9.819  1.6861  0.3633  3.9311
    6SAPS   C25  709   3.559   2.108   9.724  0.1453  0.7904 -0.2051
    6SAPS   H5R  710   3.624   2.049   9.790  0.3127 -1.3825 -2.1591
    6SAPS   C26  711   3.607   2.139   9.599  0.0808 -0.3356 -1.6044
    6SAPS   H6R  712   3.707   2.098   9.577 -0.6202 -1.4070 -2.8577
    6SAPS   C27  713   3.530   2.213   9.491 -0.0907 -0.2245  0.1933
    6SAPS   H7R  714   3.462   2.290   9.532  2.0096  1.5543  0.5715
    6SAPS   H7S  715   3.476   2.138   9.429 -0.0104 -0.1603  0.0440
    6SAPS   C28  716   3.628   2.280   9.399  0.1480 -0.5717 -0.4814
    6SAPS   H8R  717   3.686   2.347   9.464 -1.9227 -0.9446  1.9152
    6SAPS   C29  718   3.644   2.290   9.264 -0.3694 -0.9937 -0.6921
    6SAPS   H9R  719   3.720   2.359   9.226  0.5356 -1.3684  0.3865
    6SAPS  C210  720   3.563   2.215   9.166  0.1227 -0.7633 -0.2761
    6SAPS  H10R  721   3.555   2.283   9.079 -1.4708 -0.5316  0.0302
    6SAPS  H10S  722   3.461   2.191   9.202  0.7359  0.8414  2.8856
    6SAPS  C211  723   3.630   2.088   9.114 -0.1981 -0.0551 -0.4696
    6SAPS  H11R  724   3.736   2.077   9.142 -0.9694 -1.2561  2.4019
    6SAPS  C212  725   3.560   1.991   9.050 -0.0716 -1.2351  0.5823
    6SAPS  H12R  726   3.613   1.898   9.025  3.2504  0.9999 -1.4885
    6SAPS  C213  727   3.417   1.997   9.000 -0.6050  0.5201 -0.2129
    6SAPS  H13R  728   3.365   2.070   9.066  0.5956  1.0461  0.1791
    6SAPS  H13S  729   3.374   1.895   9.017  1.7774 -0.8853 -1.9897
    6SAPS  C214  730   3.404   2.040   8.858 -0.4895  0.6725  0.4355
    6SAPS  H14R  731   3.465   2.128   8.836  0.8515 -0.1805  0.6198
    6SAPS  C215  732   3.327   1.989   8.762 -0.2946 -0.4401 -0.1693
    6SAPS  H15R  733   3.311   2.049   8.671  0.7003  0.3935  0.1846
    6SAPS  C216  734   3.235   1.868   8.772  0.0990 -0.7494  0.1107
    6SAPS  H16R  735   3.133   1.911   8.783 -0.2435 -1.3692 -0.5586
    6SAPS  H16S  736   3.246   1.814   8.868  1.7958  1.4244  1.2414
    6SAPS  C217  737   3.252   1.774   8.654  0.5888 -0.7395  0.2723
    6SAPS  H17R  738   3.241   1.842   8.567  1.3152 -1.2309 -0.2217
    6SAPS  H17S  739   3.168   1.701   8.649 -0.3933  0.3832  0.0936
    6SAPS  C218  740   3.387   1.704   8.661 -0.0322 -0.1975  0.5408
    6SAPS  H18R  741   3.461   1.771   8.710  0.4222  0.3691 -0.8697
    6SAPS  H18S  742   3.416   1.674   8.558  1.3071  1.6612  0.3353
    6SAPS  C219  743   3.383   1.574   8.752  0.2498  0.1258  1.3352
    6SAPS  H19R  744   3.319   1.597   8.839 -4.2423  1.0082 -1.8284
    6SAPS  H19S  745   3.486   1.541   8.778  0.8614 -0.4487 -1.4595
    6SAPS  C220  746   3.312   1.460   8.670 -0.6353 -0.5378  0.0720
    6SAPS  H20R  747   3.375   1.424   8.586 -1.6881 -3.1959  0.3106
    6SAPS  H20S  748   3.215   1.492   8.628 -0.2337  0.0973 -0.3727
    6SAPS  H20T  749   3.289   1.383   8.747 -0.5489 -1.5743 -0.9033
    6SAPS   C33  750   3.088   2.472  10.011 -0.3676  0.1066 -0.0965
    6SAPS   H3X  751   3.166   2.395  10.028  1.4028  2.2236  2.0155
    6SAPS   H3Y  752   3.148   2.565  10.011 -0.7802  0.4287  2.5359
    6SAPS   C34  753   3.012   2.473   9.880 -0.2769 -0.1410 -0.0086
    6SAPS   H4X  754   2.961   2.571   9.866  1.8143  0.9458 -0.4345
    6SAPS   H4Y  755   2.927   2.402   9.883  0.7134 -1.4070 -0.8754
    6SAPS   C35  756   3.097   2.445   9.754  0.6441 -0.4790  0.2165
    6SAPS   H5X  757   3.134   2.341   9.773  0.1779 -0.7161 -0.1587
    6SAPS   H5Y  758   3.174   2.525   9.753 -1.3429  1.5228  0.1622
    6SAPS   C36  759   3.017   2.458   9.626  0.7123  0.1420 -0.0200
    6SAPS   H6X  760   2.954   2.549   9.636  2.8423  1.5025  2.0190
    6SAPS   H6Y  761   2.940   2.379   9.610 -0.3317  1.1991 -0.4188
    6SAPS   C37  762   3.101   2.476   9.500  0.0630  0.0832 -0.7080
    6SAPS   H7X  763   3.163   2.389   9.470 -1.9218 -1.3019 -0.9367
    6SAPS   H7Y  764   3.167   2.566   9.506 -0.2351  0.4213 -2.1370
    6SAPS   C38  765   3.006   2.497   9.382 -0.5084 -0.4279 -0.0420
    6SAPS   H8X  766   2.947   2.590   9.397 -0.9171 -0.5660 -0.7740
    6SAPS   H8Y  767   2.936   2.411   9.378  1.8804 -2.4711 -0.1836
    6SAPS   C39  768   3.080   2.487   9.249  0.1205  0.6358 -0.0823
    6SAPS   H9X  769   3.148   2.401   9.263 -0.4207  0.3337  0.7395
    6SAPS   H9Y  770   3.153   2.571   9.240  0.8347 -0.0628 -0.9792
    6SAPS  C310  771   2.991   2.481   9.125 -0.0002 -0.1739 -0.6374
    6SAPS  H10X  772   2.918   2.563   9.143  1.0812  0.7677 -0.3970
    6SAPS  H10Y  773   2.937   2.384   9.134 -1.4628  0.5937 -0.7821
    6SAPS  C311  774   3.079   2.481   9.002 -0.1757  0.5583 -0.8092
    6SAPS  H11X  775   3.151   2.398   9.021  1.0026  1.2595 -2.1187
    6SAPS  H11Y  776   3.121   2.583   9.007  1.3048 -0.0714  1.0616
    6SAPS  C312  777   3.008   2.462   8.868  0.2458  0.2788  0.9511
    6SAPS  H12X  778   2.936   2.377   8.874  0.1236  0.4347  1.7152
    6SAPS  H12Y  779   3.082   2.455   8.785  0.8552  3.7833  1.0567
    6SAPS  C313  780   2.924   2.588   8.838 -0.6610  0.2029  0.0836
    6SAPS  H13X  781   2.985   2.677   8.808 -1.5678  0.3214 -1.5320
    6SAPS  H13Y  782   2.871   2.616   8.931 -2.7325 -1.4071 -0.5508
    6SAPS  C314  783   2.823   2.563   8.720  0.4618  0.3288 -0.1333
    6SAPS  H14X  784   2.778   2.464   8.743  1.3490 -0.7493 -2.6406
    6SAPS  H14Y  785   2.872   2.565   8.620  0.3952  2.1291 -0.1605
    6SAPS  C315  786   2.699   2.650   8.719  0.6261 -0.4839  0.9244
    6SAPS  H15X  787   2.613   2.614   8.658  1.1296 -1.3005  0.6703
    6SAPS  H15Y  788   2.722   2.752   8.683 -2.0300  0.6356  2.1098
    6SAPS  C316  789   2.630   2.676   8.855  0.9852  0.2222 -1.1473
    6SAPS  H16X  790   2.688   2.752   8.912  0.4883  0.0999 -0.4693
    6SAPS  H16Y  791   2.632   2.578   8.907  0.7800 -0.5938 -2.6223
    6SAPS  C317  792   2.484   2.724   8.858 -0.0252 -0.2952  0.0001
    6SAPS  H17X  793   2.433   2.641   8.805  3.3698 -3.3549  1.0520
    6SAPS  H17Y  794   2.477   2.824   8.809 -2.3078 -0.7745 -0.7835
    6SAPS  C318  795   2.427   2.740   8.997 -0.5659 -0.7525 -0.8015
    6SAPS  H18X  796   2.332   2.799   8.998  0.2766  0.6639  0.9094
    6SAPS  H18Y  797   2.502   2.787   9.065 -0.6334  1.2463 -2.0197
    6SAPS  H18Z  798   2.398   2.642   9.040  1.5544 -1.7131 -1.4498
    7SAPS     N  799   6.148   4.468  10.778  0.2841 -0.0324 -0.1640
    7SAPS   HN1  800   6.068   4.527  10.745  1.3331  1.6260  0.1215
    7SAPS   HN2  801   6.217   4.533  10.822  1.8136 -1.2811 -0.6450
    7SAPS   HN3  802   6.190   4.415  10.700 -0.4006  0.7151 -1.0686
    7SAPS   C12  803   6.113   4.373  10.894 -0.2886  0.1057  0.1880
    7SAPS  H12A  804   6.198   4.306  10.902  0.5798  1.0277 -0.8468
    7SAPS   C13  805   6.089   4.441  11.026  0.5023 -0.5697  0.0001
    7SAPS  O13A  806   6.084   4.565  11.026  0.0206  0.5814  0.4314
    7SAPS  O13B  807   6.095   4.373  11.133  0.1513 -0.9015  0.0548
    7SAPS   C11  808   5.982   4.299  10.864 -0.0710  0.7853 -0.3808
    7SAPS  H11A  809   5.899   4.372  10.848  0.1514  0.8965 -1.0798
    7SAPS  H11B  810   5.948   4.236  10.949  1.7549  0.0701 -0.1495
    7SAPS     P  811   5.916   4.240  10.613 -0.1936  0.5519  0.4579
    7SAPS   O13  812   5.909   4.119  10.528 -0.3842 -0.1016  0.4116
    7SAPS   O14  813   5.790   4.306  10.638  0.5161 -0.6947  0.3403
    7SAPS   O12  814   5.986   4.216  10.745  0.6028  0.1808  0.6078
    7SAPS   O11  815   6.011   4.344  10.554 -0.3697 -0.3361  0.1342
    7SAPS    C1  816   5.983   4.432  10.436 -0.2382 -0.2556 -0.5069
    7SAPS    HA  817   5.875   4.455  10.423 -0.1065 -0.5963 -2.4947
    7SAPS    HB  818   6.018   4.535  10.459 -3.5464  0.9421 -0.2645
    7SAPS    C2  819   6.056   4.394  10.304 -0.2874  0.2128 -0.3033
    7SAPS    HS  820   6.159   4.399  10.347 -0.2305 -3.1459  0.2492
    7SAPS   O21  821   6.022   4.478  10.198 -0.2214 -0.0828 -0.1070
    7SAPS   C21  822   6.079   4.597  10.199 -0.1674  0.1887  0.5966
    7SAPS   O22  823   6.151   4.641  10.285  0.0784  0.2321 -0.5358
    7SAPS   C22  824   6.056   4.666  10.069  0.6910  0.5095  0.2409
    7SAPS   H2R  825   6.131   4.747  10.065  1.7831 -0.4940 -0.2979
    7SAPS   H2S  826   6.072   4.595   9.984 -0.0128 -2.0709  2.1413
    7SAPS    C3  827   6.030   4.245  10.262 -0.4388  0.3144 -0.6432
    7SAPS    HX  828   5.919   4.237  10.263 -0.5240  1.3783  0.3023
    7SAPS    HY  829   6.069   4.171  10.336 -0.3481  0.4760 -0.5283
    7SAPS   O31  830   6.085   4.210  10.132 -0.0783 -0.1770 -0.4572
    7SAPS   C31  831   6.064   4.080  10.085  0.2836 -0.2480  0.7283
    7SAPS   O32  832   6.006   3.991  10.142  0.3115  0.0702 -0.1737
    7SAPS   C32  833   6.135   4.062   9.951  0.4199  0.4491 -0.1345
    7SAPS   H2X  834   6.066   4.013   9.879  1.7186  0.4793 -1.4440
    7SAPS   H2Y  835   6.227   4.000   9.965  1.3791  1.3107 -2.2191
    7SAPS   C23  836   5.906   4.713  10.046  0.1808  0.1418 -0.1747
    7SAPS   H3R  837   5.889   4.805  10.107  0.7544  0.1861 -0.0707
    7SAPS   H3S  838   5.842   4.631  10.084  0.5339 -0.2779 -0.4895
    7SAPS   C24  839   5.849   4.741   9.907  0.4189 -0.0861 -0.6370
    7SAPS   H4R  840   5.902   4.826   9.858  0.8082  0.6892  1.0742
    7SAPS   H4S  841   5.743   4.774   9.904  0.1011 -1.0547 -0.4934
    7SAPS   C25  842   5.849   4.609   9.829 -0.3764 -0.3570  0.2099
    7SAPS   H5R  843   5.817   4.517   9.880 -0.1310 -0.3940  0.3002
    7SAPS   C26  844   5.899   4.594   9.702  0.5805 -0.2827  0.7462
    7SAPS   H6R  845   5.882   4.496   9.655 -3.5122  1.1865 -1.3081
    7SAPS   C27  846   5.947   4.700   9.603  0.2983 -0.3564 -0.1135
    7SAPS   H7R  847   6.005   4.771   9.667 -0.2076  0.1893 -0.2509
    7SAPS   H7S  848   5.859   4.763   9.576  0.8846 -0.2876 -1.9603
    7SAPS   C28  849   6.015   4.648   9.480  0.3617 -0.4677  0.4305
    7SAPS   H8R  850   6.123   4.631   9.490  0.4175 -1.7300 -1.6743
    7SAPS   C29  851   5.966   4.644   9.357  0.3028 -0.6524  0.1873
    7SAPS   H9R  852   6.022   4.613   9.268  0.5068  0.5289 -0.1137
    7SAPS  C210  853   5.828   4.701   9.303 -0.0046  1.1328 -0.1661
    7SAPS  H10R  854   5.748   4.687   9.379  0.2385  1.1393  0.0932
    7SAPS  H10S  855   5.787   4.651   9.213 -0.8918  2.2276 -0.3950
    7SAPS  C211  856   5.835   4.853   9.296  0.4346  0.2860  0.0420
    7SAPS  H11R  857   5.863   4.909   9.387 -0.6404  3.1010 -1.2591
    7SAPS  C212  858   5.798   4.927   9.188 -0.3830  0.0322  0.5020
    7SAPS  H12R  859   5.814   5.036   9.184  1.5416 -0.1337  1.7885
    7SAPS  C213  860   5.746   4.880   9.053 -0.1185 -0.7714  0.5954
    7SAPS  H13R  861   5.668   4.949   9.014 -0.9693 -1.6156  0.7723
    7SAPS  H13S  862   5.687   4.789   9.075 -2.4560  0.1825 -1.2479
    7SAPS  C214  863   5.861   4.848   8.967  0.5610  0.0193 -0.7854
    7SAPS  H14R  864   5.911   4.754   8.994  0.1179 -0.2616 -0.9303
    7SAPS  C215  865   5.897   4.916   8.857 -0.3112 -0.0448 -0.0570
    7SAPS  H15R  866   5.970   4.880   8.782 -0.1119 -0.3779  0.2939
    7SAPS  C216  867   5.840   5.042   8.797  0.2782  0.1549 -0.3056
    7SAPS  H16R  868   5.919   5.117   8.777  0.0741  1.0295  1.9842
    7SAPS  H16S  869   5.770   5.088   8.870 -0.6588 -1.5693 -0.0482
    7SAPS  C217  870   5.756   5.021   8.673  0.2082  0.3593  0.2323
    7SAPS  H17R  871   5.728   5.121   8.632 -1.4320  0.0745  0.5827
    7SAPS  H17S  872   5.657   4.976   8.695 -0.8184  1.7099 -1.3164
    7SAPS  C218  873   5.813   4.944   8.553  0.5398 -0.4734  0.8030
    7SAPS  H18R  874   5.823   4.836   8.581 -1.9243 -0.8409  0.5779
    7SAPS  H18S  875   5.917   4.974   8.530  0.1239  0.5364  0.2048
    7SAPS  C219  876   5.735   4.968   8.418  0.4804 -0.0304 -0.1567
    7SAPS  H19R  877   5.695   5.072   8.415  0.3100  0.0791  2.8205
    7SAPS  H19S  878   5.655   4.891   8.421  1.7825 -1.3685  2.1486
    7SAPS  C220  879   5.817   4.926   8.301 -0.1549 -0.6933  0.5092
    7SAPS  H20R  880   5.763   4.945   8.206  0.3943  2.0824  0.6768
    7SAPS  H20S  881   5.841   4.818   8.295 -1.8013 -1.1685  1.8240
    7SAPS  H20T  882   5.909   4.988   8.291 -3.2981  4.0725 -2.8798
    7SAPS   C33  883   6.187   4.188   9.889  0.0978  0.1184 -0.2036
    7SAPS   H3X  884   6.280   4.207   9.948 -0.2264 -0.5242  0.5334
    7SAPS   H3Y  885   6.122   4.276   9.910 -2.4116 -1.6376 -0.1541
    7SAPS   C34  886   6.195   4.193   9.740  0.4861 -0.2806  0.0776
    7SAPS   H4X  887   6.240   4.295   9.730  2.1971 -0.9047  0.9227
    7SAPS   H4Y  888   6.100   4.204   9.684 -0.0553 -1.2279  0.7747
    7SAPS   C35  889   6.287   4.083   9.683 -0.2302  0.0769 -0.1713
    7SAPS   H5X  890   6.227   3.990   9.676 -0.6668  0.3565 -0.1936
    7SAPS   H5Y  891   6.369   4.057   9.753 -0.2713  0.6501  0.1001
    7SAPS   C36  892   6.348   4.122   9.551  0.0781 -0.4261 -0.2913
    7SAPS   H6X  893   6.437   4.062   9.526  2.1967  2.2802  0.2556
    7SAPS   H6Y  894   6.381   4.228   9.562 -0.0268 -0.4636  0.4263
    7SAPS   C37  895   6.251   4.114   9.440 -0.4758  0.3904  0.2562
    7SAPS   H7X  896   6.151   4.074   9.468 -1.5673  0.6852 -2.8777
    7SAPS   H7Y  897   6.288   4.052   9.356  2.7164  0.4426  1.4776
    7SAPS   C38  898   6.225   4.258   9.390 -0.6124  0.6373  0.6254
    7SAPS   H8X  899   6.326   4.299   9.367 -1.3024  1.1105 -1.8479
    7SAPS   H8Y  900   6.171   4.324   9.460 -1.9245  1.3253 -0.9814
    7SAPS   C39  901   6.143   4.254   9.266  0.4029  0.2818  0.2518
    7SAPS   H9X  902   6.036   4.266   9.293  0.5910 -0.0422  1.1858
    7SAPS   H9Y  903   6.148   4.149   9.233  0.3116 -0.7217  3.0995
    7SAPS  C310  904   6.180   4.355   9.154  0.0434  0.2139 -0.5910
    7SAPS  H10X  905   6.276   4.325   9.106  0.5863 -0.7245  1.0048
    7SAPS  H10Y  906   6.192   4.452   9.207 -0.6462  0.2839 -0.5529
    7SAPS  C311  907   6.072   4.365   9.050  0.1881 -0.5969  0.2168
    7SAPS  H11X  908   6.112   4.437   8.975  0.2346  2.9672  3.3572
    7SAPS  H11Y  909   5.978   4.407   9.091 -0.9600 -1.6239 -1.2875
    7SAPS  C312  910   6.034   4.236   8.990 -0.4950 -0.2881 -0.7640
    7SAPS  H12X  911   5.976   4.174   9.062 -0.9712  0.3995 -0.5392
    7SAPS  H12Y  912   6.131   4.187   8.967 -0.0364 -0.7271  1.7855
    7SAPS  C313  913   5.931   4.254   8.875 -0.7509 -0.3847 -0.3499
    7SAPS  H13X  914   5.988   4.284   8.785  1.6457 -2.4717  0.3318
    7SAPS  H13Y  915   5.854   4.326   8.909  0.4242  0.7237  0.0339
    7SAPS  C314  916   5.859   4.119   8.857 -0.1393 -0.8821 -0.8267
    7SAPS  H14X  917   5.813   4.094   8.955  0.8275 -0.6709 -0.3013
    7SAPS  H14Y  918   5.934   4.041   8.832  1.0159 -0.7949  2.0116
    7SAPS  C315  919   5.775   4.124   8.737  0.0101 -0.4142  0.5992
    7SAPS  H15X  920   5.846   4.157   8.658  0.6022  1.7264  1.9398
    7SAPS  H15Y  921   5.706   4.208   8.759  0.1717  0.1168 -0.7936
    7SAPS  C316  922   5.695   3.997   8.708 -0.7127  0.2445 -0.0903
    7SAPS  H16X  923   5.663   3.963   8.809  0.8904  0.9757  0.7074
    7SAPS  H16Y  924   5.762   3.913   8.680  0.3778  1.0682 -0.0649
    7SAPS  C317  925   5.576   4.009   8.612  0.3953  0.1704  0.0718
    7SAPS  H17X  926   5.607   4.055   8.516  0.0043 -0.9726 -0.6381
    7SAPS  H17Y  927   5.506   4.081   8.658  1.1413  0.0054  1.4976
    7SAPS  C318  928   5.508   3.882   8.578  0.1357  0.6299 -0.5746
    7SAPS  H18X  929   5.582   3.803   8.552 -0.6649 -0.6840  0.9772
    7SAPS  H18Y  930   5.433   3.898   8.498  0.7950  1.4935 -1.0448
    7SAPS  H18Z  931   5.453   3.842   8.666  2.0935  1.7775  1.2661
    8SAPS     N  932   3.348   5.196  10.905 -0.2656 -0.6807  0.1722
    8SAPS   HN1  933   3.427   5.171  10.842 -0.5285 -1.1592  0.0239
    8SAPS   HN2  934   3.290   5.110  10.911 -0.2641 -0.7592 -0.7462
    8SAPS   HN3  935   3.281   5.271  10.880  0.2691 -1.1947 -3.3916
    8SAPS   C12  936   3.408   5.214  11.040  0.0706 -0.0793  0.3115
    8SAPS  H12A  937   3.477   5.297  11.034  0.2254 -0.2331 -0.0385
    8SAPS   C13  938   3.298   5.254  11.151 -0.0357 -0.1376 -0.2292
    8SAPS  O13A  939   3.176   5.232  11.130  0.5523  0.1566 -0.0295
    8SAPS  O13B  940   3.345   5.259  11.271 -0.1750 -0.6359 -0.2554
    8SAPS   C11  941   3.485   5.085  11.089 -0.2909 -0.0894 -0.8489
    8SAPS  H11A  942   3.402   5.013  11.110 -0.3691  0.2199 -0.0777
    8SAPS  H11B  943   3.537   5.111  11.184 -0.8184  1.2447 -0.9110
    8SAPS     P  944   3.665   4.918  11.022 -0.1096 -0.3760 -0.0224
    8SAPS   O13  945   3.715   4.940  11.157 -0.4973  0.0887  0.4767
    8SAPS   O14  946   3.583   4.793  11.005 -0.4177  0.1565 -0.0937
    8SAPS   O12  947   3.576   5.036  10.981  0.0823 -0.4217 -0.4981
    8SAPS   O11  948   3.784   4.936  10.923  0.0557 -0.5151  0.0504
    8SAPS    C1  949   3.873   5.046  10.901 -0.2861 -0.1292 -0.2819
    8SAPS    HA  950   3.910   5.081  11.000  0.3352  2.3075 -1.3098
    8SAPS    HB  951   3.962   5.003  10.850  1.0495 -0.3431  2.0830
    8SAPS    C2  952   3.803   5.164  10.822  0.0289  0.5627 -0.4727
    8SAPS    HS  953   3.727   5.209  10.889  0.8140  2.8761 -1.0339
    8SAPS   O21  954   3.744   5.108  10.710  0.1435  0.2387 -0.4909
    8SAPS   C21  955   3.630   5.167  10.671 -0.0318 -0.7735  0.0473
    8SAPS   O22  956   3.572   5.255  10.734 -0.2067 -0.2242 -0.2579
    8SAPS   C22  957   3.589   5.109  10.538 -0.6125  0.3336  0.8828
    8SAPS   H2R  958   3.664   5.156  10.471 -1.9697  1.0039 -0.2171
    8SAPS   H2S  959   3.608   5.001  10.521 -0.8252  0.6664 -1.7877
    8SAPS    C3  960   3.900   5.274  10.780  0.2205 -0.2329 -0.2499
    8SAPS    HX  961   3.979   5.220  10.724  0.7447  1.0151 -0.7542
    8SAPS    HY  962   3.953   5.314  10.869 -0.1041 -1.3372  0.4679
    8SAPS   O31  963   3.849   5.387  10.700  0.0474  0.3186  0.3536
    8SAPS   C31  964   3.889   5.393  10.567  0.3393 -0.0588 -0.0870
    8SAPS   O32  965   3.937   5.297  10.507  0.4274  0.1343 -1.0636
    8SAPS   C32  966   3.843   5.529  10.515 -0.5850  0.6032  0.5577
    8SAPS   H2X  967   3.906   5.607  10.563  2.2497 -1.6161  0.6664
    8SAPS   H2Y  968   3.745   5.572  10.547  1.0880  5.3754  0.1028
    8SAPS   C23  969   3.438   5.140  10.503 -0.0251 -0.7279  0.4123
    8SAPS   H3R  970   3.421   5.249  10.499  1.1127 -0.5318  0.6220
    8SAPS   H3S  971   3.376   5.095  10.583  0.7211  0.9003  1.9654
    8SAPS   C24  972   3.397   5.087  10.358  0.4535  0.2186 -0.2335
    8SAPS   H4R  973   3.460   5.152  10.294  0.7229 -0.0669 -0.2572
    8SAPS   H4S  974   3.289   5.105  10.338  0.4241  0.6840  0.3016
    8SAPS   C25  975   3.420   4.943  10.336  0.3445 -0.6030  0.5782
    8SAPS   H5R  976   3.420   4.887  10.431 -0.2899  1.6612  1.9931
    8SAPS   C26  977   3.443   4.893  10.216  0.4697  0.3731 -0.2765
    8SAPS   H6R  978   3.442   4.783  10.208 -1.6250  0.3668 -0.5917
    8SAPS   C27  979   3.439   4.960  10.093 -0.3562 -0.3902 -0.1672
    8SAPS   H7R  980   3.540   4.939  10.050  0.1360 -0.7274  1.1064
    8SAPS   H7S  981   3.441   5.071  10.089  0.6210 -0.4272 -1.0423
    8SAPS   C28  982   3.321   4.926  10.001 -0.1625  0.2174  0.1409
    8SAPS   H8R  983   3.219   4.941  10.038 -0.9058 -2.0259 -0.7688
    8SAPS   C29  984   3.334   4.862   9.885  0.0540 -0.0400 -0.2488
    8SAPS   H9R  985   3.243   4.851   9.825 -0.1948 -2.7005  0.4968
    8SAPS  C210  986   3.457   4.821   9.810  0.7141  0.8249 -0.4675
    8SAPS  H10R  987   3.471   4.713   9.828  1.3890  1.0897  0.7191
    8SAPS  H10S  988   3.545   4.876   9.850  0.1901  0.6696  0.9528
    8SAPS  C211  989   3.452   4.851   9.659 -0.0195 -0.4926 -0.3073
    8SAPS  H11R  990   3.370   4.921   9.637  0.2987  0.0631  0.2247
    8SAPS  C212  991   3.504   4.792   9.552 -0.5987  0.0700 -0.1539
    8SAPS  H12R  992   3.469   4.830   9.455  2.1648  0.3598 -1.1341
    8SAPS  C213  993   3.605   4.668   9.556 -0.2540  0.0764 -0.2874
    8SAPS  H13R  994   3.625   4.638   9.661 -0.4209  1.0076  0.0234
    8SAPS  H13S  995   3.707   4.690   9.517  1.4326 -3.0394  1.8978
    8SAPS  C214  996   3.553   4.546   9.482 -1.3284  0.0717 -0.2106
    8SAPS  H14R  997   3.556   4.449   9.533  1.5462  0.1599 -0.0038
    8SAPS  C215  998   3.554   4.529   9.348 -0.4382  0.6504 -0.8266
    8SAPS  H15R  999   3.511   4.435   9.311  0.9615  0.0937 -1.1168
    8SAPS  C216 1000   3.592   4.630   9.239  0.3292  0.1397  0.5091
    8SAPS  H16R 1001   3.661   4.709   9.276 -0.3625  0.0606  2.0049
    8SAPS  H16S 1002   3.493   4.659   9.198  0.8058  0.0364 -0.7866
    8SAPS  C217 1003   3.660   4.563   9.113  0.6926  0.2923 -0.4429
    8SAPS  H17R 1004   3.620   4.622   9.028  0.3970 -0.7147 -1.0243
    8SAPS  H17S 1005   3.615   4.462   9.103 -0.5843  0.6666  1.1295
    8SAPS  C218 1006   3.811   4.554   9.119 -0.0037  0.0657  0.7305
    8SAPS  H18R 1007   3.842   4.479   9.195  2.7038  0.2660 -0.0736
    8SAPS  H18S 1008   3.852   4.654   9.145  0.2635  0.1244  0.1091
    8SAPS  C219 1009   3.866   4.508   8.989 -0.6203  0.0767  0.6997
    8SAPS  H19R 1010   3.818   4.565   8.906 -0.3876  0.5157  0.8595
    8SAPS  H19S 1011   3.840   4.404   8.963 -0.1222  0.4431 -1.5200
    8SAPS  C220 1012   4.018   4.524   8.985  0.1220 -0.0278  0.5784
    8SAPS  H20R 1013   4.069   4.505   8.888  0.0353  2.1418  0.0672
    8SAPS  H20S 1014   4.070   4.467   9.065  0.5259 -0.6460 -0.1136
    8SAPS  H20T 1015   4.050   4.630   8.992  0.6357 -0.1063 -0.4791
    8SAPS   C33 1016   3.860   5.541  10.361 -0.4459  0.3041 -0.0725
    8SAPS   H3X 1017   3.961   5.510  10.327 -1.0922 -0.8224 -1.0390
    8SAPS   H3Y 1018   3.839   5.648  10.338 -1.9541  0.1416  0.3896
    8SAPS   C34 1019   3.762   5.454  10.272 -0.2146 -0.0121  0.2931
    8SAPS   H4X 1020   3.781   5.351  10.308 -0.8128 -0.1860  0.1186
    8SAPS   H4Y 1021   3.806   5.431  10.172  0.9605  1.1801  0.4934
    8SAPS   C35 1022   3.609   5.486  10.272 -0.4528  0.5889  0.5227
    8SAPS   H5X 1023   3.598   5.596  10.280  0.1321  0.6289  0.8778
    8SAPS   H5Y 1024   3.567   5.447  10.367 -0.1087 -0.0859  0.4063
    8SAPS   C36 1025   3.527   5.429  10.161 -0.8193 -0.2514 -0.3433
    8SAPS   H6X 1026   3.420   5.450  10.181 -0.5206  0.2914  0.7812
    8SAPS   H6Y 1027   3.530   5.319  10.142  1.4247 -0.0085 -1.7782
    8SAPS   C37 1028   3.573   5.486  10.026 -0.0243 -0.0554  0.0307
    8SAPS   H7X 1029   3.675   5.445  10.008  1.1874  2.5813  0.3229
    8SAPS   H7Y 1030   3.590   5.596  10.035 -1.4501  0.2917 -1.1122
    8SAPS   C38 1031   3.488   5.447   9.909  0.4957 -0.0402 -1.1734
    8SAPS   H8X 1032   3.383   5.477   9.930  0.4692 -1.7877  1.7347
    8SAPS   H8Y 1033   3.503   5.337   9.912  0.5847 -0.0229 -1.0178
    8SAPS   C39 1034   3.534   5.510   9.785  0.3214 -0.2289  0.9593
    8SAPS   H9X 1035   3.642   5.496   9.764  0.0625 -0.3070 -0.4131
    8SAPS   H9Y 1036   3.505   5.616   9.804  1.2863  0.0737  0.7814
    8SAPS  C310 1037   3.462   5.468   9.656 -0.4653 -0.2290  0.6099
    8SAPS  H10X 1038   3.489   5.363   9.634 -2.1125 -0.6211  0.3231
    8SAPS  H10Y 1039   3.509   5.533   9.579  0.4944 -2.4303 -0.7624
    8SAPS  C311 1040   3.315   5.504   9.642 -0.2834  0.2084 -0.4514
    8SAPS  H11X 1041   3.302   5.607   9.681  0.8073  1.6869 -3.6829
    8SAPS  H11Y 1042   3.256   5.436   9.707 -1.2478 -0.1208 -1.6228
    8SAPS  C312 1043   3.262   5.511   9.493 -0.2558  0.3557 -0.1639
    8SAPS  H12X 1044   3.157   5.547   9.501 -0.1877  0.6653 -0.6506
    8SAPS  H12Y 1045   3.260   5.405   9.459  0.4484  0.3911 -0.3446
    8SAPS  C313 1046   3.340   5.611   9.403 -0.6209 -0.0782  0.5445
    8SAPS  H13X 1047   3.449   5.588   9.404 -0.8798 -2.0481 -2.3401
    8SAPS  H13Y 1048   3.327   5.712   9.445 -2.5902 -0.3741  0.7089
    8SAPS  C314 1049   3.283   5.606   9.258  0.5816  0.1090 -0.4314
    8SAPS  H14X 1050   3.320   5.697   9.206 -0.3851 -0.9407 -3.1327
    8SAPS  H14Y 1051   3.172   5.598   9.262  0.6849 -1.0689  1.8517
    8SAPS  C315 1052   3.346   5.482   9.180  0.6322 -0.9359  0.3680
    8SAPS  H15X 1053   3.325   5.394   9.244 -1.2295  1.4029  3.2450
    8SAPS  H15Y 1054   3.456   5.494   9.165  0.7976 -3.1847 -0.6964
    8SAPS  C316 1055   3.281   5.461   9.041 -0.3585  0.1943 -0.0300
    8SAPS  H16X 1056   3.343   5.387   8.987 -1.4135  0.4001 -1.5881
    8SAPS  H16Y 1057   3.286   5.553   8.979 -4.2708  0.5730 -0.0466
    8SAPS  C317 1058   3.134   5.410   9.058  0.4142  0.8255 -0.0487
    8SAPS  H17X 1059   3.066   5.486   9.102 -0.6167 -0.9776  1.6720
    8SAPS  H17Y 1060   3.136   5.335   9.140 -0.4088  0.5739 -0.2519
    8SAPS  C318 1061   3.077   5.351   8.937  0.2603  0.7516  0.1049
    8SAPS  H18X 1062   2.967   5.332   8.936  0.8652 -4.2150 -1.9478
    8SAPS  H18Y 1063   3.117   5.250   8.912 -0.6177  0.5152 -0.3976
    8SAPS  H18Z 1064   3.099   5.413   8.847 -0.3501  0.9270  0.0717
    9SAPS     N 1065   4.890   1.670   6.083  0.3283  0.8797  0.7143
    9SAPS   HN1 1066   4.956   1.593   6.107 -0.2438 -0.2212 -0.9951
    9SAPS   HN2 1067   4.806   1.686   6.142 -0.0426 -0.2893  0.5314
    9SAPS   HN3 1068   4.845   1.641   5.993  0.4165 -0.8796  1.1922
    9SAPS   C12 1069   4.939   1.805   6.063 -0.5608 -0.2059  0.5199
    9SAPS  H12A 1070   4.998   1.835   6.149 -1.7203 -0.3099  1.3883
    9SAPS   C13 1071   5.027   1.834   5.941  0.2924 -0.4765  0.6366
    9SAPS  O13A 1072   5.045   1.758   5.839 -0.3207 -0.0742  0.0497
    9SAPS  O13B 1073   5.098   1.942   5.945  0.0605  0.0362  0.5157
    9SAPS   C11 1074   4.817   1.904   6.048  0.5764  0.0815 -0.0391
    9SAPS  H11A 1075   4.759   1.867   5.961  1.4594 -1.5772  0.0368
    9SAPS  H11B 1076   4.854   2.002   6.012  0.8974  0.2776  0.8113
    9SAPS     P 1077   4.771   1.991   6.290 -0.1627  0.4868  0.1705
    9SAPS   O13 1078   4.852   2.107   6.235 -0.3674 -0.2950 -0.0851
    9SAPS   O14 1079   4.652   2.013   6.370 -0.1116 -0.3662 -0.1779
    9SAPS   O12 1080   4.736   1.900   6.174 -0.0284 -0.4740 -0.4205
    9SAPS   O11 1081   4.860   1.889   6.361  0.3618  0.1001 -0.3716
    9SAPS    C1 1082   4.965   1.927   6.450 -0.4150 -0.2667 -0.9426
    9SAPS    HA 1083   5.045   1.987   6.402 -0.0360 -0.1760 -0.1978
    9SAPS    HB 1084   4.913   1.978   6.534 -0.3203 -0.5080 -0.7370
    9SAPS    C2 1085   5.029   1.802   6.518 -0.5175  0.0742 -0.3632
    9SAPS    HS 1086   5.082   1.751   6.435  2.3630 -0.6152  1.7609
    9SAPS   O21 1087   4.917   1.715   6.558 -0.3459 -0.7689 -0.5273
    9SAPS   C21 1088   4.948   1.592   6.616 -1.0795 -0.2000 -0.0602
    9SAPS   O22 1089   5.055   1.534   6.610  0.1830 -0.3122  0.7288
    9SAPS   C22 1090   4.838   1.533   6.694  0.2556  0.1107  0.1692
    9SAPS   H2R 1091   4.748   1.529   6.630 -0.7633  1.6805  1.4122
    9SAPS   H2S 1092   4.860   1.428   6.722 -3.0691 -0.3910  1.3317
    9SAPS    C3 1093   5.136   1.837   6.634  0.2707 -0.3301  0.1616
    9SAPS    HX 1094   5.212   1.903   6.586 -1.3523  0.1103 -1.9545
    9SAPS    HY 1095   5.195   1.752   6.673  0.6167  0.5992  1.7426
    9SAPS   O31 1096   5.074   1.890   6.750 -0.7017  0.6691 -0.6864
    9SAPS   C31 1097   5.084   2.020   6.770 -0.3703  0.2316 -0.8519
    9SAPS   O32 1098   5.167   2.096   6.729  0.5102  0.7352 -0.9741
    9SAPS   C32 1099   4.974   2.052   6.873 -0.2565 -0.6719 -0.7290
    9SAPS   H2X 1100   4.877   2.060   6.818 -0.1267 -0.5206 -0.9373
    9SAPS   H2Y 1101   4.993   2.151   6.920  1.7398  0.0748 -2.9153
    9SAPS   C23 1102   4.806   1.609   6.821  0.6605  0.0938 -0.6499
    9SAPS   H3R 1103   4.820   1.714   6.787  1.7606 -1.0696 -4.2228
    9SAPS   H3S 1104   4.881   1.598   6.902 -0.2792  0.2317  0.2601
    9SAPS   C24 1105   4.670   1.578   6.881  0.8290 -0.0583 -0.7142
    9SAPS   H4R 1106   4.600   1.616   6.802  1.1551  0.6973 -0.6536
    9SAPS   H4S 1107   4.644   1.636   6.972  0.2630 -1.9829  0.4011
    9SAPS   C25 1108   4.645   1.424   6.915 -0.0575 -0.6065  0.1729
    9SAPS   H5R 1109   4.626   1.363   6.825  1.3591 -1.5428  0.4746
    9SAPS   C26 1110   4.635   1.363   7.036 -0.6431 -0.2541 -0.0771
    9SAPS   H6R 1111   4.615   1.255   7.034  2.0097 -0.7963 -0.8233
    9SAPS   C27 1112   4.641   1.438   7.159 -0.0207  0.0489 -0.3045
    9SAPS   H7R 1113   4.545   1.435   7.214  1.1680 -2.2930  1.8523
    9SAPS   H7S 1114   4.649   1.549   7.156 -2.1498  0.2152 -1.9950
    9SAPS   C28 1115   4.745   1.385   7.254 -0.4814 -0.2191  0.1892
    9SAPS   H8R 1116   4.843   1.373   7.206 -0.9920 -1.1245 -0.6630
    9SAPS   C29 1117   4.733   1.336   7.374  0.1819 -0.1264 -0.3821
    9SAPS   H9R 1118   4.820   1.286   7.417 -1.7971 -3.3252  0.2579
    9SAPS  C210 1119   4.611   1.312   7.457  0.5377 -0.1082 -0.0087
    9SAPS  H10R 1120   4.522   1.370   7.426 -0.1529 -0.9438  0.3732
    9SAPS  H10S 1121   4.639   1.351   7.557 -1.4904 -0.0581  0.5663
    9SAPS  C211 1122   4.584   1.163   7.476  0.1018 -0.3960 -1.1531
    9SAPS  H11R 1123   4.523   1.116   7.398  0.2564 -0.9732 -0.9282
    9SAPS  C212 1124   4.637   1.080   7.569  0.3613  0.4291 -0.5385
    9SAPS  H12R 1125   4.586   0.983   7.585  0.9979  0.4100  1.7167
    9SAPS  C213 1126   4.743   1.109   7.671  0.0316  0.2721 -1.0688
    9SAPS  H13R 1127   4.806   1.193   7.635  0.2729  0.3181 -0.5418
    9SAPS  H13S 1128   4.800   1.013   7.670  1.5963  1.0922  1.7410
    9SAPS  C214 1129   4.702   1.136   7.818  0.0212 -0.0078 -0.1759
    9SAPS  H14R 1130   4.596   1.164   7.826  0.4915  1.4468  1.5045
    9SAPS  C215 1131   4.772   1.133   7.933 -0.2591 -0.6152 -0.9592
    9SAPS  H15R 1132   4.715   1.161   8.022  0.0883  1.1569 -1.2573
    9SAPS  C216 1133   4.921   1.112   7.942  0.1135  0.3920  0.2311
    9SAPS  H16R 1134   4.984   1.200   7.967  0.1626  0.1601  0.9571
    9SAPS  H16S 1135   4.951   1.072   7.843 -0.6960  2.2537 -0.8248
    9SAPS  C217 1136   4.944   1.004   8.048 -0.5034  0.2434 -0.4238
    9SAPS  H17R 1137   5.050   0.972   8.045 -0.1925  1.2151 -0.1301
    9SAPS  H17S 1138   4.876   0.921   8.020 -1.8454  0.6616  1.4012
    9SAPS  C218 1139   4.907   1.036   8.196 -0.7390  0.4700  0.1785
    9SAPS  H18R 1140   4.945   0.952   8.259  0.0037  2.2723  2.2915
    9SAPS  H18S 1141   4.797   1.045   8.205 -0.6324  1.3223  0.8230
    9SAPS  C219 1142   4.974   1.163   8.260 -0.5748  0.4055  0.0491
    9SAPS  H19R 1143   4.948   1.255   8.204 -0.7095 -0.5070 -1.4514
    9SAPS  H19S 1144   5.083   1.144   8.252 -0.8275 -1.4075  0.3601
    9SAPS  C220 1145   4.939   1.169   8.407  0.3517 -0.2642 -0.3249
    9SAPS  H20R 1146   4.963   1.269   8.447  1.1434 -0.0969 -1.1989
    9SAPS  H20S 1147   5.017   1.111   8.461  0.9479  2.1643  1.6083
    9SAPS  H20T 1148   4.836   1.141   8.438  0.1264 -0.0176 -0.8456
    9SAPS   C33 1149   4.953   1.945   6.984  0.4054  0.2003  0.3871
    9SAPS   H3X 1150   5.028   1.962   7.065  1.6089 -0.8586 -0.4643
    9SAPS   H3Y 1151   4.976   1.843   6.947  3.2103  0.5019  1.0545
    9SAPS   C34 1152   4.812   1.952   7.034 -0.9096  0.0406 -0.0294
    9SAPS   H4X 1153   4.748   1.892   6.966  2.6960 -0.8014 -3.0479
    9SAPS   H4Y 1154   4.795   2.060   7.055  1.8899  0.2282  1.8378
    9SAPS   C35 1155   4.807   1.860   7.161 -0.4456 -0.6563 -0.0115
    9SAPS   H5X 1156   4.847   1.761   7.130  0.5100 -1.2033  2.6872
    9SAPS   H5Y 1157   4.700   1.846   7.188 -0.4928  1.5938  1.2067
    9SAPS   C36 1158   4.877   1.909   7.287  1.0072 -0.0096  0.0272
    9SAPS   H6X 1159   4.823   2.002   7.315  0.3529  0.1626 -1.7157
    9SAPS   H6Y 1160   4.983   1.935   7.268  0.8064  1.7206  1.0461
    9SAPS   C37 1161   4.865   1.798   7.392 -0.0464 -0.2652  1.1517
    9SAPS   H7X 1162   4.962   1.783   7.443  2.1662  1.0009 -2.3450
    9SAPS   H7Y 1163   4.864   1.705   7.331 -0.0308 -0.0775  0.8633
    9SAPS   C38 1164   4.727   1.790   7.464 -0.4070 -0.2091 -0.4401
    9SAPS   H8X 1165   4.657   1.744   7.390  0.2883 -1.4972 -0.3212
    9SAPS   H8Y 1166   4.677   1.884   7.497  0.3035 -0.1406  0.4733
    9SAPS   C39 1167   4.732   1.693   7.584 -0.1532  0.2613  0.6030
    9SAPS   H9X 1168   4.794   1.716   7.674  0.8553 -2.5051  0.7349
    9SAPS   H9Y 1169   4.759   1.594   7.543 -2.8389  0.3651 -1.6945
    9SAPS  C310 1170   4.594   1.674   7.633 -0.6619 -0.4038  0.6218
    9SAPS  H10X 1171   4.542   1.644   7.540  0.2306  2.1525 -0.7766
    9SAPS  H10Y 1172   4.549   1.768   7.671 -1.0566  0.8066 -2.5953
    9SAPS  C311 1173   4.569   1.556   7.746 -0.2503 -0.7144  0.0669
    9SAPS  H11X 1174   4.652   1.482   7.735  1.3959  1.1326 -0.5918
    9SAPS  H11Y 1175   4.471   1.514   7.715 -0.6054 -0.5079  0.8993
    9SAPS  C312 1176   4.578   1.605   7.887 -0.1008 -0.0707  0.4046
    9SAPS  H12X 1177   4.487   1.668   7.901  0.7233  1.2302  0.1252
    9SAPS  H12Y 1178   4.673   1.663   7.889  0.2073 -0.5756  0.4558
    9SAPS  C313 1179   4.579   1.482   7.973  0.1619 -0.1793 -0.2948
    9SAPS  H13X 1180   4.650   1.405   7.938  2.1030  1.2172  0.3796
    9SAPS  H13Y 1181   4.477   1.438   7.977 -0.6506  1.6624  0.8582
    9SAPS  C314 1182   4.606   1.514   8.124  0.1495  0.3750  0.1328
    9SAPS  H14X 1183   4.546   1.599   8.163  1.3363  1.3987 -0.2070
    9SAPS  H14Y 1184   4.713   1.542   8.138  0.8473 -1.7690 -0.4920
    9SAPS  C315 1185   4.565   1.392   8.212  0.1858 -0.0025  0.0437
    9SAPS  H15X 1186   4.627   1.309   8.172  1.0108  1.6256 -2.2713
    9SAPS  H15Y 1187   4.457   1.367   8.202  0.3161 -0.0696 -1.3016
    9SAPS  C316 1188   4.600   1.406   8.360  0.9055  0.6497  0.1245
    9SAPS  H16X 1189   4.610   1.303   8.401 -2.1756 -0.6428 -1.9680
    9SAPS  H16Y 1190   4.514   1.448   8.417  1.6963 -1.0061  2.7140
    9SAPS  C317 1191   4.709   1.497   8.413 -0.4531  0.3875 -0.0470
    9SAPS  H17X 1192   4.692   1.600   8.377  2.0450  1.0997  0.5871
    9SAPS  H17Y 1193   4.805   1.464   8.367 -0.8161  0.5065 -0.8879
    9SAPS  C318 1194   4.720   1.489   8.565  0.4605 -0.2277  0.5314
    9SAPS  H18X 1195   4.808   1.547   8.600 -0.2585  0.2819  1.5437
    9SAPS  H18Y 1196   4.733   1.388   8.608  1.8875 -0.2569  0.0841
    9SAPS  H18Z 1197   4.633   1.542   8.609  1.0170  2.9902 -1.7930
   10SAPS     N 1198   5.876   1.120   6.382  0.1642 -0.4338  0.2681
   10SAPS   HN1 1199   5.784   1.170   6.379 -1.0085 -2.3210  1.8681
   10SAPS   HN2 1200   5.899   1.110   6.483  0.0291 -0.7637  0.2673
   10SAPS   HN3 1201   5.941   1.177   6.326  0.3685 -1.2163 -0.3054
   10SAPS   C12 1202   5.857   0.977   6.326 -0.6410 -0.4914 -0.2016
   10SAPS  H12A 1203   5.805   0.994   6.233  0.0917 -0.0161 -0.5316
   10SAPS   C13 1204   5.993   0.915   6.295 -0.0732  0.4109 -0.1817
   10SAPS  O13A 1205   6.099   0.975   6.312  0.7206  0.1900  0.3636
   10SAPS  O13B 1206   5.999   0.793   6.253  0.3431 -0.9706 -0.2673
   10SAPS   C11 1207   5.783   0.887   6.429 -0.1767 -0.1447 -0.1672
   10SAPS  H11A 1208   5.849   0.875   6.518 -1.9914  0.2686  1.2860
   10SAPS  H11B 1209   5.768   0.789   6.379 -2.5492 -0.0207  0.2068
   10SAPS     P 1210   5.520   0.907   6.393  0.3054 -0.0397 -0.0597
   10SAPS   O13 1211   5.496   1.011   6.290 -0.8300 -0.0894 -0.5249
   10SAPS   O14 1212   5.518   0.761   6.353 -0.4437 -0.3119  0.1350
   10SAPS   O12 1213   5.658   0.947   6.468 -0.5478  0.3562  0.1247
   10SAPS   O11 1214   5.417   0.935   6.512 -0.2506  0.2286  0.2201
   10SAPS    C1 1215   5.424   1.067   6.573  1.0115 -0.6892 -0.2452
   10SAPS    HA 1216   5.472   1.144   6.509  0.7799 -1.0756 -0.8934
   10SAPS    HB 1217   5.319   1.098   6.586  0.6246 -1.2087 -1.9416
   10SAPS    C2 1218   5.489   1.079   6.717  0.0578 -0.0783 -0.5709
   10SAPS    HS 1219   5.578   1.013   6.711 -0.8103 -1.1452 -2.2635
   10SAPS   O21 1220   5.395   1.041   6.827 -0.6702  0.1946 -0.0399
   10SAPS   C21 1221   5.380   0.914   6.860  0.1191 -0.3194  0.2942
   10SAPS   O22 1222   5.445   0.823   6.808  0.3086  0.2126 -0.4179
   10SAPS   C22 1223   5.278   0.900   6.970 -0.2791  0.3162 -0.0293
   10SAPS   H2R 1224   5.328   0.916   7.068  1.3355  1.2384 -0.9762
   10SAPS   H2S 1225   5.210   0.986   6.950  0.0928  0.2074 -1.9578
   10SAPS    C3 1226   5.544   1.224   6.753  0.3950  0.2409  0.2437
   10SAPS    HX 1227   5.475   1.289   6.695  0.3654  1.9631  2.0769
   10SAPS    HY 1228   5.645   1.239   6.710  0.2429  0.9736  0.1368
   10SAPS   O31 1229   5.534   1.269   6.894  0.5074  0.4790 -0.6737
   10SAPS   C31 1230   5.634   1.222   6.963 -0.6742  0.1887 -0.3025
   10SAPS   O32 1231   5.730   1.161   6.914 -0.5068  0.0300 -0.5535
   10SAPS   C32 1232   5.609   1.245   7.113  0.4779 -0.7779  0.4048
   10SAPS   H2X 1233   5.514   1.303   7.121  0.9039 -0.1723  1.1743
   10SAPS   H2Y 1234   5.685   1.319   7.145 -0.1909 -0.2826  0.8849
   10SAPS   C23 1235   5.216   0.765   6.974 -0.0348 -0.1650  0.1339
   10SAPS   H3R 1236   5.300   0.695   6.996  0.7209  0.1081 -1.6944
   10SAPS   H3S 1237   5.166   0.736   6.879 -1.7245  0.4019  0.8013
   10SAPS   C24 1238   5.110   0.738   7.082 -0.2000  0.1555 -0.1855
   10SAPS   H4R 1239   5.065   0.638   7.071 -3.2526  1.4012  0.0592
   10SAPS   H4S 1240   5.021   0.802   7.063 -1.5868 -1.3987  0.8733
   10SAPS   C25 1241   5.161   0.751   7.225 -0.1159 -0.2415  0.3386
   10SAPS   H5R 1242   5.219   0.665   7.261  0.9358  0.7608  1.1191
   10SAPS   C26 1243   5.138   0.856   7.313  0.1663  0.0152  0.5542
   10SAPS   H6R 1244   5.186   0.848   7.411  1.6950  2.2823  0.0579
   10SAPS   C27 1245   5.057   0.981   7.306  0.0957  0.1864 -0.1366
   10SAPS   H7R 1246   4.985   0.976   7.391 -2.7106 -1.3070 -2.4466
   10SAPS   H7S 1247   4.995   0.975   7.215  0.3599  1.3313 -0.4096
   10SAPS   C28 1248   5.135   1.111   7.312  0.3471  0.1543  0.0176
   10SAPS   H8R 1249   5.109   1.176   7.228 -2.2562  1.2725  1.5876
   10SAPS   C29 1250   5.232   1.151   7.402  0.1224 -0.8652  0.1898
   10SAPS   H9R 1251   5.271   1.253   7.386  2.6087 -2.1079 -2.7811
   10SAPS  C210 1252   5.278   1.079   7.522  0.8232 -0.1428  0.1845
   10SAPS  H10R 1253   5.373   1.030   7.492  0.6211 -0.0153 -0.6822
   10SAPS  H10S 1254   5.202   1.006   7.556 -0.8289  1.1031 -0.7082
   10SAPS  C211 1255   5.332   1.160   7.641 -0.2254 -0.8632  0.3498
   10SAPS  H11R 1256   5.438   1.151   7.669 -0.4093  2.5942  2.8358
   10SAPS  C212 1257   5.246   1.236   7.716  0.0289  0.7796  0.2252
   10SAPS  H12R 1258   5.286   1.279   7.810  0.6667 -3.3891  2.0933
   10SAPS  C213 1259   5.105   1.261   7.682 -0.1631  0.1859  0.3813
   10SAPS  H13R 1260   5.056   1.253   7.782  0.2785 -1.8092  0.4866
   10SAPS  H13S 1261   5.053   1.184   7.622 -3.6149  2.1815  0.5302
   10SAPS  C214 1262   5.071   1.391   7.612 -0.3108 -0.2327 -0.1880
   10SAPS  H14R 1263   5.095   1.392   7.504  1.1580 -0.9672  0.1038
   10SAPS  C215 1264   5.017   1.496   7.679  0.1726  0.1758 -0.5211
   10SAPS  H15R 1265   4.993   1.592   7.632 -0.8427  1.5078  2.4576
   10SAPS  C216 1266   4.985   1.507   7.827 -0.2381  0.9831  0.3392
   10SAPS  H16R 1267   5.018   1.414   7.877  0.4691 -0.1067 -1.9769
   10SAPS  H16S 1268   4.875   1.521   7.833 -0.3514 -0.0124  0.7330
   10SAPS  C217 1269   5.047   1.626   7.903 -0.1410  0.0070 -0.2388
   10SAPS  H17R 1270   5.029   1.720   7.845  1.1622 -0.7336 -1.9450
   10SAPS  H17S 1271   5.158   1.619   7.897 -0.1773 -2.7797  0.8582
   10SAPS  C218 1272   4.996   1.648   8.047  0.3615 -0.2155  0.7002
   10SAPS  H18R 1273   4.888   1.673   8.047  0.6099  1.0166 -0.6692
   10SAPS  H18S 1274   5.038   1.743   8.088  0.4930 -0.6702  1.6463
   10SAPS  C219 1275   5.027   1.534   8.145  0.2955 -0.9185 -0.2166
   10SAPS  H19R 1276   4.984   1.446   8.093 -0.2012 -0.5673 -0.4021
   10SAPS  H19S 1277   4.985   1.557   8.246  2.1032 -1.0998  0.6137
   10SAPS  C220 1278   5.178   1.510   8.151 -0.0035 -1.0144  0.1274
   10SAPS  H20R 1279   5.209   1.464   8.055  2.9077 -0.4044  0.6978
   10SAPS  H20S 1280   5.213   1.436   8.226  1.5219 -0.5729 -0.1266
   10SAPS  H20T 1281   5.224   1.607   8.176  1.8685 -1.5503 -1.0766
   10SAPS   C33 1282   5.609   1.130   7.215 -0.8368  0.8176  0.6367
   10SAPS   H3X 1283   5.698   1.065   7.204 -0.5711  0.9681  1.7420
   10SAPS   H3Y 1284   5.529   1.056   7.196 -0.1329  0.0261  0.6790
   10SAPS   C34 1285   5.583   1.179   7.359  0.4073  0.1438 -0.1172
   10SAPS   H4X 1286   5.561   1.084   7.411 -0.1441 -1.0483 -2.4026
   10SAPS   H4Y 1287   5.486   1.233   7.351  0.1247 -0.4411 -0.7112
   10SAPS   C35 1288   5.689   1.272   7.426  0.3612  0.0851  1.0651
   10SAPS   H5X 1289   5.685   1.358   7.357  2.3965 -0.7258 -0.1394
   10SAPS   H5Y 1290   5.793   1.233   7.414  0.9124  1.8248 -0.1381
   10SAPS   C36 1291   5.664   1.296   7.574 -0.3579 -0.4999  0.3076
   10SAPS   H6X 1292   5.557   1.317   7.593 -0.3354  0.0345 -0.1168
   10SAPS   H6Y 1293   5.724   1.388   7.596 -0.3686 -0.2923 -0.5115
   10SAPS   C37 1294   5.696   1.186   7.669  0.7843 -1.0992 -0.1855
   10SAPS   H7X 1295   5.803   1.161   7.652  0.4557 -1.7621 -1.4559
   10SAPS   H7Y 1296   5.642   1.091   7.647  0.3753 -0.1954 -3.7480
   10SAPS   C38 1297   5.674   1.241   7.808  0.3644 -0.4894 -0.4205
   10SAPS   H8X 1298   5.569   1.269   7.834  0.4972  2.8247 -2.7390
   10SAPS   H8Y 1299   5.720   1.343   7.811  1.9089 -1.1786  1.6191
   10SAPS   C39 1300   5.751   1.159   7.908  0.5036  0.1055 -0.1690
   10SAPS   H9X 1301   5.776   1.223   7.995 -0.4095 -0.2764  0.3938
   10SAPS   H9Y 1302   5.840   1.127   7.849  1.0686  0.9262  0.2146
   10SAPS  C310 1303   5.669   1.037   7.957 -0.1475 -0.5930  0.0815
   10SAPS  H10X 1304   5.594   0.996   7.887 -1.5461  1.2566  0.4234
   10SAPS  H10Y 1305   5.596   1.065   8.036 -0.8918  0.0820 -0.8157
   10SAPS  C311 1306   5.756   0.927   8.008 -0.9768 -0.8167  0.1062
   10SAPS  H11X 1307   5.818   0.888   7.925 -0.0218 -1.7703  1.2265
   10SAPS  H11Y 1308   5.691   0.845   8.045  1.8148 -3.3457 -0.2158
   10SAPS  C312 1309   5.856   0.976   8.124  0.3221 -0.0218 -0.1809
   10SAPS  H12X 1310   5.790   1.008   8.207 -0.4150 -1.6968 -0.0780
   10SAPS  H12Y 1311   5.925   1.058   8.094  2.2721 -1.0899  1.1961
   10SAPS  C313 1312   5.948   0.859   8.182 -0.1861 -0.8879 -0.0137
   10SAPS  H13X 1313   6.031   0.834   8.112  0.5350  0.7547  0.1966
   10SAPS  H13Y 1314   5.879   0.772   8.187 -4.1291  2.0225  1.5681
   10SAPS  C314 1315   6.014   0.906   8.314 -0.8798 -0.0682 -0.1012
   10SAPS  H14X 1316   6.091   0.833   8.348 -2.0159 -1.2050  0.1531
   10SAPS  H14Y 1317   5.927   0.917   8.383 -0.5556  2.7701 -0.0594
   10SAPS  C315 1318   6.092   1.044   8.298 -0.3801  0.1539 -0.2520
   10SAPS  H15X 1319   6.020   1.123   8.266  0.9111  0.6438 -2.1341
   10SAPS  H15Y 1320   6.178   1.037   8.228 -0.9115 -2.4971 -0.7372
   10SAPS  C316 1321   6.169   1.080   8.429  0.2609  0.1400  0.5004
   10SAPS  H16X 1322   6.238   0.995   8.442  0.4951  0.3276  0.4868
   10SAPS  H16Y 1323   6.105   1.080   8.520 -1.9565 -4.9709 -0.6999
   10SAPS  C317 1324   6.247   1.207   8.411 -0.4811  0.1342 -0.4283
   10SAPS  H17X 1325   6.305   1.204   8.317  1.0544 -0.3340  0.4911
   10SAPS  H17Y 1326   6.325   1.204   8.490 -1.0959 -0.9690  0.1616
   10SAPS  C318 1327   6.159   1.341   8.403  0.2455  0.5421  0.1614
   10SAPS  H18X 1328   6.078   1.321   8.330  0.2486 -0.0369  0.3086
   10SAPS  H18Y 1329   6.225   1.425   8.374 -0.2410  1.0752  0.5758
   10SAPS  H18Z 1330   6.105   1.361   8.498 -0.9107 -2.8708  0.3677
   11SAPS     N 1331   6.246   4.040   5.539  0.3570 -0.3430 -0.2876
   11SAPS   HN1 1332   6.315   4.048   5.617  3.1609 -2.7882 -2.3023
   11SAPS   HN2 1333   6.300   3.988   5.467  0.4859  1.8800 -1.8945
   11SAPS   HN3 1334   6.220   4.131   5.496  0.2631  0.1889  0.8607
   11SAPS   C12 1335   6.132   3.962   5.584  0.3923 -0.3124 -1.0021
   11SAPS  H12A 1336   6.054   3.958   5.510  0.2141 -0.5369 -0.8039
   11SAPS   C13 1337   6.162   3.817   5.620 -0.1318  0.3962  0.6498
   11SAPS  O13A 1338   6.280   3.775   5.602  0.1431  0.5987 -0.8340
   11SAPS  O13B 1339   6.084   3.744   5.674 -0.0232 -0.0444 -0.1327
   11SAPS   C11 1340   6.070   4.023   5.707  1.0947 -0.4390 -0.5362
   11SAPS  H11A 1341   6.137   4.030   5.795  0.4603  1.8158 -0.1658
   11SAPS  H11B 1342   5.980   3.966   5.738 -0.4666  1.5621 -1.1372
   11SAPS     P 1343   5.971   4.242   5.796  0.3417 -0.2055 -0.0390
   11SAPS   O13 1344   6.001   4.375   5.743  0.5632  0.1332  0.0626
   11SAPS   O14 1345   5.832   4.211   5.814 -0.2254 -0.5230  0.4345
   11SAPS   O12 1346   6.025   4.152   5.681  0.2918  0.3935 -0.0335
   11SAPS   O11 1347   6.050   4.205   5.933 -0.6410  0.3268  0.9433
   11SAPS    C1 1348   6.170   4.269   5.980 -0.0694 -0.3888 -0.1659
   11SAPS    HA 1349   6.252   4.197   6.000  1.0723  0.5326 -1.3974
   11SAPS    HB 1350   6.220   4.317   5.894 -0.7312 -1.1306 -0.9875
   11SAPS    C2 1351   6.141   4.348   6.112 -0.1657 -0.3858  0.9201
   11SAPS    HS 1352   6.241   4.378   6.150 -0.4960  0.2949  1.2666
   11SAPS   O21 1353   6.091   4.270   6.221 -0.0125  0.0357 -0.1891
   11SAPS   C21 1354   6.180   4.201   6.294 -0.1261 -0.3057  0.3562
   11SAPS   O22 1355   6.299   4.187   6.275 -0.1238 -0.0297  0.6026
   11SAPS   C22 1356   6.104   4.144   6.409  0.0753  0.4017  0.7826
   11SAPS   H2R 1357   6.063   4.229   6.467 -1.9543 -0.5148  0.7941
   11SAPS   H2S 1358   6.027   4.071   6.374 -0.2889  1.0628  0.1883
   11SAPS    C3 1359   6.042   4.469   6.093  0.1614  0.1465 -0.2951
   11SAPS    HX 1360   5.951   4.410   6.066  1.0657 -2.0024  1.0757
   11SAPS    HY 1361   6.062   4.523   5.998 -1.0021 -0.7569 -1.0823
   11SAPS   O31 1362   6.013   4.548   6.209 -0.1227 -0.5126  0.6802
   11SAPS   C31 1363   6.122   4.619   6.244  0.8464 -0.2589  0.4826
   11SAPS   O32 1364   6.227   4.627   6.185  0.4661  0.1446  0.0752
   11SAPS   C32 1365   6.108   4.672   6.385 -0.2071 -0.1383 -0.2809
   11SAPS   H2X 1366   6.040   4.606   6.444 -1.4558  0.5684 -0.8879
   11SAPS   H2Y 1367   6.067   4.774   6.398  0.1782 -0.1382  1.1865
   11SAPS   C23 1368   6.208   4.071   6.501  0.3554  0.0434 -0.0106
   11SAPS   H3R 1369   6.280   4.150   6.533  0.6553 -0.1353 -0.2372
   11SAPS   H3S 1370   6.266   3.989   6.453 -0.8698  0.0660 -1.6183
   11SAPS   C24 1371   6.140   4.023   6.635 -0.3451 -0.9125 -0.0668
   11SAPS   H4R 1372   6.108   4.112   6.692  1.9623 -0.2204  0.2594
   11SAPS   H4S 1373   6.219   3.976   6.698  1.2843  0.5976 -0.8988
   11SAPS   C25 1374   6.020   3.934   6.622 -0.3096 -0.3263 -0.2871
   11SAPS   H5R 1375   5.971   3.937   6.524 -0.6087 -1.9454 -0.2283
   11SAPS   C26 1376   5.979   3.848   6.717 -0.2389  0.2957 -0.0191
   11SAPS   H6R 1377   5.899   3.778   6.687  0.6567 -0.9516  0.4387
   11SAPS   C27 1378   6.037   3.837   6.848 -0.3328 -0.3240  0.0769
   11SAPS   H7R 1379   6.096   3.928   6.872 -0.5046  0.2687 -1.6260
   11SAPS   H7S 1380   6.097   3.744   6.863 -0.3853 -0.5583 -1.0764
   11SAPS   C28 1381   5.921   3.829   6.937 -0.1651  0.1131  0.2321
   11SAPS   H8R 1382   5.885   3.726   6.948 -0.3468  0.1392 -0.0975
   11SAPS   C29 1383   5.839   3.904   7.007  0.7349 -0.5180 -0.2725
   11SAPS   H9R 1384   5.765   3.852   7.069  1.0051  1.2494  1.6486
   11SAPS  C210 1385   5.853   4.054   7.009  0.5527 -0.4294  0.1448
   11SAPS  H10R 1386   5.758   4.110   7.025  2.7731  3.9808 -0.3501
   11SAPS  H10S 1387   5.895   4.089   6.913 -0.6357 -0.2131 -0.3108
   11SAPS  C211 1388   5.944   4.102   7.115  0.0548  0.0059  0.3405
   11SAPS  H11R 1389   6.049   4.110   7.082 -0.1272  0.0620 -0.2293
   11SAPS  C212 1390   5.923   4.147   7.240  0.6164 -0.2605  0.0351
   11SAPS  H12R 1391   6.008   4.182   7.302  1.4971  0.2510 -1.4122
   11SAPS  C213 1392   5.792   4.161   7.318 -0.3764  0.4681  0.0310
   11SAPS  H13R 1393   5.701   4.125   7.265 -1.3014  2.6827  0.0417
   11SAPS  H13S 1394   5.776   4.267   7.347  2.1140  0.9289 -0.0073
   11SAPS  C214 1395   5.799   4.065   7.436 -0.1418  0.8006 -0.4747
   11SAPS  H14R 1396   5.815   3.960   7.408 -2.8865  0.3151 -0.4596
   11SAPS  C215 1397   5.784   4.086   7.568 -0.6830 -0.5626 -0.3248
   11SAPS  H15R 1398   5.799   3.996   7.630 -2.6178 -1.8409 -1.5957
   11SAPS  C216 1399   5.766   4.224   7.626 -0.1647 -0.5708  0.6940
   11SAPS  H16R 1400   5.681   4.232   7.697 -0.1442  0.5139  0.6139
   11SAPS  H16S 1401   5.748   4.296   7.543 -1.0997  0.1815  1.5165
   11SAPS  C217 1402   5.895   4.275   7.688 -0.0421  0.2546  0.4206
   11SAPS  H17R 1403   5.874   4.384   7.684 -3.9188 -0.3380  0.8905
   11SAPS  H17S 1404   5.986   4.256   7.627 -0.0146 -0.7443  0.7438
   11SAPS  C218 1405   5.925   4.243   7.839 -0.2279  0.2341 -0.2921
   11SAPS  H18R 1406   6.006   4.316   7.860 -0.6713  0.6161  0.0986
   11SAPS  H18S 1407   5.972   4.142   7.845  1.0926  0.8734  0.7298
   11SAPS  C219 1408   5.800   4.277   7.925 -0.1477 -0.5189  0.7623
   11SAPS  H19R 1409   5.819   4.257   8.032 -0.4917 -3.8501  0.3311
   11SAPS  H19S 1410   5.714   4.212   7.896 -1.3304  1.4790 -0.3976
   11SAPS  C220 1411   5.745   4.424   7.903  0.7094  0.1975 -0.2031
   11SAPS  H20R 1412   5.660   4.430   7.974  1.9415 -2.7917  1.7351
   11SAPS  H20S 1413   5.709   4.432   7.799 -1.1811 -0.5899  0.3575
   11SAPS  H20T 1414   5.823   4.502   7.915  0.8858  0.1638 -1.0927
   11SAPS   C33 1415   6.243   4.672   6.461 -0.2002 -0.0611  0.4860
   11SAPS   H3X 1416   6.233   4.740   6.549 -1.6867  1.0057 -0.4725
   11SAPS   H3Y 1417   6.321   4.714   6.394 -0.5391 -0.3795 -0.1103
   11SAPS   C34 1418   6.288   4.530   6.507  0.1220 -0.2200 -0.4667
   11SAPS   H4X 1419   6.397   4.547   6.521 -0.3715  1.4028  2.1090
   11SAPS   H4Y 1420   6.273   4.456   6.426  2.1337  0.6839 -1.7347
   11SAPS   C35 1421   6.235   4.486   6.647  0.6667  0.4708 -0.8583
   11SAPS   H5X 1422   6.271   4.559   6.723  2.3161  0.0525 -1.1792
   11SAPS   H5Y 1423   6.284   4.388   6.664  1.3875  0.7190 -1.4464
   11SAPS   C36 1424   6.084   4.477   6.668  0.4864 -0.0471  0.1468
   11SAPS   H6X 1425   6.046   4.386   6.616 -1.7419 -0.0759  1.7076
   11SAPS   H6Y 1426   6.020   4.566   6.650 -1.3917 -0.3933  4.0738
   11SAPS   C37 1427   6.055   4.434   6.814  0.9982  0.2350 -0.7287
   11SAPS   H7X 1428   6.098   4.338   6.850 -1.1623 -1.5339 -2.5258
   11SAPS   H7Y 1429   5.945   4.418   6.825  1.1638 -0.8350 -0.5419
   11SAPS   C38 1430   6.090   4.541   6.925  0.0660 -0.3922 -0.1923
   11SAPS   H8X 1431   6.023   4.628   6.911 -0.9084 -1.5202 -3.7160
   11SAPS   H8Y 1432   6.195   4.573   6.909  0.4468 -2.0205 -1.1199
   11SAPS   C39 1433   6.081   4.483   7.065  0.5937 -0.0718 -0.3991
   11SAPS   H9X 1434   6.156   4.404   7.087  0.7680  0.3469  0.5727
   11SAPS   H9Y 1435   5.979   4.443   7.083  0.0088  1.1952 -0.7622
   11SAPS  C310 1436   6.103   4.596   7.167  0.2454  0.6562 -0.6851
   11SAPS  H10X 1437   6.028   4.675   7.142 -0.8582 -1.4419 -5.0936
   11SAPS  H10Y 1438   6.202   4.643   7.151  0.6981  0.6199  1.7065
   11SAPS  C311 1439   6.091   4.539   7.307  0.2807 -0.4819 -0.6481
   11SAPS  H11X 1440   6.167   4.460   7.323  1.6379  0.6900 -1.0049
   11SAPS  H11Y 1441   5.991   4.495   7.327 -0.4821  1.3045 -0.2509
   11SAPS  C312 1442   6.114   4.658   7.411  0.1818 -0.3545 -0.0953
   11SAPS  H12X 1443   6.048   4.746   7.391 -0.3978 -0.4744  1.2383
   11SAPS  H12Y 1444   6.218   4.691   7.394 -0.0414  1.9142  2.3382
   11SAPS  C313 1445   6.100   4.611   7.555 -0.1164 -0.1598 -0.8232
   11SAPS  H13X 1446   6.167   4.525   7.578  2.0899  2.0243  1.6915
   11SAPS  H13Y 1447   5.997   4.583   7.585  0.9549  0.2606  4.2757
   11SAPS  C314 1448   6.157   4.704   7.667  0.3203  0.0667  1.4319
   11SAPS  H14X 1449   6.126   4.810   7.655 -1.7260 -0.5692  0.5617
   11SAPS  H14Y 1450   6.265   4.713   7.644  0.1494 -1.2159 -0.0887
   11SAPS  C315 1451   6.135   4.655   7.808 -0.2710  0.1504  0.2492
   11SAPS  H15X 1452   6.184   4.556   7.821 -3.6944 -1.5172  1.5306
   11SAPS  H15Y 1453   6.028   4.636   7.828 -0.5218  1.2561 -0.0016
   11SAPS  C316 1454   6.181   4.750   7.914  0.3516 -0.3676 -0.3300
   11SAPS  H16X 1455   6.276   4.787   7.871 -0.9461  0.1372 -2.9560
   11SAPS  H16Y 1456   6.204   4.694   8.008  0.1478  0.7751  0.4202
   11SAPS  C317 1457   6.083   4.867   7.945 -0.6301 -0.0271  0.6061
   11SAPS  H17X 1458   5.987   4.826   7.982 -0.7593  1.0421  1.5362
   11SAPS  H17Y 1459   6.059   4.919   7.851  0.9504 -1.4109 -0.6232
   11SAPS  C318 1460   6.129   4.967   8.047  0.4369 -0.5071 -0.5044
   11SAPS  H18X 1461   6.045   5.020   8.098  1.0473  2.7870 -2.5891
   11SAPS  H18Y 1462   6.196   5.038   7.994  0.3981  0.4777  0.7119
   11SAPS  H18Z 1463   6.185   4.921   8.131  1.4093  1.9490  0.2822
   12SAPS     N 1464   6.814   5.551   5.758  0.1372  0.5500 -0.8661
   12SAPS   HN1 1465   6.758   5.623   5.710 -1.6720 -0.3585 -0.2208
   12SAPS   HN2 1466   6.911   5.588   5.752  0.5811  0.0393  1.6573
   12SAPS   HN3 1467   6.805   5.456   5.717 -1.0638  0.1181  0.3071
   12SAPS   C12 1468   6.773   5.548   5.902 -0.5861  0.0002  0.3008
   12SAPS  H12A 1469   6.763   5.652   5.928 -0.1554  0.8147 -2.4743
   12SAPS   C13 1470   6.635   5.493   5.939  0.6222  0.5011  0.3936
   12SAPS  O13A 1471   6.552   5.442   5.859 -0.0665 -0.3956 -0.3002
   12SAPS  O13B 1472   6.592   5.517   6.057  0.4315 -0.1654  0.3547
   12SAPS   C11 1473   6.882   5.478   5.994 -0.4543  0.1501  0.1113
   12SAPS  H11A 1474   6.896   5.371   5.969  1.9745  0.4643 -0.1522
   12SAPS  H11B 1475   6.854   5.487   6.101 -1.2462  0.2825 -0.1052
   12SAPS     P 1476   7.063   5.672   6.032  0.0682 -0.0373  0.2902
   12SAPS   O13 1477   7.201   5.681   5.974 -0.1872 -0.6408  0.2790
   12SAPS   O14 1478   6.973   5.791   6.017 -0.1766  0.4197  0.6587
   12SAPS   O12 1479   7.005   5.540   5.962  0.1061  0.5191  0.2579
   12SAPS   O11 1480   7.082   5.623   6.182 -0.0564  0.6615  0.8004
   12SAPS    C1 1481   7.132   5.489   6.202 -0.0841  0.2108  0.9329
   12SAPS    HA 1482   7.122   5.424   6.112 -0.2233 -1.7740  2.3094
   12SAPS    HB 1483   7.240   5.509   6.215 -0.1119  1.7979 -0.7808
   12SAPS    C2 1484   7.063   5.418   6.317  0.0234  0.2309  0.0544
   12SAPS    HS 1485   6.960   5.404   6.279 -0.0523  0.0638  0.3230
   12SAPS   O21 1486   7.058   5.508   6.423  0.4865  0.1588 -0.7408
   12SAPS   C21 1487   6.959   5.490   6.516 -0.2372  1.1982 -0.4780
   12SAPS   O22 1488   6.864   5.415   6.498 -0.3712 -0.0992  0.1886
   12SAPS   C22 1489   6.981   5.573   6.638  0.4695  0.4553  0.3462
   12SAPS   H2R 1490   7.039   5.525   6.720  0.3238 -0.8964 -0.3146
   12SAPS   H2S 1491   7.023   5.671   6.608 -0.5490  1.6326  2.5476
   12SAPS    C3 1492   7.129   5.281   6.349 -0.1241 -0.7047  1.2163
   12SAPS    HX 1493   7.228   5.308   6.390 -1.3090  2.3358  2.3968
   12SAPS    HY 1494   7.144   5.233   6.250  2.6732 -0.4257  1.4323
   12SAPS   O31 1495   7.044   5.201   6.429 -0.1770 -0.2592  0.1182
   12SAPS   C31 1496   7.096   5.122   6.516  0.6210 -0.8730 -0.4624
   12SAPS   O32 1497   7.214   5.090   6.522 -0.3369  0.1304 -0.0467
   12SAPS   C32 1498   6.997   5.063   6.619  0.1822 -0.4021 -0.2986
   12SAPS   H2X 1499   7.007   4.953   6.621  1.5310 -0.2950  0.5463
   12SAPS   H2Y 1500   6.891   5.087   6.596  0.5968  1.2430 -0.6281
   12SAPS   C23 1501   6.845   5.612   6.692 -0.2087  0.0870 -0.5936
   12SAPS   H3R 1502   6.788   5.524   6.730  2.4877 -1.2749  0.5733
   12SAPS   H3S 1503   6.777   5.645   6.611  1.6359  1.4999 -1.6403
   12SAPS   C24 1504   6.853   5.715   6.811  0.1366  0.0844  0.0876
   12SAPS   H4R 1505   6.889   5.662   6.902  0.3853  0.0667 -0.0177
   12SAPS   H4S 1506   6.747   5.740   6.829  0.3702  1.2474 -0.0770
   12SAPS   C25 1507   6.935   5.838   6.775  0.1665  0.4037  0.4387
   12SAPS   H5R 1508   6.894   5.898   6.693 -0.9771  0.0140  0.7010
   12SAPS   C26 1509   7.055   5.879   6.825 -0.3141 -1.1302  0.4277
   12SAPS   H6R 1510   7.100   5.971   6.787 -1.1816 -1.3665 -1.2516
   12SAPS   C27 1511   7.122   5.823   6.943 -0.1178 -0.9968  0.8044
   12SAPS   H7R 1512   7.229   5.799   6.931 -0.1586 -0.4092 -1.0761
   12SAPS   H7S 1513   7.083   5.719   6.944  0.2093 -1.1395  3.1715
   12SAPS   C28 1514   7.089   5.908   7.071  0.0159  0.4195  0.0661
   12SAPS   H8R 1515   7.132   6.009   7.069 -0.2500  0.5912  1.6005
   12SAPS   C29 1516   7.009   5.868   7.169 -0.7059 -0.1824 -0.2994
   12SAPS   H9R 1517   7.000   5.932   7.258  0.9475 -0.4961  0.1293
   12SAPS  C210 1518   6.928   5.742   7.185 -1.3320  0.7270 -0.4893
   12SAPS  H10R 1519   6.993   5.657   7.213 -0.9577  0.7074 -1.3689
   12SAPS  H10S 1520   6.887   5.705   7.088  0.5432 -2.6369 -0.1380
   12SAPS  C211 1521   6.807   5.756   7.267 -0.3639  0.3182  0.4329
   12SAPS  H11R 1522   6.722   5.812   7.226  0.2642  0.8555 -0.1566
   12SAPS  C212 1523   6.790   5.703   7.390 -0.3499 -0.4084 -0.1638
   12SAPS  H12R 1524   6.691   5.723   7.435  0.0819  2.4147 -0.2553
   12SAPS  C213 1525   6.889   5.622   7.463 -0.0745 -0.1345  0.8467
   12SAPS  H13R 1526   6.987   5.674   7.466  0.3638 -0.8964  0.1321
   12SAPS  H13S 1527   6.908   5.537   7.394 -0.6123  0.4624 -0.0643
   12SAPS  C214 1528   6.841   5.581   7.597 -0.5168  0.9210  0.6914
   12SAPS  H14R 1529   6.736   5.550   7.609 -0.2013 -0.5454 -0.0498
   12SAPS  C215 1530   6.902   5.588   7.712  0.0587  0.3544  0.1827
   12SAPS  H15R 1531   6.849   5.562   7.804 -1.1548 -0.2175 -0.6597
   12SAPS  C216 1532   7.040   5.646   7.745  0.5746 -0.2420  0.6373
   12SAPS  H16R 1533   7.072   5.713   7.662 -0.3569 -1.4362 -0.7373
   12SAPS  H16S 1534   7.111   5.560   7.747 -0.0526 -0.7453  2.0074
   12SAPS  C217 1535   7.044   5.737   7.872 -0.0671  0.6797  0.2241
   12SAPS  H17R 1536   6.995   5.703   7.966  1.5915 -0.0733  0.8415
   12SAPS  H17S 1537   7.009   5.834   7.832  0.7339 -0.0410 -2.4873
   12SAPS  C218 1538   7.196   5.756   7.921  0.0428 -0.4480 -0.3519
   12SAPS  H18R 1539   7.257   5.775   7.830 -3.2206 -1.9786 -3.0772
   12SAPS  H18S 1540   7.227   5.653   7.951  1.0826  0.4667  1.9388
   12SAPS  C219 1541   7.218   5.857   8.029  0.1949  0.3288 -0.5725
   12SAPS  H19R 1542   7.135   5.849   8.103 -0.3909  2.5462 -0.9261
   12SAPS  H19S 1543   7.208   5.962   7.994  0.1576  1.3347  2.2034
   12SAPS  C220 1544   7.358   5.849   8.092  0.1183  0.8397  0.6457
   12SAPS  H20R 1545   7.376   5.740   8.103 -1.6697  0.2894 -1.2342
   12SAPS  H20S 1546   7.373   5.906   8.187  1.6223 -0.4051  1.1921
   12SAPS  H20T 1547   7.442   5.886   8.029 -1.0999 -0.9687 -2.2524
   12SAPS   C33 1548   7.021   5.104   6.766  0.3251  0.0141 -0.1323
   12SAPS   H3X 1549   7.130   5.103   6.787  0.5671 -0.1478 -1.3098
   12SAPS   H3Y 1550   6.967   5.025   6.823  2.7683 -0.3193  1.9201
   12SAPS   C34 1551   6.957   5.241   6.796  0.1190  0.0063 -0.5591
   12SAPS   H4X 1552   6.864   5.264   6.740  0.9096  1.8412 -1.1904
   12SAPS   H4Y 1553   7.035   5.316   6.772  1.4986  0.8450  5.1679
   12SAPS   C35 1554   6.904   5.272   6.942 -0.3328  0.3121  0.4637
   12SAPS   H5X 1555   6.838   5.183   6.950  1.0685 -0.9475 -1.1777
   12SAPS   H5Y 1556   6.849   5.369   6.938  1.4772  1.3934 -4.0532
   12SAPS   C36 1557   7.011   5.277   7.056 -0.1821  0.1392  0.4362
   12SAPS   H6X 1558   7.084   5.358   7.032  0.4575 -0.8827 -1.2384
   12SAPS   H6Y 1559   7.079   5.189   7.052  0.4370  0.6613 -1.0073
   12SAPS   C37 1560   6.948   5.286   7.196  0.4398 -0.2015  0.1142
   12SAPS   H7X 1561   6.871   5.210   7.221  1.0204 -0.5775  0.7937
   12SAPS   H7Y 1562   6.907   5.389   7.200  0.2068 -0.1365 -2.3423
   12SAPS   C38 1563   7.073   5.279   7.295  0.2019 -0.4476  0.1647
   12SAPS   H8X 1564   7.131   5.369   7.266 -0.6135 -0.3027 -1.0811
   12SAPS   H8Y 1565   7.135   5.195   7.256  0.0409  0.2688 -1.7352
   12SAPS   C39 1566   7.025   5.272   7.435  0.2004 -0.4716  0.3676
   12SAPS   H9X 1567   6.939   5.204   7.453 -0.6584  0.7215  0.9307
   12SAPS   H9Y 1568   7.000   5.376   7.468  1.2118  0.0672 -0.5047
   12SAPS  C310 1569   7.137   5.222   7.527 -0.7632 -0.0415 -0.2108
   12SAPS  H10X 1570   7.216   5.298   7.545 -1.4888  0.7115 -0.1450
   12SAPS  H10Y 1571   7.183   5.143   7.464 -1.0768  0.6751 -1.3761
   12SAPS  C311 1572   7.094   5.149   7.656 -0.6829 -1.2783 -0.7232
   12SAPS  H11X 1573   7.189   5.099   7.685  0.2120 -0.0918 -1.5038
   12SAPS  H11Y 1574   7.013   5.074   7.643 -1.0372 -1.1332  0.5155
   12SAPS  C312 1575   7.051   5.245   7.772 -0.0245  0.6117  0.0919
   12SAPS  H12X 1576   6.961   5.297   7.732  3.4227  4.6822 -3.3303
   12SAPS  H12Y 1577   7.133   5.315   7.798  1.7822 -1.2550 -0.2228
   12SAPS  C313 1578   7.008   5.168   7.894  0.1753  0.7549  0.0616
   12SAPS  H13X 1579   7.095   5.107   7.925 -1.0056 -1.9357 -1.5527
   12SAPS  H13Y 1580   6.933   5.091   7.866  1.8907 -0.6947 -0.7428
   12SAPS  C314 1581   6.954   5.250   8.010  0.0260 -0.5390  0.4064
   12SAPS  H14X 1582   6.848   5.266   7.981 -0.5535 -1.6784  1.7961
   12SAPS  H14Y 1583   7.011   5.345   8.017  1.4050 -1.2625 -0.5522
   12SAPS  C315 1584   6.965   5.183   8.142  0.9451  0.5270  0.0011
   12SAPS  H15X 1585   7.066   5.140   8.157 -0.0004 -1.4166  1.1259
   12SAPS  H15Y 1586   6.897   5.096   8.152 -1.3857  2.1354 -0.9919
   12SAPS  C316 1587   6.934   5.275   8.265 -0.4338  0.8859  0.5583
   12SAPS  H16X 1588   6.947   5.204   8.349  0.6549  2.4854  1.8079
   12SAPS  H16Y 1589   6.829   5.305   8.244 -0.0610  0.3513 -2.4645
   12SAPS  C317 1590   7.021   5.398   8.288 -0.4824 -0.0920 -0.1021
   12SAPS  H17X 1591   7.124   5.381   8.250 -1.2013 -1.5918 -1.5233
   12SAPS  H17Y 1592   7.019   5.403   8.399 -1.2900 -0.5305 -0.0886
   12SAPS  C318 1593   6.966   5.529   8.231  0.1537  0.1175  0.1974
   12SAPS  H18X 1594   7.050   5.601   8.221  0.6995 -0.4093  0.8851
   12SAPS  H18Y 1595   6.883   5.568   8.294 -0.4048 -1.2141  0.3172
   12SAPS  H18Z 1596   6.918   5.515   8.132  0.0370  0.8456  0.1520
   13SAPS     N 1597   0.699   2.684   6.050  0.0457 -0.0426  0.4639
   13SAPS   HN1 1598   0.597   2.696   6.037 -0.0480 -0.0908  1.1426
   13SAPS   HN2 1599   0.738   2.775   6.081 -0.9252  0.7720 -0.6035
   13SAPS   HN3 1600   0.751   2.638   5.972  2.6571 -0.7433  2.4684
   13SAPS   C12 1601   0.718   2.592   6.163 -0.0908 -0.1507  0.0923
   13SAPS  H12A 1602   0.633   2.604   6.229 -0.6637  1.2781 -0.8402
   13SAPS   C13 1603   0.732   2.442   6.121  0.7580 -0.4612  0.7292
   13SAPS  O13A 1604   0.700   2.413   6.005 -0.3156  0.0171  0.5751
   13SAPS  O13B 1605   0.738   2.356   6.214 -0.4403 -0.1177 -0.1419
   13SAPS   C11 1606   0.857   2.641   6.229 -0.0766  0.2960 -1.1502
   13SAPS  H11A 1607   0.936   2.594   6.167  1.1867  1.0256 -0.1259
   13SAPS  H11B 1608   0.865   2.583   6.324 -1.3891 -1.1008 -1.8287
   13SAPS     P 1609   0.994   2.828   6.333  0.0995 -0.3383 -0.0065
   13SAPS   O13 1610   1.084   2.709   6.335  0.8087 -0.2494 -0.1608
   13SAPS   O14 1611   1.053   2.954   6.282 -0.1486 -0.2075 -0.0896
   13SAPS   O12 1612   0.871   2.785   6.247  0.0148 -0.4179 -0.1772
   13SAPS   O11 1613   0.936   2.850   6.475 -0.0889 -0.1512 -0.2414
   13SAPS    C1 1614   0.812   2.913   6.487  0.4759 -0.1669  0.1480
   13SAPS    HA 1615   0.802   3.001   6.419 -1.6245 -1.1564 -0.9276
   13SAPS    HB 1616   0.725   2.844   6.484 -1.7171  2.3855  0.7100
   13SAPS    C2 1617   0.804   2.969   6.638  0.2753 -0.2546 -0.5735
   13SAPS    HS 1618   0.905   2.996   6.675  0.2071 -1.2047  0.3291
   13SAPS   O21 1619   0.753   2.861   6.724  0.5428 -0.0701  0.7747
   13SAPS   C21 1620   0.804   2.855   6.844 -0.8530 -0.4005  0.2588
   13SAPS   O22 1621   0.896   2.926   6.891 -0.1465  0.0706 -0.5487
   13SAPS   C22 1622   0.728   2.742   6.918 -0.4467  0.3999  0.0986
   13SAPS   H2R 1623   0.619   2.748   6.897 -0.3416  0.9061 -0.3213
   13SAPS   H2S 1624   0.761   2.648   6.870  0.7053 -0.4754  2.4326
   13SAPS    C3 1625   0.712   3.100   6.653 -0.3719  0.1655 -0.0960
   13SAPS    HX 1626   0.610   3.068   6.623 -1.2259  0.7681  1.9658
   13SAPS    HY 1627   0.747   3.176   6.580  1.1977  0.7519  1.1966
   13SAPS   O31 1628   0.697   3.151   6.794 -0.2292 -0.9784  0.1123
   13SAPS   C31 1629   0.801   3.228   6.828 -0.6003  0.0234 -0.5180
   13SAPS   O32 1630   0.896   3.262   6.757  0.3002  0.0665  0.3912
   13SAPS   C32 1631   0.777   3.277   6.974 -0.4065 -0.4960  0.0152
   13SAPS   H2X 1632   0.784   3.182   7.032  0.3522 -0.6078 -0.2470
   13SAPS   H2Y 1633   0.673   3.314   6.970 -0.2336 -0.0921 -1.2301
   13SAPS   C23 1634   0.747   2.730   7.076 -0.0737  0.1472  0.3052
   13SAPS   H3R 1635   0.856   2.735   7.100  0.5404 -0.3149 -2.0719
   13SAPS   H3S 1636   0.699   2.640   7.119 -0.7620  0.1180 -0.5093
   13SAPS   C24 1637   0.676   2.844   7.148  0.2495 -0.2749 -0.3810
   13SAPS   H4R 1638   0.573   2.841   7.106 -0.5160 -1.7226  1.4412
   13SAPS   H4S 1639   0.719   2.943   7.122  1.2719 -0.3974  0.7603
   13SAPS   C25 1640   0.650   2.818   7.299  0.2472  0.8443 -0.6604
   13SAPS   H5R 1641   0.667   2.715   7.333 -1.3267  0.2249 -1.6455
   13SAPS   C26 1642   0.641   2.912   7.395 -0.1040 -0.4864 -0.6477
   13SAPS   H6R 1643   0.626   2.877   7.498 -1.3299  3.7990  0.8407
   13SAPS   C27 1644   0.650   3.062   7.376  0.0509 -0.2276  0.0170
   13SAPS   H7R 1645   0.622   3.099   7.276  1.2819 -0.4540 -0.4277
   13SAPS   H7S 1646   0.752   3.098   7.399 -0.3331  1.2381 -0.4880
   13SAPS   C28 1647   0.563   3.133   7.477  0.0410 -0.1484 -0.4782
   13SAPS   H8R 1648   0.483   3.196   7.436 -1.0464 -0.4772  1.0538
   13SAPS   C29 1649   0.596   3.156   7.609  0.4222  0.0461  0.5566
   13SAPS   H9R 1650   0.535   3.235   7.656 -2.6852 -0.5933 -2.0330
   13SAPS  C210 1651   0.703   3.090   7.695 -0.2330 -0.0097  0.9484
   13SAPS  H10R 1652   0.779   3.171   7.699 -1.3235  1.0316  1.2640
   13SAPS  H10S 1653   0.755   2.999   7.658  1.1436  0.7113  1.0162
   13SAPS  C211 1654   0.657   3.062   7.838 -0.6167 -0.3750  0.0676
   13SAPS  H11R 1655   0.551   3.039   7.851 -0.2999 -0.6881  2.7971
   13SAPS  C212 1656   0.734   3.070   7.949 -0.1501  0.1878 -0.5532
   13SAPS  H12R 1657   0.696   3.033   8.045 -0.6956  0.9254 -0.4717
   13SAPS  C213 1658   0.881   3.109   7.956  0.2938 -0.2464 -0.2066
   13SAPS  H13R 1659   0.871   3.218   7.975 -0.5009 -0.7373  2.8346
   13SAPS  H13S 1660   0.918   3.107   7.852  0.1553  0.7246 -0.2878
   13SAPS  C214 1661   0.969   3.043   8.060 -0.1685  0.6754 -1.1739
   13SAPS  H14R 1662   1.032   2.964   8.018 -0.9935 -0.3395 -0.5499
   13SAPS  C215 1663   0.963   3.068   8.188 -0.1343 -0.2206 -0.3719
   13SAPS  H15R 1664   1.029   3.011   8.255 -0.2626  0.2470  0.1556
   13SAPS  C216 1665   0.870   3.166   8.256  0.1294 -0.8970  0.9448
   13SAPS  H16R 1666   0.777   3.114   8.287 -2.8490  3.8023  0.8814
   13SAPS  H16S 1667   0.846   3.251   8.189 -0.9921 -0.4387  1.8988
   13SAPS  C217 1668   0.940   3.216   8.374 -0.7759 -0.0739 -0.0490
   13SAPS  H17R 1669   1.023   3.281   8.340 -0.0597 -1.4831 -1.0695
   13SAPS  H17S 1670   0.975   3.132   8.437 -1.0890  0.0033  0.2315
   13SAPS  C218 1671   0.853   3.300   8.468 -0.5865  0.8593  0.0943
   13SAPS  H18R 1672   0.823   3.396   8.423 -1.4960  1.7320  2.4204
   13SAPS  H18S 1673   0.916   3.333   8.554 -0.1782 -0.3770  0.2990
   13SAPS  C219 1674   0.731   3.223   8.531 -0.4024  0.3982 -0.8948
   13SAPS  H19R 1675   0.665   3.191   8.448 -0.4640  2.4450 -1.6904
   13SAPS  H19S 1676   0.670   3.297   8.587 -0.9216 -1.0489  0.5061
   13SAPS  C220 1677   0.764   3.105   8.619 -0.3373  0.5410 -0.2871
   13SAPS  H20R 1678   0.687   3.077   8.693  0.1949  0.9930  0.4546
   13SAPS  H20S 1679   0.854   3.124   8.682 -0.1783 -1.0853 -0.0031
   13SAPS  H20T 1680   0.785   3.014   8.559 -1.1231  0.3529 -0.2783
   13SAPS   C33 1681   0.868   3.396   7.028 -0.3178  0.2051  0.0809
   13SAPS   H3X 1682   0.899   3.456   6.940  0.1803 -0.7155 -0.3839
   13SAPS   H3Y 1683   0.959   3.356   7.078 -0.1881  0.2865 -0.0881
   13SAPS   C34 1684   0.786   3.487   7.122 -0.3692 -0.2346  0.0074
   13SAPS   H4X 1685   0.685   3.506   7.080  0.0885  3.7259  0.3024
   13SAPS   H4Y 1686   0.840   3.584   7.125 -0.3219 -0.2606 -0.0078
   13SAPS   C35 1687   0.755   3.423   7.261  0.2071  0.3174 -0.2069
   13SAPS   H5X 1688   0.695   3.329   7.263  1.7595 -0.6862  0.5382
   13SAPS   H5Y 1689   0.695   3.503   7.310  0.1923 -0.0352  0.3674
   13SAPS   C36 1690   0.892   3.402   7.328  0.1269 -0.5862  0.2806
   13SAPS   H6X 1691   0.945   3.499   7.321 -0.4295 -0.1147  2.1062
   13SAPS   H6Y 1692   0.950   3.327   7.270  0.9238 -0.2288  0.5987
   13SAPS   C37 1693   0.893   3.358   7.472  0.6571  0.0534  0.5533
   13SAPS   H7X 1694   0.997   3.327   7.497 -0.0497 -2.1758  0.9460
   13SAPS   H7Y 1695   0.847   3.259   7.488  3.7073 -1.4525  0.7362
   13SAPS   C38 1696   0.845   3.470   7.560  0.4767 -0.2825  0.0829
   13SAPS   H8X 1697   0.736   3.490   7.543  0.5994 -0.2725 -0.7317
   13SAPS   H8Y 1698   0.906   3.560   7.538 -0.7945  1.3269  2.5516
   13SAPS   C39 1699   0.844   3.434   7.710 -0.2023  0.0979 -0.9416
   13SAPS   H9X 1700   0.901   3.341   7.730  0.3448  0.9418  1.8348
   13SAPS   H9Y 1701   0.742   3.419   7.749  1.4221 -3.5683  2.5260
   13SAPS  C310 1702   0.911   3.545   7.794 -0.3694  0.5015 -0.2416
   13SAPS  H10X 1703   0.840   3.628   7.815 -1.6073 -0.9792  1.7665
   13SAPS  H10Y 1704   1.006   3.575   7.745  2.4065 -3.3698  2.1625
   13SAPS  C311 1705   0.945   3.482   7.937 -0.0977  0.1304 -0.7651
   13SAPS  H11X 1706   1.016   3.398   7.922  0.1790  0.3808 -0.8745
   13SAPS  H11Y 1707   0.852   3.449   7.987  0.1059 -0.3945 -0.7308
   13SAPS  C312 1708   1.021   3.592   8.020 -0.2733 -0.2511 -0.0225
   13SAPS  H12X 1709   0.966   3.687   8.004 -0.0534 -0.1125  0.0517
   13SAPS  H12Y 1710   1.119   3.604   7.970 -0.9369 -2.3574 -2.0346
   13SAPS  C313 1711   1.039   3.563   8.168  0.1329  0.2217  0.8116
   13SAPS  H13X 1712   1.111   3.481   8.189  1.9554  1.2487 -1.1772
   13SAPS  H13Y 1713   0.946   3.520   8.211 -0.2387 -2.1672 -2.0516
   13SAPS  C314 1714   1.072   3.689   8.252 -0.9143  0.4563  0.0072
   13SAPS  H14X 1715   0.978   3.748   8.255 -1.8587 -0.9734 -0.2598
   13SAPS  H14Y 1716   1.140   3.758   8.197  1.6774 -2.3049 -0.4989
   13SAPS  C315 1717   1.134   3.660   8.387 -0.0990  0.4433 -0.4568
   13SAPS  H15X 1718   1.241   3.639   8.367  0.6337  1.8762  1.5765
   13SAPS  H15Y 1719   1.078   3.577   8.435 -2.2470  1.5416 -0.9196
   13SAPS  C316 1720   1.126   3.783   8.475  0.1004 -0.6416 -0.2332
   13SAPS  H16X 1721   1.020   3.813   8.485  0.6955  1.3306  0.8319
   13SAPS  H16Y 1722   1.190   3.861   8.427  1.0634 -2.2637 -1.6920
   13SAPS  C317 1723   1.180   3.753   8.616 -0.4327 -0.6352  0.1307
   13SAPS  H17X 1724   1.291   3.743   8.616 -0.1348  1.4185  2.5964
   13SAPS  H17Y 1725   1.131   3.662   8.658 -0.2510 -0.8707 -0.1615
   13SAPS  C318 1726   1.141   3.867   8.713  0.1006 -0.0455  0.1249
   13SAPS  H18X 1727   1.173   3.854   8.818  0.1228  0.2961  0.1614
   13SAPS  H18Y 1728   1.031   3.882   8.722  0.0661 -1.0978  1.7844
   13SAPS  H18Z 1729   1.185   3.960   8.669  0.8325 -0.2484  0.4234
   14SAPS     N 1730   6.655   3.999   5.920  0.2046  0.0665 -0.3466
   14SAPS   HN1 1731   6.614   3.903   5.912  2.4966 -0.9746 -0.5771
   14SAPS   HN2 1732   6.746   4.002   5.971  0.1327 -3.5918  0.3208
   14SAPS   HN3 1733   6.592   4.064   5.970 -0.0247 -0.3121 -0.1332
   14SAPS   C12 1734   6.672   4.042   5.773  0.1493 -0.0300  0.1167
   14SAPS  H12A 1735   6.742   3.974   5.727  0.6787  0.4532  0.1996
   14SAPS   C13 1736   6.530   4.061   5.706  0.3321 -0.7391  0.8603
   14SAPS  O13A 1737   6.426   4.028   5.775 -0.7133 -0.9357  0.6090
   14SAPS  O13B 1738   6.524   4.062   5.579 -0.4810  0.3919  0.3361
   14SAPS   C11 1739   6.740   4.180   5.770 -0.7386  0.3144  1.1267
   14SAPS  H11A 1740   6.668   4.256   5.807  0.0807  1.8214 -0.2591
   14SAPS  H11B 1741   6.758   4.200   5.662 -0.4698 -1.7051  0.7652
   14SAPS     P 1742   6.976   4.288   5.801  0.0974 -0.1595 -0.0619
   14SAPS   O13 1743   7.073   4.224   5.715  0.2486 -0.4125  0.4866
   14SAPS   O14 1744   6.913   4.407   5.744  0.2095  0.4352  0.7993
   14SAPS   O12 1745   6.864   4.185   5.843 -0.4962 -0.1937  0.0516
   14SAPS   O11 1746   7.052   4.322   5.937  0.2723  0.1293  0.2683
   14SAPS    C1 1747   7.058   4.236   6.051  0.4811  0.2548 -0.3779
   14SAPS    HA 1748   7.071   4.130   6.020  2.1817 -0.1350  1.4566
   14SAPS    HB 1749   7.145   4.270   6.111  0.1664  1.4266 -0.5730
   14SAPS    C2 1750   6.938   4.251   6.151  0.3804 -0.1675  0.4530
   14SAPS    HS 1751   6.851   4.198   6.106  0.5507  0.1993 -0.3322
   14SAPS   O21 1752   6.926   4.388   6.178  0.1016 -0.4784 -0.7409
   14SAPS   C21 1753   6.806   4.432   6.202  0.0050  0.0871 -0.1926
   14SAPS   O22 1754   6.704   4.367   6.218 -0.1637 -0.6036 -0.2054
   14SAPS   C22 1755   6.815   4.581   6.191  0.1176  0.2654  0.8666
   14SAPS   H2R 1756   6.872   4.626   6.276  0.1542 -0.4128  1.2058
   14SAPS   H2S 1757   6.872   4.601   6.098 -0.3866  0.4832  0.5981
   14SAPS    C3 1758   6.963   4.169   6.282  0.0072  0.1965 -0.9967
   14SAPS    HX 1759   7.060   4.203   6.325 -0.1095 -0.4669 -0.1877
   14SAPS    HY 1760   6.977   4.063   6.255  0.4305 -0.0970  0.3134
   14SAPS   O31 1761   6.860   4.184   6.385  0.3701  0.0698 -0.3207
   14SAPS   C31 1762   6.768   4.091   6.377  0.5947  0.0225 -0.1280
   14SAPS   O32 1763   6.770   3.987   6.313  0.1428  0.6252 -0.7921
   14SAPS   C32 1764   6.655   4.135   6.469  0.1601 -0.3282  0.4113
   14SAPS   H2X 1765   6.565   4.092   6.420 -0.2102 -0.4246  1.1589
   14SAPS   H2Y 1766   6.644   4.246   6.462 -2.6780 -0.5177  0.5417
   14SAPS   C23 1767   6.680   4.650   6.187  0.4042  0.7982  0.1099
   14SAPS   H3R 1768   6.612   4.580   6.134  1.1889  0.5198 -0.5717
   14SAPS   H3S 1769   6.686   4.736   6.118 -0.8906 -1.5102 -3.1684
   14SAPS   C24 1770   6.639   4.672   6.332  0.5002  0.3347 -0.3126
   14SAPS   H4R 1771   6.692   4.601   6.399 -0.1824  1.2077  1.1918
   14SAPS   H4S 1772   6.531   4.648   6.339  0.9649 -1.5265  1.6504
   14SAPS   C25 1773   6.669   4.815   6.372 -0.4613 -0.1195  0.3777
   14SAPS   H5R 1774   6.623   4.888   6.304 -0.2424  0.0364  0.3949
   14SAPS   C26 1775   6.716   4.861   6.488  0.2577  1.1929 -0.1194
   14SAPS   H6R 1776   6.754   4.965   6.491  0.9741  0.9103  1.5284
   14SAPS   C27 1777   6.751   4.768   6.600 -0.5292 -0.1192 -0.0919
   14SAPS   H7R 1778   6.857   4.742   6.582 -0.4301  1.3293 -2.0153
   14SAPS   H7S 1779   6.690   4.675   6.595  1.1051 -1.1546 -2.3259
   14SAPS   C28 1780   6.737   4.835   6.732  0.0641  0.2002  0.5280
   14SAPS   H8R 1781   6.774   4.938   6.740  0.2242  0.0299  2.3177
   14SAPS   C29 1782   6.693   4.771   6.845 -0.0961  0.5230  1.1080
   14SAPS   H9R 1783   6.689   4.822   6.942 -4.3902 -0.0630  1.3986
   14SAPS  C210 1784   6.627   4.636   6.855 -0.5668 -0.3685 -0.2537
   14SAPS  H10R 1785   6.614   4.580   6.760  2.2846 -0.1626 -0.8548
   14SAPS  H10S 1786   6.526   4.654   6.898 -0.0068  2.7830 -0.0335
   14SAPS  C211 1787   6.689   4.540   6.956  0.5571  0.0022 -0.0893
   14SAPS  H11R 1788   6.748   4.467   6.899 -1.3171 -1.7560  0.1012
   14SAPS  C212 1789   6.664   4.517   7.086  0.2281  0.2886 -0.2683
   14SAPS  H12R 1790   6.716   4.440   7.146  1.1038 -0.1206 -1.5208
   14SAPS  C213 1791   6.558   4.584   7.163 -0.4327 -0.1234 -0.4655
   14SAPS  H13R 1792   6.486   4.511   7.204  0.2797  0.8580  2.8833
   14SAPS  H13S 1793   6.493   4.639   7.091 -0.9195  0.0201  0.0791
   14SAPS  C214 1794   6.601   4.671   7.277 -0.5228  0.8313  0.2350
   14SAPS  H14R 1795   6.667   4.755   7.250 -0.3099  0.9668  1.1386
   14SAPS  C215 1796   6.577   4.649   7.407  0.1066  0.6234 -0.6313
   14SAPS  H15R 1797   6.609   4.727   7.477 -0.4724 -0.7602  1.2801
   14SAPS  C216 1798   6.499   4.544   7.475  0.1567 -0.0633 -0.0653
   14SAPS  H16R 1799   6.493   4.458   7.404 -0.3628  0.9971 -1.3363
   14SAPS  H16S 1800   6.398   4.576   7.509 -0.4611 -0.5984 -1.3084
   14SAPS  C217 1801   6.581   4.485   7.587  0.0414 -0.8270  0.1193
   14SAPS  H17R 1802   6.691   4.484   7.569  0.2613 -1.4537  1.4096
   14SAPS  H17S 1803   6.544   4.382   7.603  0.0660 -0.6650  1.2600
   14SAPS  C218 1804   6.566   4.549   7.723  0.5148 -0.3147 -0.0956
   14SAPS  H18R 1805   6.457   4.564   7.743  0.3863 -1.6136  0.2511
   14SAPS  H18S 1806   6.615   4.649   7.715  1.7826 -0.6814  2.0783
   14SAPS  C219 1807   6.639   4.464   7.833  0.0816  0.4726  0.0741
   14SAPS  H19R 1808   6.742   4.449   7.795 -0.7204  0.7323 -2.3373
   14SAPS  H19S 1809   6.576   4.372   7.829 -0.5669  0.9509 -2.5649
   14SAPS  C220 1810   6.652   4.520   7.972 -0.0565 -0.0037 -0.3873
   14SAPS  H20R 1811   6.563   4.497   8.035  0.8294 -0.6497  0.6666
   14SAPS  H20S 1812   6.652   4.631   7.971 -0.5871  0.0644  1.9103
   14SAPS  H20T 1813   6.752   4.495   8.014 -0.3178  1.7728  1.4622
   14SAPS   C33 1814   6.664   4.074   6.610  0.7064  0.3822  0.2227
   14SAPS   H3X 1815   6.754   4.114   6.661  1.0809  1.8760 -1.5138
   14SAPS   H3Y 1816   6.680   3.966   6.592  2.1736  0.3849  1.3276
   14SAPS   C34 1817   6.542   4.118   6.703 -0.2068  1.0339 -0.5106
   14SAPS   H4X 1818   6.447   4.069   6.673  0.6436 -1.9010  1.1828
   14SAPS   H4Y 1819   6.527   4.227   6.689 -0.5882  1.1166  0.4918
   14SAPS   C35 1820   6.573   4.092   6.850  0.2863  0.2563 -0.6380
   14SAPS   H5X 1821   6.675   4.134   6.864  1.3029 -2.1119 -0.4902
   14SAPS   H5Y 1822   6.582   3.983   6.872 -1.6823 -0.1866 -1.8086
   14SAPS   C36 1823   6.474   4.158   6.948 -0.8731 -0.0457 -0.0255
   14SAPS   H6X 1824   6.372   4.117   6.935 -0.7472  0.4550 -3.2069
   14SAPS   H6Y 1825   6.475   4.267   6.927 -0.2224 -0.0443 -0.0303
   14SAPS   C37 1826   6.510   4.132   7.101 -0.0103 -0.0933 -0.2453
   14SAPS   H7X 1827   6.610   4.167   7.133 -0.7419  2.5893 -0.6480
   14SAPS   H7Y 1828   6.501   4.022   7.113 -0.2321  0.0964  1.5840
   14SAPS   C38 1829   6.410   4.190   7.215 -0.3878  0.4596 -0.3625
   14SAPS   H8X 1830   6.307   4.154   7.195 -0.9112  0.0416  2.5688
   14SAPS   H8Y 1831   6.405   4.301   7.214  0.2983  0.5093  0.3325
   14SAPS   C39 1832   6.453   4.143   7.356  0.2312  0.2812  0.1664
   14SAPS   H9X 1833   6.553   4.178   7.392  0.6890 -1.1872  0.3774
   14SAPS   H9Y 1834   6.464   4.033   7.361 -1.3283  0.1630  2.2015
   14SAPS  C310 1835   6.354   4.193   7.462  0.4078  0.2290 -0.4207
   14SAPS  H10X 1836   6.254   4.161   7.427  0.0166  3.1575 -2.3248
   14SAPS  H10Y 1837   6.378   4.300   7.475 -1.0325  0.3972  1.0911
   14SAPS  C311 1838   6.378   4.120   7.604  0.2708  0.1247  0.0757
   14SAPS  H11X 1839   6.485   4.122   7.635 -0.3836  1.0143  2.4033
   14SAPS  H11Y 1840   6.351   4.013   7.621  0.9635  0.3167  2.7353
   14SAPS  C312 1841   6.319   4.201   7.718 -0.1556 -0.2006  0.3087
   14SAPS  H12X 1842   6.213   4.172   7.735 -0.1910  0.7287  1.9095
   14SAPS  H12Y 1843   6.322   4.309   7.694 -0.2408  0.1891  1.9131
   14SAPS  C313 1844   6.381   4.175   7.854  0.5961 -0.3391  0.0106
   14SAPS  H13X 1845   6.492   4.173   7.850  0.5631 -0.3061 -3.0595
   14SAPS  H13Y 1846   6.330   4.081   7.886 -0.3575  0.3839  0.6738
   14SAPS  C314 1847   6.345   4.279   7.968  1.5317 -0.1662  0.1522
   14SAPS  H14X 1848   6.234   4.293   7.966  1.4058 -0.5927 -3.9152
   14SAPS  H14Y 1849   6.384   4.377   7.935  1.9998 -0.2827  0.3565
   14SAPS  C315 1850   6.407   4.247   8.100  0.4380  0.0494 -0.4843
   14SAPS  H15X 1851   6.404   4.344   8.153  1.2563  0.0365 -0.4070
   14SAPS  H15Y 1852   6.513   4.215   8.091  0.3157 -0.9934  1.3353
   14SAPS  C316 1853   6.320   4.140   8.170  0.0464 -0.1450  0.2701
   14SAPS  H16X 1854   6.372   4.101   8.260 -2.3274 -1.4843  1.1637
   14SAPS  H16Y 1855   6.310   4.056   8.098  0.6935  1.8624 -2.3229
   14SAPS  C317 1856   6.194   4.196   8.225 -0.1025  0.3953  1.1503
   14SAPS  H17X 1857   6.124   4.208   8.140  1.9035 -0.5965 -0.7615
   14SAPS  H17Y 1858   6.200   4.296   8.273  1.0722  1.3332 -0.8333
   14SAPS  C318 1859   6.137   4.087   8.318 -0.8479 -0.6619 -0.4263
   14SAPS  H18X 1860   6.037   4.105   8.363 -0.0157 -0.4823  1.4191
   14SAPS  H18Y 1861   6.200   4.062   8.406 -1.4054  1.1212  0.5423
   14SAPS  H18Z 1862   6.135   3.991   8.261  3.5372 -1.0934 -0.1839
   15SAPS     N 1863   0.622   4.003   5.600  0.0396  0.3600 -0.1453
   15SAPS   HN1 1864   0.609   3.921   5.662  3.3250 -1.8170 -2.0176
   15SAPS   HN2 1865   0.596   4.087   5.656 -1.6623  0.3156 -0.8007
   15SAPS   HN3 1866   0.561   3.998   5.516 -0.0200 -1.2073 -0.0346
   15SAPS   C12 1867   0.756   4.004   5.551 -0.3676 -0.5255  0.0804
   15SAPS  H12A 1868   0.771   3.906   5.508 -0.2753 -0.9558  1.0598
   15SAPS   C13 1869   0.789   4.110   5.442 -0.2347 -1.0201 -0.3288
   15SAPS  O13A 1870   0.746   4.229   5.463 -0.4997  0.2645 -0.3483
   15SAPS  O13B 1871   0.895   4.088   5.380 -0.0562 -0.0218 -0.7100
   15SAPS   C11 1872   0.859   4.010   5.671  0.3686  0.8520  0.0957
   15SAPS  H11A 1873   0.850   4.114   5.709 -1.4904  0.5347  0.6618
   15SAPS  H11B 1874   0.955   3.976   5.628 -0.6081 -0.8821 -0.8081
   15SAPS     P 1875   0.917   3.899   5.893 -0.1997 -0.3374 -0.0809
   15SAPS   O13 1876   0.932   3.753   5.899 -0.1609  0.5395 -0.8073
   15SAPS   O14 1877   1.038   3.980   5.871 -0.3417  0.4820  0.7032
   15SAPS   O12 1878   0.816   3.923   5.771 -0.0130 -0.1420 -1.0205
   15SAPS   O11 1879   0.846   3.961   6.016  0.4009  0.0821  0.1395
   15SAPS    C1 1880   0.718   4.030   6.001  0.9025 -0.6598 -0.1964
   15SAPS    HA 1881   0.739   4.134   5.968  1.2712 -1.0345 -1.1739
   15SAPS    HB 1882   0.655   3.992   5.918 -0.9824 -0.6681  1.1698
   15SAPS    C2 1883   0.629   4.028   6.131 -0.7375  0.2392  0.3832
   15SAPS    HS 1884   0.528   4.054   6.092 -0.0943  1.1649 -0.7245
   15SAPS   O21 1885   0.677   4.121   6.229  0.4178  0.3216 -0.1117
   15SAPS   C21 1886   0.584   4.173   6.299 -0.8364  0.4489 -0.4491
   15SAPS   O22 1887   0.464   4.169   6.283  0.1653 -0.2921  0.0671
   15SAPS   C22 1888   0.642   4.239   6.428  0.4365 -0.2516  0.1206
   15SAPS   H2R 1889   0.752   4.241   6.418  0.3466  0.5207 -0.8455
   15SAPS   H2S 1890   0.600   4.342   6.430 -1.3144 -0.9108 -0.7694
   15SAPS    C3 1891   0.631   3.886   6.194 -0.3445  1.0571  0.0477
   15SAPS    HX 1892   0.735   3.849   6.208 -1.4094 -1.6823  1.2124
   15SAPS    HY 1893   0.596   3.811   6.120  0.0708 -2.8968  3.5020
   15SAPS   O31 1894   0.553   3.870   6.314  0.4495  0.0522  0.1866
   15SAPS   C31 1895   0.428   3.836   6.315 -0.3288 -0.4496  0.0198
   15SAPS   O32 1896   0.362   3.802   6.218 -0.2318  0.0258  0.6931
   15SAPS   C32 1897   0.382   3.844   6.458  1.1857  0.6699 -0.1653
   15SAPS   H2X 1898   0.438   3.926   6.507  1.2511  0.7989 -0.4557
   15SAPS   H2Y 1899   0.399   3.743   6.502 -1.8088 -0.5570 -1.5577
   15SAPS   C23 1900   0.605   4.162   6.557  0.2379  0.6376 -0.0430
   15SAPS   H3R 1901   0.656   4.063   6.557  0.8936  0.9687 -0.5933
   15SAPS   H3S 1902   0.496   4.140   6.548  0.4545 -0.0453 -1.2254
   15SAPS   C24 1903   0.647   4.233   6.686  0.4265 -0.1150 -0.0379
   15SAPS   H4R 1904   0.607   4.335   6.668  0.8870 -0.2834 -2.3520
   15SAPS   H4S 1905   0.757   4.249   6.689  0.3529  0.6573  3.9699
   15SAPS   C25 1906   0.600   4.160   6.816  0.7586 -0.6017 -0.1739
   15SAPS   H5R 1907   0.638   4.058   6.834  2.8969  0.4163  1.4405
   15SAPS   C26 1908   0.500   4.201   6.898 -0.3650 -0.1826 -0.6382
   15SAPS   H6R 1909   0.479   4.134   6.982 -0.3930 -0.5329 -0.9200
   15SAPS   C27 1910   0.420   4.328   6.905  0.2926 -0.3450 -0.0628
   15SAPS   H7R 1911   0.435   4.380   6.808  0.9081  0.7319  0.5817
   15SAPS   H7S 1912   0.448   4.402   6.984  2.4389 -0.6026 -0.5156
   15SAPS   C28 1913   0.274   4.284   6.905 -0.1398 -0.7757 -0.6403
   15SAPS   H8R 1914   0.227   4.268   6.807  0.8386 -2.0178 -0.9330
   15SAPS   C29 1915   0.192   4.264   7.012  0.1622  1.4138  0.1078
   15SAPS   H9R 1916   0.087   4.241   6.988  1.1496 -0.0934 -3.5350
   15SAPS  C210 1917   0.234   4.282   7.150 -1.0750 -0.0060 -0.6757
   15SAPS  H10R 1918   0.290   4.378   7.154 -0.7098 -0.1522 -1.9054
   15SAPS  H10S 1919   0.310   4.205   7.177 -1.0519  0.6692  1.3449
   15SAPS  C211 1920   0.118   4.272   7.252 -0.4829  0.3536  0.5446
   15SAPS  H11R 1921   0.049   4.189   7.232  0.3734  0.0570 -1.3329
   15SAPS  C212 1922   0.090   4.347   7.359  0.6106 -0.2263 -0.9456
   15SAPS  H12R 1923  -0.004   4.330   7.414  1.3565 -3.4020 -0.4429
   15SAPS  C213 1924   0.169   4.461   7.413 -0.3658 -0.0950  0.0854
   15SAPS  H13R 1925   0.247   4.502   7.345  0.1535  1.4645  1.5289
   15SAPS  H13S 1926   0.224   4.422   7.502 -0.4049  0.8695  0.5509
   15SAPS  C214 1927   0.082   4.576   7.442 -0.2814 -0.4164 -0.2060
   15SAPS  H14R 1928  -0.014   4.582   7.388  0.0745  0.6845 -0.7210
   15SAPS  C215 1929   0.128   4.675   7.515 -0.1576  0.3085 -0.1160
   15SAPS  H15R 1930   0.067   4.765   7.533  1.1168  1.2175 -0.1716
   15SAPS  C216 1931   0.269   4.689   7.573  0.0734 -0.7606  0.4371
   15SAPS  H16R 1932   0.307   4.793   7.582  0.9381 -1.1085  0.9629
   15SAPS  H16S 1933   0.338   4.640   7.501 -0.5555 -1.4827  0.3141
   15SAPS  C217 1934   0.291   4.634   7.711  0.1015  0.7445 -0.6986
   15SAPS  H17R 1935   0.400   4.619   7.725 -0.3601 -2.8981  0.1192
   15SAPS  H17S 1936   0.243   4.534   7.718 -2.1405  1.6333 -2.1453
   15SAPS  C218 1937   0.238   4.724   7.822  0.3042  0.4046 -1.1626
   15SAPS  H18R 1938   0.133   4.745   7.791  0.1227 -0.6571 -1.2983
   15SAPS  H18S 1939   0.288   4.822   7.834  0.4456  0.0807  1.7887
   15SAPS  C219 1940   0.239   4.673   7.967 -0.4541  0.2258 -0.1962
   15SAPS  H19R 1941   0.343   4.673   8.007 -0.4301  0.0705 -0.2568
   15SAPS  H19S 1942   0.206   4.568   7.982 -1.4736  0.7822  1.7834
   15SAPS  C220 1943   0.150   4.737   8.067 -0.0104  1.1654 -0.7229
   15SAPS  H20R 1944   0.138   4.681   8.163 -1.8660  0.1178 -1.5172
   15SAPS  H20S 1945   0.049   4.734   8.023 -0.4727 -1.0624  0.3194
   15SAPS  H20T 1946   0.176   4.843   8.086 -1.2131  0.8380  4.2105
   15SAPS   C33 1947   0.230   3.870   6.485  0.0521  0.9079  0.5365
   15SAPS   H3X 1948   0.175   3.811   6.408 -0.0966  1.2585  0.3733
   15SAPS   H3Y 1949   0.209   3.977   6.462  0.2863  0.5778 -1.3668
   15SAPS   C34 1950   0.187   3.834   6.623 -1.1128  0.6299  0.2513
   15SAPS   H4X 1951   0.230   3.734   6.643  1.2642  1.2321 -1.3928
   15SAPS   H4Y 1952   0.076   3.824   6.622 -1.0541 -0.0874  0.8557
   15SAPS   C35 1953   0.208   3.938   6.735 -0.1083  0.5061 -0.4746
   15SAPS   H5X 1954   0.144   4.028   6.723  0.8529  1.3639  0.5362
   15SAPS   H5Y 1955   0.315   3.969   6.738  0.6448 -1.8252  2.0882
   15SAPS   C36 1956   0.185   3.866   6.866  0.9480  0.5134  0.1791
   15SAPS   H6X 1957   0.224   3.945   6.934  2.3158  0.3359 -0.3742
   15SAPS   H6Y 1958   0.250   3.778   6.880 -0.3331 -0.8455 -1.8690
   15SAPS   C37 1959   0.036   3.836   6.885  0.1681  0.2530  0.3506
   15SAPS   H7X 1960  -0.007   3.767   6.809 -1.1897  2.0847 -0.6226
   15SAPS   H7Y 1961  -0.012   3.935   6.897  0.5050  0.5154 -0.3806
   15SAPS   C38 1962   0.001   3.768   7.023  0.3780 -0.3501  0.5273
   15SAPS   H8X 1963   0.050   3.669   7.040  0.5081 -0.4181 -0.2306
   15SAPS   H8Y 1964  -0.102   3.730   7.012  0.7419 -1.3393  0.3895
   15SAPS   C39 1965   0.017   3.848   7.146 -0.3284  0.8106 -0.5183
   15SAPS   H9X 1966  -0.050   3.936   7.145 -2.3670 -0.5907  1.8556
   15SAPS   H9Y 1967   0.122   3.884   7.145 -0.4873  1.3032 -0.0261
   15SAPS  C310 1968  -0.013   3.775   7.278  0.9194 -0.6017 -0.4544
   15SAPS  H10X 1969   0.079   3.713   7.280  0.6431 -1.1622 -2.7518
   15SAPS  H10Y 1970  -0.107   3.717   7.276 -1.0365  2.2872  0.8718
   15SAPS  C311 1971  -0.009   3.879   7.394 -0.3563 -0.1907 -0.2005
   15SAPS  H11X 1972  -0.075   3.963   7.362  1.1636  1.0333 -0.2623
   15SAPS  H11Y 1973   0.095   3.920   7.396 -0.1302 -0.6731  2.4781
   15SAPS  C312 1974  -0.030   3.814   7.535  0.5660  0.9824  0.4813
   15SAPS  H12X 1975   0.046   3.843   7.611  1.9054 -1.9556  0.4003
   15SAPS  H12Y 1976  -0.012   3.705   7.536  1.2324  1.0771  1.9656
   15SAPS  C313 1977  -0.177   3.848   7.572  0.4037  0.1533 -0.4988
   15SAPS  H13X 1978  -0.243   3.804   7.495  0.1062 -2.9092  1.3310
   15SAPS  H13Y 1979  -0.189   3.958   7.580  1.7244  0.2812 -0.0156
   15SAPS  C314 1980  -0.227   3.779   7.705  0.2297  0.1609  0.1304
   15SAPS  H14X 1981  -0.214   3.669   7.699  0.6470  0.1228  1.4444
   15SAPS  H14Y 1982  -0.338   3.789   7.696  0.4232  2.1510 -0.5217
   15SAPS  C315 1983  -0.173   3.839   7.826  0.2322  0.2896 -0.0165
   15SAPS  H15X 1984  -0.249   3.833   7.907  0.8323 -2.6966  0.4311
   15SAPS  H15Y 1985  -0.146   3.945   7.805 -0.0808  0.2429 -0.6829
   15SAPS  C316 1986  -0.045   3.770   7.876  1.0697  0.7307  0.5583
   15SAPS  H16X 1987  -0.006   3.828   7.963 -0.0217  2.0949  0.1789
   15SAPS  H16Y 1988   0.040   3.770   7.804  1.4699  0.7139  1.0258
   15SAPS  C317 1989  -0.063   3.625   7.931 -0.6146  0.4938 -0.0112
   15SAPS  H17X 1990  -0.093   3.554   7.851 -0.4227  0.6359 -0.2134
   15SAPS  H17Y 1991  -0.142   3.633   8.008 -0.8609  0.2865 -0.2414
   15SAPS  C318 1992   0.064   3.571   8.005 -1.0388  0.2460 -0.7354
   15SAPS  H18X 1993   0.130   3.649   8.047 -2.3195 -0.1564  2.2650
   15SAPS  H18Y 1994   0.127   3.521   7.928  0.9640  1.4245  0.0791
   15SAPS  H18Z 1995   0.031   3.493   8.077 -1.8576  0.6638 -0.6409
   16SAPS     N 1996   2.521   0.032   6.503  0.0845 -0.0544  0.3882
   16SAPS   HN1 1997   2.462  -0.048   6.474  0.5347 -0.2280 -0.0531
   16SAPS   HN2 1998   2.614  -0.015   6.497  0.5453  0.9609 -0.9036
   16SAPS   HN3 1999   2.499   0.051   6.603 -1.0951 -1.4126  0.4118
   16SAPS   C12 2000   2.518   0.144   6.410  0.5321  0.4430  0.8981
   16SAPS  H12A 2001   2.538   0.235   6.464 -0.5647  2.0128 -1.1771
   16SAPS   C13 2002   2.610   0.123   6.282 -0.0412  0.4155 -0.6236
   16SAPS  O13A 2003   2.655   0.006   6.260 -0.0297  0.3698  0.1172
   16SAPS  O13B 2004   2.604   0.205   6.186  0.2247  0.2684 -0.3021
   16SAPS   C11 2005   2.363   0.152   6.356  0.2333  0.4822 -0.5291
   16SAPS  H11A 2006   2.347   0.048   6.320 -0.6752 -0.6417  2.7596
   16SAPS  H11B 2007   2.352   0.227   6.274 -2.5332 -0.1118 -0.7981
   16SAPS     P 2008   2.115   0.139   6.427 -0.0740  0.0921  0.1991
   16SAPS   O13 2009   2.083   0.168   6.283 -0.0140  0.2735 -0.2624
   16SAPS   O14 2010   2.080   0.007   6.483 -0.5016 -0.0636 -0.4752
   16SAPS   O12 2011   2.267   0.175   6.463  0.1587  0.3668 -0.1856
   16SAPS   O11 2012   2.033   0.243   6.515  0.2317  0.5081  0.2442
   16SAPS    C1 2013   2.097   0.324   6.615  0.8921  0.2365 -0.1178
   16SAPS    HA 2014   2.204   0.348   6.593  1.4263 -1.4634  0.4586
   16SAPS    HB 2015   2.039   0.418   6.609  0.5518 -0.0216 -0.9387
   16SAPS    C2 2016   2.088   0.259   6.755 -0.0371 -0.3359 -0.1811
   16SAPS    HS 2017   2.133   0.158   6.744 -1.6905 -0.8866 -2.6829
   16SAPS   O21 2018   1.947   0.262   6.788 -0.1200 -0.6492 -0.2896
   16SAPS   C21 2019   1.907   0.159   6.858 -0.0743  0.3288 -0.7249
   16SAPS   O22 2020   1.990   0.076   6.889 -0.2361  0.1101  0.3178
   16SAPS   C22 2021   1.770   0.171   6.903  0.0800  0.0120  0.0003
   16SAPS   H2R 2022   1.763   0.262   6.966  0.1524  1.6360 -2.1890
   16SAPS   H2S 2023   1.711   0.179   6.809 -0.3210  0.9158  0.3195
   16SAPS    C3 2024   2.168   0.339   6.864  0.4646  0.2031 -0.0612
   16SAPS    HX 2025   2.136   0.445   6.855 -1.8205 -0.3184  1.0826
   16SAPS    HY 2026   2.277   0.330   6.844  1.3961 -0.4941  4.2853
   16SAPS   O31 2027   2.131   0.295   6.999 -0.1130 -0.1917  0.6003
   16SAPS   C31 2028   2.238   0.236   7.065 -0.7140 -0.5381  0.1321
   16SAPS   O32 2029   2.351   0.210   7.024 -0.2513  0.2319 -0.0672
   16SAPS   C32 2030   2.191   0.207   7.203  0.0064 -0.0421 -0.1268
   16SAPS   H2X 2031   2.222   0.104   7.228  0.4781 -0.3711 -1.8780
   16SAPS   H2Y 2032   2.081   0.192   7.196 -0.4367  2.5169  0.3183
   16SAPS   C23 2033   1.719   0.047   6.972 -0.2842  0.2543  0.0617
   16SAPS   H3R 2034   1.752  -0.044   6.917  0.9660 -0.4296  1.8461
   16SAPS   H3S 2035   1.608   0.046   6.972 -0.3560  0.0368 -2.6809
   16SAPS   C24 2036   1.762   0.014   7.116 -0.1394 -0.6627  0.1690
   16SAPS   H4R 2037   1.873   0.017   7.116 -0.1307  2.7738  1.2079
   16SAPS   H4S 2038   1.741  -0.093   7.141 -0.0304 -0.8404 -0.4725
   16SAPS   C25 2039   1.721   0.112   7.228  0.3439  0.3400  0.7364
   16SAPS   H5R 2040   1.751   0.217   7.221 -0.1452  0.4349 -0.3057
   16SAPS   C26 2041   1.670   0.083   7.347  0.0814  0.2551 -0.4180
   16SAPS   H6R 2042   1.632   0.174   7.395  0.5601  0.4866 -0.4762
   16SAPS   C27 2043   1.623  -0.052   7.389 -0.0238  0.3201  0.2497
   16SAPS   H7R 2044   1.702  -0.128   7.402 -0.4337 -0.2277 -0.4356
   16SAPS   H7S 2045   1.555  -0.091   7.311  0.2008  1.1096 -0.3495
   16SAPS   C28 2046   1.528  -0.039   7.507 -0.0664  0.2436 -0.5253
   16SAPS   H8R 2047   1.421  -0.051   7.483 -0.3899 -1.2459  1.3795
   16SAPS   C29 2048   1.560  -0.041   7.636 -0.3916 -0.6468 -0.3765
   16SAPS   H9R 2049   1.478  -0.016   7.705 -0.0864  1.6735 -0.7929
   16SAPS  C210 2050   1.701  -0.058   7.692 -0.5051 -0.5468  0.2808
   16SAPS  H10R 2051   1.722   0.047   7.722 -1.9501 -0.1950  0.1537
   16SAPS  H10S 2052   1.770  -0.082   7.609  1.9344  3.0344  1.0317
   16SAPS  C211 2053   1.715  -0.155   7.810 -0.2019  0.2549  0.0847
   16SAPS  H11R 2054   1.706  -0.263   7.790 -2.7694  0.5553 -0.7987
   16SAPS  C212 2055   1.715  -0.125   7.939 -0.5136  0.4641 -0.3368
   16SAPS  H12R 2056   1.706  -0.212   8.005 -0.9328  2.9927  3.2502
   16SAPS  C213 2057   1.713   0.012   8.000 -0.1080  0.0888 -0.1232
   16SAPS  H13R 2058   1.610   0.050   8.015 -0.6333 -2.0216  2.2809
   16SAPS  H13S 2059   1.766   0.081   7.931  0.9547 -0.8277 -0.2607
   16SAPS  C214 2060   1.770   0.007   8.138 -0.6306 -0.2776  0.8431
   16SAPS  H14R 2061   1.750  -0.084   8.198  2.0708 -0.8832  0.9654
   16SAPS  C215 2062   1.821   0.106   8.205  0.5787 -0.6436  0.0851
   16SAPS  H15R 2063   1.851   0.088   8.309 -0.4711 -1.5060  0.2624
   16SAPS  C216 2064   1.834   0.245   8.152  0.4731 -1.0989  0.1052
   16SAPS  H16R 2065   1.832   0.238   8.041  1.2340  0.2197 -0.0123
   16SAPS  H16S 2066   1.922   0.307   8.179  1.4217 -1.8929 -1.0573
   16SAPS  C217 2067   1.706   0.312   8.196  0.0018  0.1570 -0.5185
   16SAPS  H17R 2068   1.620   0.250   8.160 -0.4560 -0.2364  1.1463
   16SAPS  H17S 2069   1.684   0.406   8.141 -2.6015  0.7390  1.3003
   16SAPS  C218 2070   1.684   0.348   8.338  0.0726 -0.4649 -0.0626
   16SAPS  H18R 2071   1.778   0.385   8.384 -0.0365  2.3158 -1.8649
   16SAPS  H18S 2072   1.652   0.267   8.407 -2.1302 -0.5559 -1.0957
   16SAPS  C219 2073   1.574   0.462   8.347 -0.4090  0.0677 -0.1148
   16SAPS  H19R 2074   1.494   0.428   8.278  0.8152 -1.6207 -0.7524
   16SAPS  H19S 2075   1.613   0.555   8.301 -1.0761  0.1233 -0.5919
   16SAPS  C220 2076   1.512   0.491   8.487  0.0538 -0.2948  0.8732
   16SAPS  H20R 2077   1.415   0.545   8.478  0.4870  0.2116 -1.1341
   16SAPS  H20S 2078   1.593   0.547   8.539 -1.0163  1.7245  0.4683
   16SAPS  H20T 2079   1.496   0.397   8.544 -0.3932 -0.3263  0.6994
   16SAPS   C33 2080   2.209   0.315   7.315  0.7784 -0.0808  0.4841
   16SAPS   H3X 2081   2.171   0.414   7.283 -0.3120 -0.9582 -1.0957
   16SAPS   H3Y 2082   2.318   0.335   7.315  0.6019  0.9747  0.0570
   16SAPS   C34 2083   2.144   0.266   7.450  0.0923  0.2940 -0.4780
   16SAPS   H4X 2084   2.175   0.162   7.471 -1.7574 -0.8673 -2.9091
   16SAPS   H4Y 2085   2.034   0.250   7.450  0.2896 -1.2739  0.7874
   16SAPS   C35 2086   2.189   0.350   7.565 -0.0496 -0.0133  0.0041
   16SAPS   H5X 2087   2.103   0.416   7.588  0.5539  0.3564  1.2573
   16SAPS   H5Y 2088   2.276   0.409   7.528 -1.0348  0.6408 -1.3459
   16SAPS   C36 2089   2.231   0.271   7.688  0.9607  0.1160 -0.6447
   16SAPS   H6X 2090   2.254   0.349   7.764 -0.9598 -0.1686  0.2743
   16SAPS   H6Y 2091   2.314   0.200   7.665 -0.3816 -1.9367  0.5857
   16SAPS   C37 2092   2.115   0.193   7.756 -0.6878 -0.5646  0.3902
   16SAPS   H7X 2093   2.085   0.121   7.677  2.6801  0.7798 -2.3537
   16SAPS   H7Y 2094   2.030   0.262   7.776 -1.6821 -1.7055  0.2367
   16SAPS   C38 2095   2.149   0.133   7.889  0.1494  0.9689 -0.2944
   16SAPS   H8X 2096   2.049   0.101   7.925  0.7673 -1.2859 -0.4699
   16SAPS   H8Y 2097   2.191   0.211   7.956 -0.9657  2.0028 -0.7542
   16SAPS   C39 2098   2.252   0.020   7.886 -0.4817 -0.5915 -0.2405
   16SAPS   H9X 2099   2.352   0.049   7.848 -2.0488  0.8007 -3.6679
   16SAPS   H9Y 2100   2.219  -0.062   7.819  0.7300  0.4802 -2.2264
   16SAPS  C310 2101   2.274  -0.038   8.023  0.0806 -0.7653 -1.0978
   16SAPS  H10X 2102   2.342  -0.125   8.011  1.5992  0.4011 -1.4367
   16SAPS  H10Y 2103   2.179  -0.061   8.074 -0.1314  2.8972  0.4751
   16SAPS  C311 2104   2.360   0.049   8.123  0.2243 -0.1248 -0.2951
   16SAPS  H11X 2105   2.314   0.149   8.112  0.1636 -0.1406 -0.1788
   16SAPS  H11Y 2106   2.461   0.067   8.080 -0.6762  0.0763 -2.4733
   16SAPS  C312 2107   2.364   0.002   8.271  0.4573  0.2661 -0.1979
   16SAPS  H12X 2108   2.407  -0.100   8.285 -1.6713 -0.7847 -0.8076
   16SAPS  H12Y 2109   2.263   0.005   8.319  0.3768 -2.4211 -0.0453
   16SAPS  C313 2110   2.450   0.097   8.365  0.8028 -0.3021 -0.0759
   16SAPS  H13X 2111   2.387   0.188   8.355  0.1210 -0.8940 -1.3841
   16SAPS  H13Y 2112   2.552   0.100   8.323  0.5465 -0.1578 -0.6870
   16SAPS  C314 2113   2.444   0.055   8.511 -0.2275  0.7279  0.0104
   16SAPS  H14X 2114   2.515  -0.027   8.535  1.0188  1.0342 -2.3287
   16SAPS  H14Y 2115   2.347   0.021   8.553  0.5481 -2.1701 -0.3194
   16SAPS  C315 2116   2.479   0.164   8.621 -0.3320  0.0935 -0.1114
   16SAPS  H15X 2117   2.472   0.127   8.726 -0.3094 -0.2934 -0.2474
   16SAPS  H15Y 2118   2.400   0.243   8.622 -0.0780  0.3518  0.6307
   16SAPS  C316 2119   2.611   0.243   8.603  0.4937  0.4111 -0.2854
   16SAPS  H16X 2120   2.624   0.310   8.691  2.3695 -0.4387  0.1203
   16SAPS  H16Y 2121   2.600   0.325   8.528 -0.6860  1.9647  1.4966
   16SAPS  C317 2122   2.738   0.156   8.616  0.5544  0.0416 -0.6163
   16SAPS  H17X 2123   2.761   0.116   8.515  1.1164 -0.2481 -0.3817
   16SAPS  H17Y 2124   2.710   0.075   8.687 -1.7198  0.6622 -0.7327
   16SAPS  C318 2125   2.870   0.223   8.667 -0.0766 -1.3171  0.3731
   16SAPS  H18X 2126   2.918   0.283   8.587  0.9977 -1.7469  0.6819
   16SAPS  H18Y 2127   2.945   0.148   8.700  1.1395  0.0390  0.8106
   16SAPS  H18Z 2128   2.849   0.298   8.747  1.2435 -0.3216 -0.1697
   17SAPC     N 2129   2.632   3.900  10.216 -0.2018  0.2851 -0.3592
   17SAPC   C12 2130   2.498   3.900  10.140 -0.2411 -0.5806 -0.4816
   17SAPC  H12A 2131   2.516   3.915  10.035  0.0087 -1.8766 -0.6479
   17SAPC  H12B 2132   2.444   3.985  10.178  1.4495  0.0179  0.7369
   17SAPC   C13 2133   2.716   4.019  10.176  0.1689  0.1507  0.2131
   17SAPC  H13A 2134   2.743   3.998  10.073 -0.2595  1.0244 -0.0880
   17SAPC  H13B 2135   2.662   4.111  10.187  0.0155  0.0225  0.5267
   17SAPC  H13C 2136   2.806   4.013  10.235 -0.1192 -1.5271  0.5238
   17SAPC   C14 2137   2.607   3.898  10.360 -0.0022 -0.1417 -0.3761
   17SAPC  H14A 2138   2.699   3.888  10.416 -0.1941  0.1518 -0.0068
   17SAPC  H14B 2139   2.555   3.989  10.384  0.3861  0.4710 -1.7505
   17SAPC  H14C 2140   2.551   3.817  10.404  0.2363 -0.8644 -1.3610
   17SAPC   C15 2141   2.714   3.775  10.179  0.6339 -0.7593  0.4809
   17SAPC  H15A 2142   2.716   3.768  10.071 -2.3317  0.0299  0.3046
   17SAPC  H15B 2143   2.810   3.769  10.228 -0.4402 -0.4908  2.7055
   17SAPC  H15C 2144   2.667   3.681  10.203  0.1874 -0.4766  0.7163
   17SAPC   C11 2145   2.394   3.788  10.165 -0.1739 -0.2252  0.4555
   17SAPC  H11A 2146   2.433   3.693  10.123 -0.3534  0.2406 -0.8108
   17SAPC  H11B 2147   2.303   3.818  10.108  2.5352  1.2016 -3.6507
   17SAPC     P 2148   2.272   3.881  10.386 -0.3782  0.1096 -0.0101
   17SAPC   O13 2149   2.135   3.845  10.350  0.1911 -0.2734 -0.1511
   17SAPC   O14 2150   2.302   3.876  10.532 -0.2338 -0.4041 -0.0802
   17SAPC   O12 2151   2.364   3.776  10.309  0.1421  0.0907  0.3452
   17SAPC   O11 2152   2.313   4.030  10.336  0.2176 -0.2060 -0.1007
   17SAPC    C1 2153   2.212   4.137  10.328 -0.3909 -0.2549 -0.2713
   17SAPC    HA 2154   2.113   4.109  10.372 -0.8834 -0.2734 -1.3609
   17SAPC    HB 2155   2.262   4.221  10.381 -0.3554 -0.8598  0.6832
   17SAPC    C2 2156   2.191   4.176  10.178 -0.1244 -0.0389 -0.0705
   17SAPC    HS 2157   2.123   4.262  10.164 -1.0155 -0.7034  0.1007
   17SAPC   O21 2158   2.147   4.060  10.111 -0.4205  0.1240  0.3900
   17SAPC   C21 2159   2.025   4.031  10.119  0.4082 -0.2026  0.2631
   17SAPC   O22 2160   1.939   4.086  10.186 -0.0182 -0.1125  0.1106
   17SAPC   C22 2161   2.001   3.901  10.045  0.6899  0.1586  0.1425
   17SAPC   H2R 2162   1.998   3.926   9.937 -0.7302 -0.3489  0.0337
   17SAPC   H2S 2163   2.081   3.829  10.072  2.6512  0.7405 -3.4301
   17SAPC    C3 2164   2.322   4.239  10.111 -0.6620 -0.1725 -0.4953
   17SAPC    HX 2165   2.410   4.175  10.132  1.1559  2.3723  0.2572
   17SAPC    HY 2166   2.351   4.337  10.155  1.2393 -0.1318 -1.7306
   17SAPC   O31 2167   2.304   4.249   9.972  0.1849  0.1496  0.0563
   17SAPC   C31 2168   2.384   4.175   9.893 -0.6842  0.5713  0.3460
   17SAPC   O32 2169   2.460   4.087   9.926 -0.1515  0.3222 -0.5066
   17SAPC   C32 2170   2.376   4.235   9.751  0.1658 -0.0164 -0.2750
   17SAPC   H2X 2171   2.466   4.189   9.704  0.1455 -0.1808 -0.1518
   17SAPC   H2Y 2172   2.388   4.345   9.760 -1.1166  0.1028  0.0357
   17SAPC   C23 2173   1.860   3.847  10.087 -0.0069 -0.2408 -0.3653
   17SAPC   H3R 2174   1.780   3.920  10.063  1.3764  2.1744  1.8907
   17SAPC   H3S 2175   1.851   3.840  10.198  0.9004 -1.0736 -0.3324
   17SAPC   C24 2176   1.832   3.706  10.023  0.1252 -0.5188 -0.2710
   17SAPC   H4R 2177   1.921   3.641  10.032  1.8437  1.5549 -1.3739
   17SAPC   H4S 2178   1.827   3.723   9.913  1.9436 -1.8528 -0.5949
   17SAPC   C25 2179   1.699   3.659  10.067  0.2944 -0.2165 -0.1016
   17SAPC   H5R 2180   1.714   3.581  10.143  1.0633  1.3981  1.4650
   17SAPC   C26 2181   1.569   3.681  10.031 -0.2030  0.4326 -0.4922
   17SAPC   H6R 2182   1.487   3.626  10.081 -0.2016  1.6648  0.9169
   17SAPC   C27 2183   1.521   3.780   9.924  0.1958  0.3136 -0.4995
   17SAPC   H7R 2184   1.602   3.854   9.909 -1.6063  2.3047 -0.8855
   17SAPC   H7S 2185   1.430   3.834   9.957  0.3729  2.0694 -2.5990
   17SAPC   C28 2186   1.497   3.722   9.788 -0.6318 -0.4128 -0.0642
   17SAPC   H8R 2187   1.522   3.617   9.769 -0.9775 -0.2937 -1.2896
   17SAPC   C29 2188   1.432   3.790   9.693  0.1782  0.5552  1.0800
   17SAPC   H9R 2189   1.418   3.747   9.592 -1.9251  2.0292  0.6726
   17SAPC  C210 2190   1.391   3.933   9.708 -0.2437  0.6116 -0.4478
   17SAPC  H10R 2191   1.491   3.982   9.706  1.3900 -2.3715 -3.3771
   17SAPC  H10S 2192   1.347   3.948   9.809  1.5626 -2.3135  0.9354
   17SAPC  C211 2193   1.307   3.988   9.593  0.3368 -0.4962  0.2995
   17SAPC  H11R 2194   1.200   3.999   9.618  0.3721 -2.1060  1.2840
   17SAPC  C212 2195   1.342   4.025   9.473 -0.6640  0.0652  0.2576
   17SAPC  H12R 2196   1.265   4.070   9.408 -1.3032 -1.4466 -0.0803
   17SAPC  C213 2197   1.478   4.014   9.407  0.5608 -0.2083  0.4035
   17SAPC  H13R 2198   1.477   3.931   9.333  0.1843  0.6215 -0.5454
   17SAPC  H13S 2199   1.547   3.985   9.489 -0.6743  1.3707  2.0978
   17SAPC  C214 2200   1.525   4.137   9.344  0.3873 -0.1663 -0.3955
   17SAPC  H14R 2201   1.475   4.230   9.375 -0.1134  0.2570 -2.3582
   17SAPC  C215 2202   1.613   4.153   9.238  0.1795  0.3020 -0.4699
   17SAPC  H15R 2203   1.641   4.256   9.211  0.7941  0.5165  0.9312
   17SAPC  C216 2204   1.688   4.043   9.165 -0.0640  1.3648  0.4228
   17SAPC  H16R 2205   1.695   3.951   9.227 -0.7862  2.9889  3.1154
   17SAPC  H16S 2206   1.795   4.067   9.147 -0.1632  1.4012 -0.1220
   17SAPC  C217 2207   1.638   4.003   9.027  0.0228 -0.3833  0.4369
   17SAPC  H17R 2208   1.717   3.966   8.958 -1.6742  1.1897 -2.5269
   17SAPC  H17S 2209   1.600   4.096   8.980 -2.1389 -1.6509 -0.4644
   17SAPC  C218 2210   1.519   3.898   9.027  0.0526  0.1324  0.5105
   17SAPC  H18R 2211   1.439   3.950   9.084 -0.6334  2.8550 -2.6189
   17SAPC  H18S 2212   1.564   3.807   9.073 -0.4011 -0.4812 -0.2404
   17SAPC  C219 2213   1.467   3.878   8.886 -0.2387  0.2481  0.5701
   17SAPC  H19R 2214   1.433   3.980   8.856 -1.6275 -0.4823 -0.4476
   17SAPC  H19S 2215   1.377   3.813   8.891 -0.0129 -0.1674 -0.6089
   17SAPC  C220 2216   1.562   3.795   8.791  1.2281  0.7397 -0.0572
   17SAPC  H20R 2217   1.520   3.775   8.691 -0.6314  2.3488  0.3423
   17SAPC  H20S 2218   1.563   3.695   8.839 -2.8439  1.1949  1.3097
   17SAPC  H20T 2219   1.662   3.843   8.796  0.7196  1.7201  1.7200
   17SAPC   C33 2220   2.241   4.201   9.682 -0.7206  0.0160 -0.3669
   17SAPC   H3X 2221   2.165   4.258   9.740 -0.7234 -0.5574  0.2061
   17SAPC   H3Y 2222   2.230   4.091   9.693 -0.0147  0.0285  0.6177
   17SAPC   C34 2223   2.216   4.259   9.538  0.1948  0.1576 -0.7098
   17SAPC   H4X 2224   2.255   4.362   9.541  2.7778 -0.7488 -0.8565
   17SAPC   H4Y 2225   2.107   4.251   9.516 -0.0897  0.3411  0.5609
   17SAPC   C35 2226   2.291   4.177   9.436 -0.8785  0.0703 -0.0115
   17SAPC   H5X 2227   2.389   4.154   9.485 -1.1183 -0.2896  0.3024
   17SAPC   H5Y 2228   2.307   4.220   9.335 -0.0166  2.1746  0.9500
   17SAPC   C36 2229   2.207   4.053   9.422  0.5029  0.1210  0.0809
   17SAPC   H6X 2230   2.111   4.054   9.478 -0.1258 -0.0141 -0.9606
   17SAPC   H6Y 2231   2.261   3.959   9.445 -0.5427 -1.0925 -2.0766
   17SAPC   C37 2232   2.171   4.022   9.275 -0.0466 -0.2030  0.0001
   17SAPC   H7X 2233   2.258   4.045   9.211  1.0197 -1.1818  1.0487
   17SAPC   H7Y 2234   2.088   4.090   9.246  1.5182  2.4989  1.4129
   17SAPC   C38 2235   2.130   3.873   9.262  0.4037 -0.3441 -0.1548
   17SAPC   H8X 2236   2.047   3.863   9.335 -0.1651  1.7898 -0.4394
   17SAPC   H8Y 2237   2.209   3.805   9.299  0.8960  0.4663  0.3401
   17SAPC   C39 2238   2.071   3.850   9.121  0.6026 -0.3287  0.4576
   17SAPC   H9X 2239   2.149   3.848   9.041 -1.0237  0.4352 -1.2200
   17SAPC   H9Y 2240   2.012   3.937   9.085 -0.2769 -0.9616  0.3445
   17SAPC  C310 2241   1.973   3.729   9.126  0.2938 -0.2231  0.0501
   17SAPC  H10X 2242   1.908   3.744   9.215  0.9429  0.0676  0.4791
   17SAPC  H10Y 2243   2.019   3.629   9.139  1.5024  0.4838  1.4378
   17SAPC  C311 2244   1.884   3.711   8.997 -0.6365 -0.1641 -0.9774
   17SAPC  H11X 2245   1.826   3.805   8.997  0.6169  0.8635  3.2860
   17SAPC  H11Y 2246   1.808   3.631   9.009  1.0560 -1.5730  1.3026
   17SAPC  C312 2247   1.968   3.704   8.872  0.1853  0.3737  0.2927
   17SAPC  H12X 2248   2.018   3.803   8.866  1.7002 -0.4446 -1.1088
   17SAPC  H12Y 2249   1.896   3.708   8.787  1.6899  1.4321 -0.9791
   17SAPC  C313 2250   2.063   3.587   8.866  0.0229  0.2205  0.3755
   17SAPC  H13X 2251   1.999   3.498   8.887 -1.6108  0.6958 -2.1555
   17SAPC  H13Y 2252   2.134   3.599   8.950 -1.7037  3.2601  1.5459
   17SAPC  C314 2253   2.137   3.578   8.729  0.2239  0.1787 -0.4008
   17SAPC  H14X 2254   2.186   3.677   8.711  1.5438 -0.3740  0.0175
   17SAPC  H14Y 2255   2.061   3.575   8.649  1.3772 -1.6047 -1.5018
   17SAPC  C315 2256   2.232   3.464   8.726 -0.7935  0.2471  0.1328
   17SAPC  H15X 2257   2.312   3.470   8.803  0.3064 -3.9786 -0.4414
   17SAPC  H15Y 2258   2.282   3.465   8.627 -0.2387  0.2798  0.4086
   17SAPC  C316 2259   2.182   3.319   8.735  0.3640  0.2212  0.2207
   17SAPC  H16X 2260   2.153   3.301   8.841  1.1235  0.0814  0.4163
   17SAPC  H16Y 2261   2.261   3.241   8.726  0.5968  0.0772  2.7877
   17SAPC  C317 2262   2.071   3.293   8.633  0.4023  0.6011 -0.2415
   17SAPC  H17X 2263   2.121   3.306   8.535 -0.2979  0.3855 -0.6427
   17SAPC  H17Y 2264   1.982   3.359   8.638  0.2232  0.3173  0.5965
   17SAPC  C318 2265   2.010   3.149   8.642 -0.4839 -0.3375 -0.4107
   17SAPC  H18X 2266   2.089   3.071   8.644  1.3076  1.4023  1.4843
   17SAPC  H18Y 2267   1.964   3.136   8.742  1.9132 -2.3049  0.5394
   17SAPC  H18Z 2268   1.931   3.130   8.566  0.6836  0.5804 -1.9038
   18SAPC     N 2269   2.012   2.208  10.800  0.7387  0.0682  0.2634
   18SAPC   C12 2270   1.955   2.349  10.783 -0.0538 -0.3666  1.3072
   18SAPC  H12A 2271   2.023   2.424  10.821  1.3787 -2.1527  2.4080
   18SAPC  H12B 2272   1.858   2.359  10.830 -0.6427 -0.9919  0.2854
   18SAPC   C13 2273   1.920   2.101  10.749  0.2905 -0.8871  0.7267
   18SAPC  H13A 2274   1.968   2.005  10.753 -1.6152 -1.8812  0.6818
   18SAPC  H13B 2275   1.828   2.087  10.804 -1.1993 -0.3408 -1.4794
   18SAPC  H13C 2276   1.883   2.121  10.649  0.3983  0.2260  0.8943
   18SAPC   C14 2277   2.138   2.197  10.718  0.0167  0.4825 -0.1947
   18SAPC  H14A 2278   2.220   2.252  10.762 -0.1518 -1.3709  2.7059
   18SAPC  H14B 2279   2.176   2.096  10.721  0.0135  0.5031  1.4835
   18SAPC  H14C 2280   2.130   2.234  10.616 -0.7639 -2.3075 -1.2424
   18SAPC   C15 2281   2.042   2.186  10.942  0.7181  0.7605 -0.9396
   18SAPC  H15A 2282   1.953   2.210  10.999  1.2930 -0.3708  0.5059
   18SAPC  H15B 2283   2.064   2.083  10.965  4.8458  1.6593 -0.0615
   18SAPC  H15C 2284   2.120   2.249  10.981  0.0034  0.4294  1.1367
   18SAPC   C11 2285   1.919   2.392  10.634  0.1448 -0.1002  0.1251
   18SAPC  H11A 2286   2.018   2.396  10.583 -0.7749  0.8501 -1.6619
   18SAPC  H11B 2287   1.886   2.497  10.651  0.5575 -0.0513  0.6560
   18SAPC     P 2288   1.663   2.323  10.586  0.2725  0.0094 -0.0234
   18SAPC   O13 2289   1.653   2.337  10.730  0.6586 -0.4641  0.1753
   18SAPC   O14 2290   1.609   2.428  10.497  0.1067  0.0309 -0.0487
   18SAPC   O12 2291   1.817   2.310  10.564 -0.3206  0.2160 -0.4726
   18SAPC   O11 2292   1.603   2.185  10.555  0.0516  0.3241 -0.0087
   18SAPC    C1 2293   1.645   2.098  10.448  0.3276 -0.3584  1.1916
   18SAPC    HA 2294   1.742   2.131  10.406 -1.1230  0.0934 -2.1435
   18SAPC    HB 2295   1.661   1.992  10.475  1.1222 -0.2979  0.9780
   18SAPC    C2 2296   1.540   2.094  10.331  0.3695 -0.3008 -0.3521
   18SAPC    HS 2297   1.579   2.021  10.257  1.4195 -2.7582  2.4488
   18SAPC   O21 2298   1.519   2.226  10.277 -0.0440 -1.3921 -0.2352
   18SAPC   C21 2299   1.618   2.274  10.212  0.3292  0.4593  0.4091
   18SAPC   O22 2300   1.730   2.228  10.198  0.1355 -0.1585  0.1196
   18SAPC   C22 2301   1.584   2.405  10.145 -0.2578 -0.3364 -0.4609
   18SAPC   H2R 2302   1.475   2.420  10.160 -0.1921 -1.0577  0.9167
   18SAPC   H2S 2303   1.641   2.489  10.190 -0.2831 -0.6775  0.2139
   18SAPC    C3 2304   1.408   2.045  10.405 -0.4030 -0.3344 -0.2544
   18SAPC    HX 2305   1.371   2.117  10.481 -0.7783  0.2854 -1.0111
   18SAPC    HY 2306   1.434   1.951  10.459  0.2752 -0.2605 -0.4414
   18SAPC   O31 2307   1.297   2.010  10.315  0.5667 -0.0330  0.1377
   18SAPC   C31 2308   1.221   2.116  10.285 -0.2997 -0.4717  0.6638
   18SAPC   O32 2309   1.234   2.228  10.325  0.2155 -0.6333 -0.5090
   18SAPC   C32 2310   1.111   2.073  10.187 -0.0776  0.3067 -0.1644
   18SAPC   H2X 2311   1.028   2.012  10.229 -1.5469  2.6123  0.4781
   18SAPC   H2Y 2312   1.160   2.014  10.107  0.1460 -0.2058  0.3474
   18SAPC   C23 2313   1.630   2.407  10.001 -0.2774  0.4193 -0.4180
   18SAPC   H3R 2314   1.571   2.329   9.949  2.2555 -0.0250 -2.8892
   18SAPC   H3S 2315   1.736   2.379   9.980 -0.1953  0.5752 -0.2193
   18SAPC   C24 2316   1.602   2.533   9.926 -0.3581 -0.6039  0.3420
   18SAPC   H4R 2317   1.496   2.560   9.946  0.1874  1.2899  0.8870
   18SAPC   H4S 2318   1.616   2.532   9.815  1.4969  2.1397  0.4425
   18SAPC   C25 2319   1.682   2.661   9.960  0.0117  1.2135 -0.6327
   18SAPC   H5R 2320   1.730   2.663  10.059 -2.6927  1.2476  0.7791
   18SAPC   C26 2321   1.712   2.765   9.871 -0.4627  0.5973  0.2566
   18SAPC   H6R 2322   1.784   2.845   9.895  1.0725 -0.6749  0.0607
   18SAPC   C27 2323   1.658   2.765   9.729  0.0398 -0.0723  0.3240
   18SAPC   H7R 2324   1.623   2.865   9.695  1.2207  0.3221  0.2355
   18SAPC   H7S 2325   1.563   2.709   9.718 -0.6902  1.3040 -0.7070
   18SAPC   C28 2326   1.751   2.705   9.622 -0.0152  0.6960 -0.2511
   18SAPC   H8R 2327   1.809   2.622   9.664 -2.2464 -0.4798  0.7139
   18SAPC   C29 2328   1.757   2.725   9.494 -0.2770 -0.1202  0.3755
   18SAPC   H9R 2329   1.819   2.657   9.434  0.1360  0.2732  0.3582
   18SAPC  C210 2330   1.668   2.827   9.418 -0.7823  0.5380 -0.2240
   18SAPC  H10R 2331   1.588   2.866   9.485  1.2148  2.6435  1.0584
   18SAPC  H10S 2332   1.611   2.769   9.342  3.1691 -1.2608 -2.0615
   18SAPC  C211 2333   1.731   2.953   9.352  0.4630  0.8317 -0.4851
   18SAPC  H11R 2334   1.826   2.983   9.398  0.5211 -1.4479  1.0407
   18SAPC  C212 2335   1.681   3.014   9.244  0.1224 -0.0490  0.5319
   18SAPC  H12R 2336   1.727   3.104   9.201 -2.2695  0.6854 -0.6747
   18SAPC  C213 2337   1.560   2.988   9.166  0.1534 -0.2233 -0.5425
   18SAPC  H13R 2338   1.497   2.924   9.232  2.7352  1.0746  3.5730
   18SAPC  H13S 2339   1.593   2.928   9.079  0.3917 -1.5543  0.4215
   18SAPC  C214 2340   1.482   3.094   9.108  0.1787  0.0016 -0.1697
   18SAPC  H14R 2341   1.380   3.114   9.143  1.1624  3.6994  1.0018
   18SAPC  C215 2342   1.520   3.169   9.004 -0.3440  0.8248 -0.8465
   18SAPC  H15R 2343   1.456   3.249   8.965 -1.7684  0.2594  0.2497
   18SAPC  C216 2344   1.651   3.163   8.926  0.6560 -0.1471 -0.2387
   18SAPC  H16R 2345   1.636   3.160   8.816 -2.4436  0.1745  0.0872
   18SAPC  H16S 2346   1.711   3.076   8.960  1.0763  0.3851  0.4164
   18SAPC  C217 2347   1.735   3.295   8.937 -0.6996  0.1376 -0.8882
   18SAPC  H17R 2348   1.675   3.382   8.903 -3.1967 -0.1620  2.2707
   18SAPC  H17S 2349   1.816   3.274   8.864  0.3458 -0.4046  0.3786
   18SAPC  C218 2350   1.796   3.324   9.077  0.2713 -0.5358 -0.4136
   18SAPC  H18R 2351   1.714   3.318   9.151  0.7346  0.7124  0.2362
   18SAPC  H18S 2352   1.822   3.432   9.085  1.1710 -0.8738  3.4529
   18SAPC  C219 2353   1.925   3.244   9.112 -0.3349  0.5344  0.7256
   18SAPC  H19R 2354   2.008   3.264   9.041  0.8722 -1.7160  1.4232
   18SAPC  H19S 2355   1.900   3.139   9.089 -3.0863  1.6730 -2.3014
   18SAPC  C220 2356   1.973   3.261   9.255  0.7009  0.1099 -0.0252
   18SAPC  H20R 2357   2.048   3.182   9.279  1.7239  1.2368  0.6154
   18SAPC  H20S 2358   1.885   3.253   9.323  0.6591 -4.3850 -0.3294
   18SAPC  H20T 2359   2.026   3.355   9.280  1.2373 -0.2403  0.1795
   18SAPC   C33 2360   1.049   2.191  10.109 -0.3643  0.0149  0.2890
   18SAPC   H3X 2361   0.998   2.263  10.177  1.4259  3.0450 -1.3731
   18SAPC   H3Y 2362   0.979   2.158  10.029  0.1667  0.3016 -0.2982
   18SAPC   C34 2363   1.142   2.276  10.025 -0.1982  0.2680 -0.6310
   18SAPC   H4X 2364   1.224   2.230   9.966 -0.8216  1.6175 -2.6866
   18SAPC   H4Y 2365   1.191   2.336  10.105 -2.5791 -1.1477  2.0417
   18SAPC   C35 2366   1.060   2.361   9.924 -0.1735  0.4648 -0.2439
   18SAPC   H5X 2367   0.976   2.417   9.970 -0.0150  0.8587 -0.4286
   18SAPC   H5Y 2368   1.019   2.285   9.855  0.1076 -0.1519  0.2553
   18SAPC   C36 2369   1.144   2.457   9.833  0.6247 -0.2543 -1.0530
   18SAPC   H6X 2370   1.200   2.386   9.769  0.4785 -1.3729  0.0286
   18SAPC   H6Y 2371   1.206   2.511   9.908 -0.2691  1.7250 -1.6727
   18SAPC   C37 2372   1.062   2.545   9.744  0.3548 -0.1636  0.1403
   18SAPC   H7X 2373   1.002   2.615   9.805  0.3362 -0.5168  0.5375
   18SAPC   H7Y 2374   0.980   2.493   9.690 -0.1947  1.3496 -0.5165
   18SAPC   C38 2375   1.153   2.615   9.642  1.2478  0.3169 -0.3003
   18SAPC   H8X 2376   1.224   2.542   9.598 -0.6744 -1.5118 -0.5229
   18SAPC   H8Y 2377   1.207   2.703   9.683  1.5537 -0.5108  1.1504
   18SAPC   C39 2378   1.066   2.661   9.516 -0.3924 -0.2919 -0.2042
   18SAPC   H9X 2379   1.129   2.730   9.456  0.1355  0.8218  1.5619
   18SAPC   H9Y 2380   0.982   2.729   9.544 -0.6716 -0.7077 -0.0094
   18SAPC  C310 2381   1.013   2.550   9.429  0.7456 -0.1152  0.1733
   18SAPC  H10X 2382   0.912   2.514   9.457 -0.4622  1.9944 -1.2130
   18SAPC  H10Y 2383   1.087   2.467   9.427  0.7607 -0.0933 -0.3331
   18SAPC  C311 2384   1.008   2.594   9.277  0.4093 -0.3902 -0.2954
   18SAPC  H11X 2385   1.114   2.624   9.257  0.1299  1.2939  0.5143
   18SAPC  H11Y 2386   0.949   2.687   9.262  1.1718  0.2302  0.4477
   18SAPC  C312 2387   0.968   2.493   9.171  0.9859 -0.1024 -0.6208
   18SAPC  H12X 2388   0.872   2.449   9.204  1.0680  0.4562  0.4147
   18SAPC  H12Y 2389   1.050   2.418   9.175 -0.5014 -1.7141  1.2341
   18SAPC  C313 2390   0.961   2.547   9.022  0.1125 -0.4492  0.0837
   18SAPC  H13X 2391   1.064   2.572   8.988  0.0537  0.8984  0.8121
   18SAPC  H13Y 2392   0.889   2.631   9.029 -2.1432 -1.8678 -3.5498
   18SAPC  C314 2393   0.899   2.437   8.933 -0.2679  0.3624 -0.2081
   18SAPC  H14X 2394   0.795   2.421   8.969 -0.1517 -1.4977 -0.5907
   18SAPC  H14Y 2395   0.962   2.345   8.933  0.2229  0.6427  1.8683
   18SAPC  C315 2396   0.880   2.464   8.782  0.1624 -0.6024 -0.1147
   18SAPC  H15X 2397   0.968   2.515   8.738 -1.6075  0.3427 -2.8044
   18SAPC  H15Y 2398   0.795   2.536   8.774  0.0185 -0.4790  1.8732
   18SAPC  C316 2399   0.854   2.339   8.705  0.2683 -0.5510  0.6602
   18SAPC  H16X 2400   0.932   2.260   8.715  0.7860 -0.3695 -1.4811
   18SAPC  H16Y 2401   0.859   2.375   8.600  2.1902 -0.2959  0.8080
   18SAPC  C317 2402   0.722   2.266   8.728  0.0119 -0.4393  0.3468
   18SAPC  H17X 2403   0.733   2.215   8.826 -2.1523 -0.3666  0.6917
   18SAPC  H17Y 2404   0.691   2.187   8.657 -0.3157  0.8921 -1.0427
   18SAPC  C318 2405   0.590   2.346   8.736  0.2397 -0.6347 -0.3256
   18SAPC  H18X 2406   0.560   2.396   8.641  3.2379  1.0189 -0.5138
   18SAPC  H18Y 2407   0.604   2.431   8.806 -0.7112  1.7221 -2.8217
   18SAPC  H18Z 2408   0.501   2.284   8.758  1.9358 -2.9558  0.3905
   19SAPC     N 2409   1.848   4.578  10.774 -0.1277 -0.2200  0.4242
   19SAPC   C12 2410   1.967   4.519  10.694  0.3913  0.8697  0.4607
   19SAPC  H12A 2411   1.946   4.415  10.673  0.3545  0.6991  1.2846
   19SAPC  H12B 2412   2.047   4.528  10.766 -0.8707 -0.2228  2.0611
   19SAPC   C13 2413   1.888   4.720  10.802  0.0079 -0.9703  0.3136
   19SAPC  H13A 2414   1.819   4.765  10.873  2.2646  1.5111  1.0879
   19SAPC  H13B 2415   1.987   4.723  10.845 -0.3695  0.8355  1.1353
   19SAPC  H13C 2416   1.883   4.783  10.714 -0.5599 -1.1896  0.1793
   19SAPC   C14 2417   1.723   4.565  10.694  0.5672  0.1418  0.2498
   19SAPC  H14A 2418   1.685   4.464  10.694  0.8241  0.0447 -0.0167
   19SAPC  H14B 2419   1.645   4.629  10.733  0.2979  0.3748 -0.6433
   19SAPC  H14C 2420   1.735   4.596  10.591 -1.1326  1.3456  0.3651
   19SAPC   C15 2421   1.833   4.500  10.899  0.0622  0.2281 -0.2881
   19SAPC  H15A 2422   1.738   4.516  10.948 -0.7140 -2.7942 -0.5835
   19SAPC  H15B 2423   1.818   4.394  10.887 -0.0811 -0.0267  1.8147
   19SAPC  H15C 2424   1.916   4.517  10.965  0.5842 -1.7718 -0.3608
   19SAPC   C11 2425   2.017   4.579  10.557  1.4152 -0.3825  0.6123
   19SAPC  H11A 2426   2.114   4.543  10.515  1.0911 -2.2122  1.3600
   19SAPC  H11B 2427   2.037   4.688  10.554  0.9635 -0.2964 -2.6251
   19SAPC     P 2428   1.886   4.436  10.378 -0.1519  0.0187 -0.0437
   19SAPC   O13 2429   1.912   4.319  10.462 -0.1357  0.3365 -0.2637
   19SAPC   O14 2430   1.752   4.443  10.328  0.2672  0.0745  0.0642
   19SAPC   O12 2431   1.914   4.574  10.451 -0.8094  0.3896 -0.6979
   19SAPC   O11 2432   1.991   4.441  10.262  0.0380  0.3802  0.2784
   19SAPC    C1 2433   1.949   4.478  10.133 -0.5269 -0.4225  0.2942
   19SAPC    HA 2434   1.992   4.393  10.076  0.8814 -0.4329  1.3141
   19SAPC    HB 2435   1.839   4.471  10.120 -0.4764 -2.0993  0.5768
   19SAPC    C2 2436   2.006   4.616  10.078  0.2177  0.0504 -0.0727
   19SAPC    HS 2437   1.940   4.682  10.138  0.4220 -0.2784  0.5213
   19SAPC   O21 2438   1.991   4.625   9.932 -0.0940 -0.2002 -0.0195
   19SAPC   C21 2439   1.866   4.653   9.885  0.0502  0.1249  0.2786
   19SAPC   O22 2440   1.773   4.668   9.964 -0.0072  0.1421 -0.1413
   19SAPC   C22 2441   1.857   4.650   9.730 -0.3298 -0.3124  0.0878
   19SAPC   H2R 2442   1.950   4.698   9.693 -2.0509  2.7306 -0.6133
   19SAPC   H2S 2443   1.863   4.545   9.693  4.4047  0.0739 -0.9026
   19SAPC    C3 2444   2.156   4.637  10.122  0.0643 -0.0188 -0.4546
   19SAPC    HX 2445   2.206   4.545  10.085  0.3019  0.3199 -0.9929
   19SAPC    HY 2446   2.161   4.640  10.233  3.0074 -0.2097 -0.5159
   19SAPC   O31 2447   2.217   4.758  10.068  0.3370  0.5887  0.1003
   19SAPC   C31 2448   2.295   4.736   9.955 -0.4814 -0.5816 -0.2096
   19SAPC   O32 2449   2.317   4.631   9.898  0.3226 -0.5420 -0.2407
   19SAPC   C32 2450   2.360   4.875   9.915 -0.1349  0.2313  0.2830
   19SAPC   H2X 2451   2.470   4.880   9.922 -0.0642  0.0487 -0.6505
   19SAPC   H2Y 2452   2.321   4.948   9.990 -1.3987  0.7053 -0.8016
   19SAPC   C23 2453   1.737   4.725   9.663  0.0618 -0.1406  0.0269
   19SAPC   H3R 2454   1.759   4.833   9.664  0.2501 -0.1792  1.0125
   19SAPC   H3S 2455   1.639   4.713   9.714 -1.0090  0.5301 -1.7934
   19SAPC   C24 2456   1.715   4.682   9.520  0.0282 -0.7783  0.3915
   19SAPC   H4R 2457   1.812   4.692   9.468  0.2973 -0.9405  0.8546
   19SAPC   H4S 2458   1.641   4.750   9.473  0.1685 -0.1073  1.1188
   19SAPC   C25 2459   1.664   4.539   9.512 -0.3228 -0.6442 -0.7102
   19SAPC   H5R 2460   1.563   4.530   9.554 -0.6149  3.6386 -0.0808
   19SAPC   C26 2461   1.732   4.426   9.465  0.6687  0.2005  0.1913
   19SAPC   H6R 2462   1.682   4.328   9.473 -1.5121  1.1875 -0.3990
   19SAPC   C27 2463   1.867   4.423   9.405 -0.8278  0.1857  0.5757
   19SAPC   H7R 2464   1.912   4.321   9.407  1.7035  1.2009 -0.5497
   19SAPC   H7S 2465   1.944   4.475   9.466 -0.9719 -0.8498  1.6931
   19SAPC   C28 2466   1.868   4.475   9.262  0.0048  0.2505 -0.6027
   19SAPC   H8R 2467   1.767   4.507   9.232 -0.4407  0.2271  0.7691
   19SAPC   C29 2468   1.970   4.465   9.175  0.1709  0.2971  0.0379
   19SAPC   H9R 2469   1.951   4.508   9.075 -1.5820  0.2315  0.3154
   19SAPC  C210 2470   2.105   4.406   9.200  0.7738  0.5838 -0.5351
   19SAPC  H10R 2471   2.141   4.362   9.104  0.8320 -0.2449 -0.1395
   19SAPC  H10S 2472   2.098   4.324   9.274 -0.7242 -0.2784 -1.5638
   19SAPC  C211 2473   2.202   4.511   9.256 -0.6622 -0.2285  1.1927
   19SAPC  H11R 2474   2.206   4.499   9.366 -2.6843  1.8175  1.5755
   19SAPC  C212 2475   2.274   4.600   9.191  0.4276 -0.0089 -0.3561
   19SAPC  H12R 2476   2.352   4.658   9.243  1.5817  0.3130 -2.3527
   19SAPC  C213 2477   2.274   4.604   9.040  0.5739  0.6649  0.2933
   19SAPC  H13R 2478   2.307   4.503   9.006 -2.4445 -0.6614  0.8847
   19SAPC  H13S 2479   2.360   4.666   9.010 -0.1171 -0.0757 -3.8034
   19SAPC  C214 2480   2.158   4.672   8.964  1.5292  0.5880 -0.4082
   19SAPC  H14R 2481   2.085   4.720   9.032 -0.2154  0.4265 -2.0660
   19SAPC  C215 2482   2.131   4.692   8.829 -0.0059 -0.5839 -1.1449
   19SAPC  H15R 2483   2.036   4.742   8.805 -0.6455 -1.3479 -0.2694
   19SAPC  C216 2484   2.223   4.649   8.713  0.0943 -0.0803  0.9236
   19SAPC  H16R 2485   2.179   4.556   8.672  1.9552 -0.6164  0.0258
   19SAPC  H16S 2486   2.321   4.622   8.759 -0.9068 -1.6682  2.2154
   19SAPC  C217 2487   2.212   4.747   8.597  0.0960 -0.0666  0.4722
   19SAPC  H17R 2488   2.287   4.721   8.520  0.9808 -3.3317  2.2432
   19SAPC  H17S 2489   2.237   4.849   8.633 -0.8234  0.8290 -1.2909
   19SAPC  C218 2490   2.073   4.753   8.528 -0.0440 -0.3050 -0.0825
   19SAPC  H18R 2491   1.985   4.757   8.596 -0.2695  2.8383 -0.4078
   19SAPC  H18S 2492   2.057   4.655   8.478  0.4090 -1.3870  1.7822
   19SAPC  C219 2493   2.064   4.865   8.414  0.5025  0.4689  0.0462
   19SAPC  H19R 2494   2.068   4.961   8.469 -0.4021  0.6939 -0.2593
   19SAPC  H19S 2495   1.959   4.854   8.378 -0.2111  1.5245  1.6682
   19SAPC  C220 2496   2.167   4.853   8.297  0.8239  0.0151 -0.5254
   19SAPC  H20R 2497   2.185   4.955   8.255 -0.4344  0.3361 -0.3482
   19SAPC  H20S 2498   2.131   4.780   8.222 -1.9106  3.3019 -2.7256
   19SAPC  H20T 2499   2.264   4.806   8.323  0.4219 -0.2880  0.4830
   19SAPC   C33 2500   2.314   4.915   9.774  0.7434 -0.0495  0.3413
   19SAPC   H3X 2501   2.298   5.025   9.772 -1.8999 -0.3730 -1.4739
   19SAPC   H3Y 2502   2.211   4.880   9.749  0.5641  2.3371 -2.9238
   19SAPC   C34 2503   2.410   4.881   9.662  0.2384 -0.0855  0.0682
   19SAPC   H4X 2504   2.424   4.771   9.672 -1.5112 -0.2784  0.7274
   19SAPC   H4Y 2505   2.505   4.934   9.685  0.1700  0.7602 -1.5049
   19SAPC   C35 2506   2.360   4.926   9.529  0.0254  0.2096 -0.0693
   19SAPC   H5X 2507   2.337   5.034   9.539  0.4346  0.0615  4.3678
   19SAPC   H5Y 2508   2.268   4.865   9.512  0.7407 -0.3306 -2.2574
   19SAPC   C36 2509   2.472   4.907   9.428 -0.7676 -0.1421 -0.3186
   19SAPC   H6X 2510   2.490   4.799   9.413 -2.2270 -0.2201 -1.8239
   19SAPC   H6Y 2511   2.559   4.968   9.462 -1.1626 -0.5087  1.4873
   19SAPC   C37 2512   2.416   4.963   9.298  0.8538 -0.0945  0.0028
   19SAPC   H7X 2513   2.389   5.069   9.319  2.4203 -0.1649  3.0231
   19SAPC   H7Y 2514   2.325   4.908   9.267 -1.1362  2.2290  1.2902
   19SAPC   C38 2515   2.506   4.956   9.173  0.5880 -0.1917  0.3502
   19SAPC   H8X 2516   2.560   4.859   9.167  1.4460  0.3178 -0.4735
   19SAPC   H8Y 2517   2.587   5.031   9.178  0.6932 -0.2305 -0.6283
   19SAPC   C39 2518   2.430   4.988   9.037 -0.4284  0.0766 -0.2635
   19SAPC   H9X 2519   2.374   5.084   9.044  1.8647  1.3926  1.6849
   19SAPC   H9Y 2520   2.352   4.911   9.020 -2.4038  2.1863 -1.5020
   19SAPC  C310 2521   2.516   4.995   8.912 -0.5341 -0.1386 -0.0985
   19SAPC  H10X 2522   2.572   4.901   8.892 -2.3301 -0.7583 -2.6787
   19SAPC  H10Y 2523   2.584   5.083   8.926 -1.7481  0.8093 -0.0081
   19SAPC  C311 2524   2.424   5.036   8.798 -0.3309 -0.5174  0.2627
   19SAPC  H11X 2525   2.397   5.141   8.819  2.6253  0.2426  0.7180
   19SAPC  H11Y 2526   2.337   4.969   8.778 -0.3039  0.5427 -4.4747
   19SAPC  C312 2527   2.493   5.046   8.658 -0.0865 -0.2505  0.3402
   19SAPC  H12X 2528   2.434   5.000   8.576  1.7462  1.1282 -1.8880
   19SAPC  H12Y 2529   2.596   5.008   8.678  0.4119  0.0501 -1.4134
   19SAPC  C313 2530   2.510   5.194   8.619  0.4099 -0.2058 -0.0996
   19SAPC  H13X 2531   2.533   5.248   8.713 -1.7159  1.6106 -0.5569
   19SAPC  H13Y 2532   2.412   5.231   8.582  0.8342  0.2116 -0.8401
   19SAPC  C314 2533   2.624   5.230   8.525 -0.3899  0.1618  0.4464
   19SAPC  H14X 2534   2.726   5.201   8.556 -0.3641 -0.9819 -0.6072
   19SAPC  H14Y 2535   2.618   5.340   8.516  1.9912  0.3418  0.6829
   19SAPC  C315 2536   2.592   5.178   8.380 -0.1183  0.1970  0.4284
   19SAPC  H15X 2537   2.495   5.214   8.339  0.4277 -0.6074 -1.7357
   19SAPC  H15Y 2538   2.573   5.069   8.384 -3.5283  0.7126  1.8091
   19SAPC  C316 2539   2.702   5.223   8.273  0.5846  0.5443 -0.6295
   19SAPC  H16X 2540   2.794   5.176   8.314 -0.3686 -1.2460 -0.4022
   19SAPC  H16Y 2541   2.721   5.332   8.276 -1.1909  0.8624  0.9521
   19SAPC  C317 2542   2.663   5.193   8.132 -0.0564  0.3558 -0.3182
   19SAPC  H17X 2543   2.597   5.278   8.102  0.1286  0.3900 -0.6332
   19SAPC  H17Y 2544   2.607   5.097   8.127  0.9952 -0.3572  1.1323
   19SAPC  C318 2545   2.772   5.193   8.026  0.1367  0.2813 -0.0313
   19SAPC  H18X 2546   2.716   5.167   7.933 -0.8979 -1.6108  1.0507
   19SAPC  H18Y 2547   2.856   5.122   8.045  0.3355  0.3063 -0.7968
   19SAPC  H18Z 2548   2.816   5.295   8.023  2.2692 -0.5914 -0.2821
   20SAPC     N 2549   6.146   1.028  10.917  0.2910 -0.1954 -0.0880
   20SAPC   C12 2550   6.282   0.975  10.943 -0.3642  0.3302  0.2309
   20SAPC  H12A 2551   6.289   0.926  11.039 -0.7460 -2.2835 -1.0010
   20SAPC  H12B 2552   6.346   1.062  10.950  0.4059 -0.2756  0.8597
   20SAPC   C13 2553   6.125   1.082  10.784  0.3065 -0.6104  0.4960
   20SAPC  H13A 2554   6.190   1.159  10.746 -1.4452  0.1952 -1.0247
   20SAPC  H13B 2555   6.128   1.003  10.710  0.6890  0.3968 -0.6078
   20SAPC  H13C 2556   6.027   1.127  10.777  0.3882 -0.6173 -1.4224
   20SAPC   C14 2557   6.043   0.920  10.945  0.0258  0.5783 -0.0725
   20SAPC  H14A 2558   6.046   0.866  11.039 -2.0757  0.6222  0.0671
   20SAPC  H14B 2559   5.946   0.964  10.936  0.2284  0.8429 -1.0198
   20SAPC  H14C 2560   6.050   0.836  10.877 -2.1362  0.7471 -0.5682
   20SAPC   C15 2561   6.128   1.137  11.009 -0.0947 -0.6784 -0.8235
   20SAPC  H15A 2562   6.201   1.213  10.987  2.1824 -2.5188  0.0043
   20SAPC  H15B 2563   6.028   1.176  10.999  0.5923  1.2482 -0.6801
   20SAPC  H15C 2564   6.137   1.106  11.112 -0.1361  0.1914 -0.5477
   20SAPC   C11 2565   6.340   0.884  10.833 -0.1069 -0.6144 -0.1893
   20SAPC  H11A 2566   6.362   0.950  10.746 -2.2387 -0.8273 -0.9512
   20SAPC  H11B 2567   6.271   0.809  10.789  1.5133 -1.5939 -1.1513
   20SAPC     P 2568   6.503   0.683  10.845  0.0482  0.1792  0.2737
   20SAPC   O13 2569   6.618   0.651  10.928 -0.5178  0.7138 -0.0833
   20SAPC   O14 2570   6.391   0.594  10.845  0.0529 -0.1464  0.0205
   20SAPC   O12 2571   6.465   0.831  10.875 -0.3140  0.7768 -0.4219
   20SAPC   O11 2572   6.566   0.695  10.699 -0.4147 -0.3342  0.4622
   20SAPC    C1 2573   6.683   0.775  10.673 -0.1028  0.1610 -0.5272
   20SAPC    HA 2574   6.639   0.866  10.627 -0.1715 -0.5081 -1.8251
   20SAPC    HB 2575   6.732   0.809  10.767  1.4189 -2.7574 -0.1662
   20SAPC    C2 2576   6.789   0.716  10.579 -0.1693  0.0174 -0.7678
   20SAPC    HS 2577   6.878   0.781  10.565  0.4899 -0.5583  0.5973
   20SAPC   O21 2578   6.724   0.696  10.454  0.0136 -0.1950  0.3629
   20SAPC   C21 2579   6.688   0.806  10.378 -0.1176  0.1005 -0.4804
   20SAPC   O22 2580   6.692   0.922  10.405 -0.1283 -0.0715  0.0873
   20SAPC   C22 2581   6.617   0.756  10.249 -0.8553 -0.1635  0.1807
   20SAPC   H2R 2582   6.680   0.678  10.202 -0.1762  0.2122  0.4540
   20SAPC   H2S 2583   6.513   0.733  10.282 -1.8900  1.7870 -1.4471
   20SAPC    C3 2584   6.834   0.577  10.644  0.4793  0.0976 -0.0443
   20SAPC    HX 2585   6.744   0.513  10.649 -1.4910  2.6986  0.0796
   20SAPC    HY 2586   6.866   0.583  10.750 -0.3115 -0.6803  0.2489
   20SAPC   O31 2587   6.929   0.505  10.562  0.5286 -0.3068  0.2882
   20SAPC   C31 2588   7.046   0.558  10.573  0.3975 -0.3045 -0.6348
   20SAPC   O32 2589   7.074   0.655  10.641 -0.1693 -0.4230 -0.7849
   20SAPC   C32 2590   7.141   0.487  10.472 -0.0001  0.2517 -0.5128
   20SAPC   H2X 2591   7.135   0.377  10.479  3.5463 -0.0757 -0.8839
   20SAPC   H2Y 2592   7.246   0.516  10.495  0.2111  0.7322 -1.9739
   20SAPC   C23 2593   6.597   0.872  10.141 -0.4485  0.5320  0.3057
   20SAPC   H3R 2594   6.547   0.954  10.197  0.4247  0.7377  0.8092
   20SAPC   H3S 2595   6.531   0.831  10.062 -0.1579  1.9786 -0.7392
   20SAPC   C24 2596   6.730   0.918  10.074 -0.4224  0.5554  0.1201
   20SAPC   H4R 2597   6.775   0.824  10.036  0.4572 -0.7641  3.9154
   20SAPC   H4S 2598   6.791   0.947  10.162 -0.5085 -0.1780  0.4317
   20SAPC   C25 2599   6.696   1.035   9.969  0.5140 -0.3095 -0.1565
   20SAPC   H5R 2600   6.655   1.125  10.016  0.8040  0.0351 -0.5658
   20SAPC   C26 2601   6.727   1.042   9.835  0.6148  0.1695 -0.1684
   20SAPC   H6R 2602   6.698   1.130   9.776  0.4457  0.2732  0.0682
   20SAPC   C27 2603   6.796   0.927   9.764 -0.8619 -0.5415 -0.0745
   20SAPC   H7R 2604   6.827   0.846   9.833  1.1787 -1.0085 -1.4520
   20SAPC   H7S 2605   6.892   0.975   9.735 -1.5159  2.2764  1.9806
   20SAPC   C28 2606   6.717   0.868   9.653  0.5986 -0.0424 -0.6168
   20SAPC   H8R 2607   6.645   0.786   9.670 -3.8231  3.5603 -0.0106
   20SAPC   C29 2608   6.713   0.922   9.528  0.3385  0.6166  0.1457
   20SAPC   H9R 2609   6.653   0.878   9.447  1.8641 -0.1538 -0.6213
   20SAPC  C210 2610   6.792   1.047   9.500  0.6691  0.2740  0.1467
   20SAPC  H10R 2611   6.829   1.107   9.586  0.5577  2.0735 -1.0207
   20SAPC  H10S 2612   6.719   1.117   9.455 -0.2614  0.2369  1.5465
   20SAPC  C211 2613   6.901   1.026   9.391 -0.1288 -0.3871  0.8578
   20SAPC  H11R 2614   6.998   1.014   9.443 -0.1765  1.0065  1.3222
   20SAPC  C212 2615   6.889   1.000   9.263  0.0244  1.1863  0.1902
   20SAPC  H12R 2616   6.969   1.001   9.187 -3.0818  1.2169 -3.4099
   20SAPC  C213 2617   6.759   0.990   9.195  0.4232  0.6727 -0.0367
   20SAPC  H13R 2618   6.754   1.067   9.115 -2.3105 -1.7287 -2.4306
   20SAPC  H13S 2619   6.676   1.008   9.265  0.3276 -1.1799  0.3708
   20SAPC  C214 2620   6.743   0.855   9.132 -0.6816  0.0182 -0.0035
   20SAPC  H14R 2621   6.836   0.795   9.135 -1.1664 -0.7255  1.3078
   20SAPC  C215 2622   6.639   0.815   9.065  0.5991 -0.4586  0.5501
   20SAPC  H15R 2623   6.652   0.722   9.008  0.2431 -0.6653  0.8024
   20SAPC  C216 2624   6.501   0.882   9.041 -0.3491  0.1639  0.2562
   20SAPC  H16R 2625   6.482   0.979   9.091 -1.8389  0.3910 -0.6941
   20SAPC  H16S 2626   6.424   0.815   9.084 -0.8145  0.8752  0.5427
   20SAPC  C217 2627   6.470   0.894   8.890 -0.1090 -0.1072  0.1364
   20SAPC  H17R 2628   6.375   0.951   8.899  0.4035  0.5824  1.3098
   20SAPC  H17S 2629   6.448   0.794   8.846 -1.4482 -0.3055  1.1869
   20SAPC  C218 2630   6.560   0.982   8.818 -0.0487 -0.4834  0.1413
   20SAPC  H18R 2631   6.660   0.934   8.803 -0.2826 -0.7867 -0.4996
   20SAPC  H18S 2632   6.581   1.065   8.888  1.7290 -0.5898 -0.2024
   20SAPC  C219 2633   6.496   1.032   8.688 -0.2137 -0.6998  0.1340
   20SAPC  H19R 2634   6.403   1.091   8.704  1.6974  2.6004 -0.0012
   20SAPC  H19S 2635   6.461   0.938   8.641 -1.1678  0.0734 -0.7603
   20SAPC  C220 2636   6.592   1.117   8.606 -0.1711  0.9290 -0.4710
   20SAPC  H20R 2637   6.537   1.132   8.511 -2.0408 -1.2624  0.1673
   20SAPC  H20S 2638   6.684   1.056   8.589 -0.7343  0.0598 -0.4476
   20SAPC  H20T 2639   6.605   1.215   8.657 -1.1115  1.5182 -1.3236
   20SAPC   C33 2640   7.103   0.522  10.326 -0.4729 -0.3448  0.0528
   20SAPC   H3X 2641   6.999   0.498  10.297 -1.3447  1.6538  1.2604
   20SAPC   H3Y 2642   7.165   0.456  10.262 -0.1005  0.1233 -0.0742
   20SAPC   C34 2643   7.132   0.668  10.302  0.7104 -0.2072  0.3927
   20SAPC   H4X 2644   7.243   0.673  10.304  0.7941 -1.5162  0.0151
   20SAPC   H4Y 2645   7.105   0.732  10.389  2.2633  0.4659  0.4191
   20SAPC   C35 2646   7.091   0.741  10.174  0.7801 -0.7742  0.0331
   20SAPC   H5X 2647   7.123   0.848  10.176 -0.9820 -0.2182 -0.0155
   20SAPC   H5Y 2648   6.981   0.736  10.156  0.8248  2.5547 -2.0394
   20SAPC   C36 2649   7.163   0.680  10.051 -0.1177 -0.0106 -0.7815
   20SAPC   H6X 2650   7.157   0.569  10.051  1.0788 -0.0930 -1.5324
   20SAPC   H6Y 2651   7.269   0.708  10.069  0.5084 -1.5552 -1.8290
   20SAPC   C37 2652   7.119   0.742   9.918 -0.1957  0.2611  0.1668
   20SAPC   H7X 2653   7.134   0.852   9.923  0.3393  0.2567 -0.9944
   20SAPC   H7Y 2654   7.011   0.721   9.898  0.2097 -1.0627 -0.8375
   20SAPC   C38 2655   7.210   0.689   9.800 -0.0828  0.1748 -0.4512
   20SAPC   H8X 2656   7.200   0.579   9.798  1.1280  0.0411  0.0258
   20SAPC   H8Y 2657   7.312   0.723   9.828  0.5874  0.2149 -2.6736
   20SAPC   C39 2658   7.176   0.751   9.659  0.0248  0.5788  0.2106
   20SAPC   H9X 2659   7.181   0.861   9.670  1.3912  0.4594  1.0608
   20SAPC   H9Y 2660   7.069   0.724   9.642  0.5390 -1.3159 -0.3155
   20SAPC  C310 2661   7.266   0.723   9.542  0.1710  0.3977  0.2787
   20SAPC  H10X 2662   7.264   0.612   9.539 -0.0685  0.3951  0.4383
   20SAPC  H10Y 2663   7.373   0.751   9.549  0.4911  0.3695 -2.9123
   20SAPC  C311 2664   7.197   0.788   9.420 -0.3363  0.1876  0.7799
   20SAPC  H11X 2665   7.195   0.896   9.447  1.5773 -0.0383  1.9948
   20SAPC  H11Y 2666   7.091   0.756   9.412 -0.1185 -0.1395 -1.7563
   20SAPC  C312 2667   7.262   0.763   9.288 -1.1952 -0.6273 -0.0904
   20SAPC  H12X 2668   7.288   0.655   9.280  2.0961  0.0715 -0.1628
   20SAPC  H12Y 2669   7.360   0.814   9.274 -2.0423  0.4057 -2.8104
   20SAPC  C313 2670   7.169   0.799   9.172  0.3970  0.5257 -0.2187
   20SAPC  H13X 2671   7.158   0.910   9.173 -0.0617  0.5143 -1.6994
   20SAPC  H13Y 2672   7.082   0.732   9.187  1.5348 -0.6285  1.4960
   20SAPC  C314 2673   7.228   0.761   9.035 -0.4679  0.1052  0.1649
   20SAPC  H14X 2674   7.270   0.659   9.051 -1.6801 -0.2893  0.9730
   20SAPC  H14Y 2675   7.311   0.834   9.025  0.7271 -0.9685  1.7344
   20SAPC  C315 2676   7.142   0.764   8.909  0.5042 -0.8372 -0.2703
   20SAPC  H15X 2677   7.044   0.721   8.936  0.0741 -0.4862 -1.2121
   20SAPC  H15Y 2678   7.190   0.711   8.824  0.5116  0.9624 -1.4322
   20SAPC  C316 2679   7.104   0.900   8.841 -0.3553  0.3313  0.6132
   20SAPC  H16X 2680   7.199   0.948   8.808 -0.0802  1.8474  3.3530
   20SAPC  H16Y 2681   7.038   0.958   8.909 -1.6122 -0.7353  0.3447
   20SAPC  C317 2682   7.022   0.889   8.711  0.3445  0.0838 -0.6903
   20SAPC  H17X 2683   6.936   0.819   8.720  1.7443 -2.3273 -4.0379
   20SAPC  H17Y 2684   7.083   0.838   8.634 -0.0012  0.4763 -1.2339
   20SAPC  C318 2685   6.959   1.026   8.663 -0.0159 -0.1196  0.7911
   20SAPC  H18X 2686   6.901   1.012   8.569  1.8470  0.9706 -0.5921
   20SAPC  H18Y 2687   7.046   1.091   8.639  0.9121 -1.4237  0.5129
   20SAPC  H18Z 2688   6.894   1.066   8.743  1.5706  1.3513  1.4243
   21SAPC     N 2689   5.842   6.070  11.013 -0.3599 -0.1255 -0.0508
   21SAPC   C12 2690   5.721   6.107  10.922 -0.5245  0.1850 -0.2830
   21SAPC  H12A 2691   5.734   6.068  10.822 -0.1294 -1.4418  0.3801
   21SAPC  H12B 2692   5.719   6.214  10.905 -0.2330  0.0510 -1.2508
   21SAPC   C13 2693   5.966   6.148  10.990 -0.2773 -0.2050  0.4362
   21SAPC  H13A 2694   6.030   6.133  11.075  1.2762  0.1699 -0.6364
   21SAPC  H13B 2695   6.016   6.092  10.912 -2.2829  0.6487 -1.5806
   21SAPC  H13C 2696   5.953   6.254  10.978 -1.2326 -0.5161 -1.7998
   21SAPC   C14 2697   5.816   6.094  11.166 -0.2785  0.3997  0.6527
   21SAPC  H14A 2698   5.906   6.065  11.216  1.2518  2.4415 -0.7388
   21SAPC  H14B 2699   5.812   6.200  11.185 -0.4157  0.3216  1.0720
   21SAPC  H14C 2700   5.731   6.032  11.191  0.9874 -1.2565  0.9997
   21SAPC   C15 2701   5.871   5.920  11.006  0.3499 -0.3892 -0.4823
   21SAPC  H15A 2702   5.950   5.900  11.077 -1.4888 -0.1379  1.7621
   21SAPC  H15B 2703   5.788   5.853  11.024 -0.4478  0.8404  0.5969
   21SAPC  H15C 2704   5.912   5.896  10.909 -1.9644  1.0884 -1.9499
   21SAPC   C11 2705   5.581   6.061  10.974 -0.4565  0.6825  0.3115
   21SAPC  H11A 2706   5.510   6.093  10.895  0.8949  1.5241 -0.6095
   21SAPC  H11B 2707   5.560   6.114  11.069  1.2262  0.6644  0.7328
   21SAPC     P 2708   5.474   5.817  10.975  0.1484  0.2071  0.0053
   21SAPC   O13 2709   5.524   5.684  11.007  0.0230  0.0837  0.5148
   21SAPC   O14 2710   5.353   5.865  11.043  0.2939  0.1233 -0.1581
   21SAPC   O12 2711   5.585   5.921  10.991  0.2377  1.0198 -0.4584
   21SAPC   O11 2712   5.450   5.819  10.820 -0.2925  0.2180 -0.1713
   21SAPC    C1 2713   5.530   5.738  10.732 -0.0006  1.3459  0.6617
   21SAPC    HA 2714   5.575   5.651  10.784  0.1635 -0.7677 -2.6892
   21SAPC    HB 2715   5.470   5.703  10.646  1.8608  0.5093 -0.3601
   21SAPC    C2 2716   5.648   5.820  10.687  0.0540 -0.1191  0.4235
   21SAPC    HS 2717   5.687   5.883  10.769  0.4695  1.9119 -1.2516
   21SAPC   O21 2718   5.592   5.905  10.590  0.1605 -0.6730  0.1160
   21SAPC   C21 2719   5.650   6.021  10.554  0.5173  0.4604  0.2991
   21SAPC   O22 2720   5.747   6.061  10.609 -0.2285 -0.1067  0.8157
   21SAPC   C22 2721   5.582   6.068  10.426  0.2174 -0.1853  0.2373
   21SAPC   H2R 2722   5.566   5.983  10.355  0.6452  1.6070 -2.1264
   21SAPC   H2S 2723   5.482   6.102  10.458  1.5987  3.2336  1.3270
   21SAPC    C3 2724   5.769   5.735  10.629  0.1852 -0.1807  0.2325
   21SAPC    HX 2725   5.792   5.650  10.697  2.8839  0.1187 -0.1875
   21SAPC    HY 2726   5.866   5.789  10.633 -0.4433  1.1957 -1.6604
   21SAPC   O31 2727   5.726   5.672  10.508  0.3072 -0.2731  0.9229
   21SAPC   C31 2728   5.793   5.710  10.398 -0.9006 -0.6676 -0.2824
   21SAPC   O32 2729   5.880   5.799  10.389  0.4208  0.1090 -0.6090
   21SAPC   C32 2730   5.739   5.628  10.280  0.3824  0.0455 -0.4383
   21SAPC   H2X 2731   5.628   5.629  10.289  0.4189 -1.0089  0.3202
   21SAPC   H2Y 2732   5.768   5.523  10.300  0.5035 -0.2599 -2.0870
   21SAPC   C23 2733   5.660   6.185  10.354  0.1387 -0.2192  0.1501
   21SAPC   H3R 2734   5.683   6.264  10.429  0.5668 -0.7505  0.5853
   21SAPC   H3S 2735   5.589   6.224  10.277  0.5848  2.0245  0.7971
   21SAPC   C24 2736   5.790   6.152  10.286  0.5514 -0.3469 -0.0688
   21SAPC   H4R 2737   5.763   6.061  10.229  1.1512 -0.4502 -0.1944
   21SAPC   H4S 2738   5.866   6.119  10.360 -0.8542  0.4467  1.8088
   21SAPC   C25 2739   5.841   6.261  10.195 -0.1062 -0.1652  0.2272
   21SAPC   H5R 2740   5.874   6.345  10.257 -2.0296  1.6995 -1.1029
   21SAPC   C26 2741   5.838   6.279  10.065 -0.1555 -0.7638  0.4724
   21SAPC   H6R 2742   5.900   6.358  10.020 -1.0497 -0.1276  0.3315
   21SAPC   C27 2743   5.775   6.192   9.962 -0.2454  0.2542  0.4348
   21SAPC   H7R 2744   5.714   6.252   9.890 -1.6403  0.2322  1.5435
   21SAPC   H7S 2745   5.710   6.112  10.004 -0.6758 -1.0402 -2.4135
   21SAPC   C28 2746   5.878   6.112   9.887 -0.4635 -0.3472 -0.4855
   21SAPC   H8R 2747   5.925   6.036   9.952 -1.0906 -0.5235 -0.2309
   21SAPC   C29 2748   5.927   6.119   9.763  0.6247  0.6625 -0.0844
   21SAPC   H9R 2749   6.008   6.049   9.738  0.4136 -0.2574  1.6229
   21SAPC  C210 2750   5.888   6.222   9.663 -0.2639  0.1091  0.1933
   21SAPC  H10R 2751   5.980   6.259   9.612 -0.6097  1.1526  0.2948
   21SAPC  H10S 2752   5.861   6.317   9.714  0.9330  0.6953 -0.2338
   21SAPC  C211 2753   5.784   6.192   9.554 -0.1312  1.0601 -0.3630
   21SAPC  H11R 2754   5.683   6.170   9.592 -0.2240  1.7378 -0.2191
   21SAPC  C212 2755   5.803   6.176   9.423  0.0979  0.8659  0.3518
   21SAPC  H12R 2756   5.715   6.155   9.361  0.1615  0.4083  0.4181
   21SAPC  C213 2757   5.937   6.187   9.354  0.2220  0.1110  0.3097
   21SAPC  H13R 2758   5.986   6.286   9.364  2.6240 -1.0188  0.4635
   21SAPC  H13S 2759   5.920   6.190   9.244  0.4426  0.8867  0.2930
   21SAPC  C214 2760   6.039   6.077   9.382 -0.6332 -1.2998  0.5195
   21SAPC  H14R 2761   6.039   6.015   9.473  0.8772 -2.3986 -0.1681
   21SAPC  C215 2762   6.128   6.034   9.293  0.5671 -0.5468 -0.5083
   21SAPC  H15R 2763   6.191   5.949   9.321  0.6229 -1.0485 -2.0655
   21SAPC  C216 2764   6.159   6.087   9.159 -0.3429 -0.5416  0.8392
   21SAPC  H16R 2765   6.265   6.119   9.169 -0.5881  0.3643  0.6790
   21SAPC  H16S 2766   6.106   6.181   9.131  1.1875  0.3251  0.6775
   21SAPC  C217 2767   6.132   5.980   9.052 -0.1177 -0.9579 -0.2813
   21SAPC  H17R 2768   6.023   5.958   9.052 -1.2514  3.6249  0.1419
   21SAPC  H17S 2769   6.203   5.895   9.058 -0.4206 -1.1587  0.5655
   21SAPC  C218 2770   6.153   6.052   8.917  0.1109  0.1650  0.1905
   21SAPC  H18R 2771   6.249   6.107   8.925  0.5489 -0.5345 -0.0824
   21SAPC  H18S 2772   6.064   6.115   8.901 -0.8746 -1.5544 -1.5397
   21SAPC  C219 2773   6.163   5.949   8.804 -0.2816 -0.2534  0.0469
   21SAPC  H19R 2774   6.075   5.881   8.813 -1.0553  0.7750  0.4750
   21SAPC  H19S 2775   6.248   5.879   8.812 -0.1676 -0.2550 -1.0578
   21SAPC  C220 2776   6.167   6.016   8.663 -0.0387 -0.5677 -0.6120
   21SAPC  H20R 2777   6.263   6.071   8.651  2.6840 -4.6792  0.3555
   21SAPC  H20S 2778   6.078   6.082   8.653  1.5581  1.8235  0.0305
   21SAPC  H20T 2779   6.174   5.943   8.580 -0.5310 -0.5309 -0.6832
   21SAPC   C33 2780   5.791   5.684  10.144  0.8279  0.3421  0.3039
   21SAPC   H3X 2781   5.900   5.704  10.152  0.6899  1.1074  0.3197
   21SAPC   H3Y 2782   5.749   5.785  10.127 -1.1906 -0.3736  0.7113
   21SAPC   C34 2783   5.753   5.589  10.036  0.5627  0.3408  0.5191
   21SAPC   H4X 2784   5.648   5.553  10.045  0.5544  0.2971  0.2385
   21SAPC   H4Y 2785   5.816   5.498  10.049 -1.9601 -1.6222 -0.2672
   21SAPC   C35 2786   5.771   5.651   9.902  0.6052  0.5378 -0.0127
   21SAPC   H5X 2787   5.759   5.579   9.818 -0.0484 -0.3561  0.8224
   21SAPC   H5Y 2788   5.871   5.691   9.876 -0.1918  1.2603 -2.2753
   21SAPC   C36 2789   5.680   5.767   9.855  0.0087 -0.8590 -0.5999
   21SAPC   H6X 2790   5.664   5.855   9.921 -1.8559 -0.6571 -1.2464
   21SAPC   H6Y 2791   5.576   5.733   9.835 -0.9802  1.9472 -0.6678
   21SAPC   C37 2792   5.724   5.832   9.719  0.4607  0.7419  0.1608
   21SAPC   H7X 2793   5.832   5.860   9.722  0.8351 -0.6640  0.8969
   21SAPC   H7Y 2794   5.666   5.926   9.711 -0.9976 -0.2083 -0.9713
   21SAPC   C38 2795   5.693   5.748   9.590 -0.3508  0.1556  0.1462
   21SAPC   H8X 2796   5.582   5.747   9.595 -0.3099  0.0620  3.2154
   21SAPC   H8Y 2797   5.742   5.648   9.587  1.0265  0.7802  0.7027
   21SAPC   C39 2798   5.741   5.833   9.469  0.0981  0.2508 -0.2024
   21SAPC   H9X 2799   5.850   5.851   9.460  0.0775  1.1863  1.0956
   21SAPC   H9Y 2800   5.693   5.933   9.475  1.1293  0.7703 -0.3976
   21SAPC  C310 2801   5.705   5.777   9.337 -0.4978 -0.1062  0.4087
   21SAPC  H10X 2802   5.601   5.739   9.331 -0.7088  0.6343 -0.9295
   21SAPC  H10Y 2803   5.778   5.697   9.314  0.0203  0.8415 -1.4184
   21SAPC  C311 2804   5.718   5.886   9.225 -0.5775  0.7809 -0.1769
   21SAPC  H11X 2805   5.816   5.937   9.224 -1.0099  1.6388 -0.1067
   21SAPC  H11Y 2806   5.640   5.965   9.231 -0.0626  1.2406  0.7332
   21SAPC  C312 2807   5.698   5.816   9.087  0.7008  0.2678  0.5563
   21SAPC  H12X 2808   5.595   5.778   9.098  0.3506  0.6946 -0.9072
   21SAPC  H12Y 2809   5.760   5.725   9.072 -1.5908 -1.3736  0.6244
   21SAPC  C313 2810   5.709   5.917   8.965 -0.2896  0.4443 -0.5236
   21SAPC  H13X 2811   5.809   5.965   8.968  0.7429 -1.6299  0.9180
   21SAPC  H13Y 2812   5.632   5.996   8.976 -0.1796  0.2349  3.1878
   21SAPC  C314 2813   5.711   5.861   8.831  0.5029  0.9354  0.6219
   21SAPC  H14X 2814   5.618   5.805   8.804 -0.5357  2.6165  0.5960
   21SAPC  H14Y 2815   5.789   5.782   8.836 -2.1581 -1.9163  0.8351
   21SAPC  C315 2816   5.741   5.940   8.707  0.1159 -0.2796  0.4701
   21SAPC  H15X 2817   5.826   6.008   8.732  0.5053 -0.5061 -0.1946
   21SAPC  H15Y 2818   5.660   5.997   8.657  0.1000 -0.3270  0.4413
   21SAPC  C316 2819   5.790   5.854   8.590 -0.1469 -0.7153 -0.5580
   21SAPC  H16X 2820   5.895   5.827   8.615  0.7962  1.1779 -2.2585
   21SAPC  H16Y 2821   5.796   5.922   8.502 -1.1922 -3.1048 -2.6061
   21SAPC  C317 2822   5.709   5.726   8.565 -0.5841  0.5842  0.3073
   21SAPC  H17X 2823   5.602   5.747   8.544 -0.8546 -1.6647 -0.9260
   21SAPC  H17Y 2824   5.704   5.644   8.640 -1.6189 -0.2255 -0.6044
   21SAPC  C318 2825   5.767   5.654   8.440 -0.6805 -0.0989 -0.1682
   21SAPC  H18X 2826   5.874   5.640   8.465 -0.9849 -1.8444  0.3412
   21SAPC  H18Y 2827   5.766   5.711   8.345  2.9987  2.2231  0.9832
   21SAPC  H18Z 2828   5.722   5.552   8.432 -0.4348 -0.1649 -0.6925
   22SAPC     N 2829   0.160   4.945  10.909 -0.1056  0.7527 -0.2270
   22SAPC   C12 2830   0.062   4.827  10.921  0.6217 -0.0478  0.3873
   22SAPC  H12A 2831   0.077   4.784  11.019 -2.2638  0.1066  0.9876
   22SAPC  H12B 2832   0.094   4.757  10.846 -2.2196 -0.2808 -0.7096
   22SAPC   C13 2833   0.126   5.051  11.002  0.0491  0.0589  0.8587
   22SAPC  H13A 2834   0.193   5.132  10.978  1.2760 -1.5781 -1.8180
   22SAPC  H13B 2835   0.020   5.072  10.993 -0.1880 -1.2047  0.4329
   22SAPC  H13C 2836   0.152   5.021  11.102 -0.0969  0.1709  0.9303
   22SAPC   C14 2837   0.296   4.899  10.938  0.0078  0.3770  0.5939
   22SAPC  H14A 2838   0.359   4.986  10.942 -0.2647  0.5636  0.9878
   22SAPC  H14B 2839   0.297   4.850  11.034  1.6233  0.1544  0.4781
   22SAPC  H14C 2840   0.332   4.824  10.869  2.0790 -0.8601  2.8765
   22SAPC   C15 2841   0.158   4.995  10.773  0.1114 -0.4700  0.2537
   22SAPC  H15A 2842   0.241   5.062  10.765  0.9809 -0.8162  4.1221
   22SAPC  H15B 2843   0.173   4.915  10.702 -2.6453 -0.7460 -0.1253
   22SAPC  H15C 2844   0.058   5.030  10.751 -1.3007 -4.3551 -0.3990
   22SAPC   C11 2845  -0.082   4.859  10.918 -0.4789 -1.0706 -0.0000
   22SAPC  H11A 2846  -0.120   4.931  10.993  0.3738 -1.3535  0.7155
   22SAPC  H11B 2847  -0.135   4.764  10.941 -1.6510 -0.5763 -0.5692
   22SAPC     P 2848  -0.237   4.846  10.707 -0.7608 -0.1836  0.1326
   22SAPC   O13 2849  -0.257   4.699  10.731 -0.2166  0.3403  0.2995
   22SAPC   O14 2850  -0.347   4.925  10.751  0.7629 -0.1821  0.0762
   22SAPC   O12 2851  -0.118   4.904  10.788  0.0573  0.3467 -0.2457
   22SAPC   O11 2852  -0.195   4.874  10.553 -0.4292  0.3079 -0.3247
   22SAPC    C1 2853  -0.054   4.870  10.524 -0.4239  1.1723  0.3517
   22SAPC    HA 2854   0.001   4.955  10.570  0.7215  0.4987  0.2589
   22SAPC    HB 2855  -0.014   4.775  10.564  1.6582  1.4645 -0.8812
   22SAPC    C2 2856  -0.024   4.866  10.373 -0.5040 -0.4520  0.3894
   22SAPC    HS 2857   0.084   4.855  10.353 -0.3027  1.0445  0.5209
   22SAPC   O21 2858  -0.084   4.984  10.315 -0.0122 -0.4857  0.4259
   22SAPC   C21 2859   0.001   5.081  10.334 -0.1163  0.0843 -0.1381
   22SAPC   O22 2860   0.112   5.071  10.382  0.2527 -0.5474 -0.6696
   22SAPC   C22 2861  -0.052   5.212  10.272  0.4125 -0.4731 -0.2479
   22SAPC   H2R 2862  -0.087   5.289  10.345 -1.8549  1.3659 -3.0404
   22SAPC   H2S 2863   0.024   5.262  10.208 -0.6284  2.6898  0.7786
   22SAPC    C3 2864  -0.089   4.747  10.294  0.8524 -0.1989 -0.6241
   22SAPC    HX 2865  -0.196   4.740  10.322  1.0680  1.0462  0.5493
   22SAPC    HY 2866  -0.050   4.649  10.329 -0.0431 -0.2702  0.2015
   22SAPC   O31 2867  -0.069   4.752  10.152  0.1147 -0.0188  0.2151
   22SAPC   C31 2868  -0.167   4.795  10.076 -0.9771  0.4061  0.9600
   22SAPC   O32 2869  -0.278   4.833  10.119 -0.4776  0.2179 -0.5216
   22SAPC   C32 2870  -0.123   4.800   9.930  0.0865  0.0841  0.1613
   22SAPC   H2X 2871  -0.130   4.697   9.891 -0.1550 -0.3572  1.3455
   22SAPC   H2Y 2872  -0.015   4.825   9.922  0.0294  0.0999 -0.6361
   22SAPC   C23 2873  -0.171   5.190  10.169 -0.6105 -0.6017 -0.4309
   22SAPC   H3R 2874  -0.253   5.135  10.220  1.0229 -1.2739  1.5651
   22SAPC   H3S 2875  -0.144   5.117  10.090  0.4500 -0.7288  0.0362
   22SAPC   C24 2876  -0.226   5.323  10.102 -0.2713 -0.0415  0.6079
   22SAPC   H4R 2877  -0.250   5.397  10.181 -0.8166  0.6283 -0.1653
   22SAPC   H4S 2878  -0.324   5.290  10.060 -1.2378 -0.7034  3.1619
   22SAPC   C25 2879  -0.137   5.390  10.004  0.0103  0.5446 -0.3386
   22SAPC   H5R 2880  -0.054   5.452  10.041  0.3984  1.7030 -2.9361
   22SAPC   C26 2881  -0.135   5.396   9.868  0.5847 -0.3900  0.1653
   22SAPC   H6R 2882  -0.054   5.441   9.808  0.2867 -0.6245 -0.4220
   22SAPC   C27 2883  -0.234   5.318   9.781  1.1280  0.2441  0.0569
   22SAPC   H7R 2884  -0.275   5.234   9.841 -0.6560  0.1790 -1.1751
   22SAPC   H7S 2885  -0.182   5.267   9.697  1.0346 -0.7166  0.5643
   22SAPC   C28 2886  -0.350   5.413   9.730  0.4899 -0.1014  0.0017
   22SAPC   H8R 2887  -0.400   5.473   9.807 -1.5721 -0.6511 -0.8271
   22SAPC   C29 2888  -0.411   5.421   9.609 -0.3028  0.3322 -0.1443
   22SAPC   H9R 2889  -0.475   5.505   9.581  0.8042  0.5031 -2.3248
   22SAPC  C210 2890  -0.388   5.340   9.487  0.6339  0.7389 -0.1474
   22SAPC  H10R 2891  -0.484   5.344   9.432 -1.2214 -1.3666  2.6222
   22SAPC  H10S 2892  -0.376   5.234   9.520 -1.4075  0.9633  1.5844
   22SAPC  C211 2893  -0.273   5.382   9.398  0.4641 -0.7468  0.0387
   22SAPC  H11R 2894  -0.201   5.448   9.448 -1.4406  1.9251 -0.5365
   22SAPC  C212 2895  -0.260   5.361   9.261 -0.5279 -0.2660 -0.7173
   22SAPC  H12R 2896  -0.168   5.389   9.209 -2.3779  1.1015 -3.4864
   22SAPC  C213 2897  -0.339   5.279   9.166 -0.1227 -0.7481 -0.3160
   22SAPC  H13R 2898  -0.405   5.358   9.125  0.2008 -0.3807 -0.1353
   22SAPC  H13S 2899  -0.391   5.200   9.225  1.5473 -0.9578  0.9539
   22SAPC  C214 2900  -0.244   5.219   9.062  0.1975  0.5795 -0.5390
   22SAPC  H14R 2901  -0.170   5.146   9.098  0.0336 -1.2562 -3.5693
   22SAPC  C215 2902  -0.266   5.199   8.932 -0.3701  0.1424  0.4250
   22SAPC  H15R 2903  -0.194   5.141   8.873 -0.8747  0.8084 -0.8640
   22SAPC  C216 2904  -0.382   5.246   8.857  0.1475  0.3992 -0.4171
   22SAPC  H16R 2905  -0.364   5.350   8.823 -1.9368  1.5919  1.8229
   22SAPC  H16S 2906  -0.471   5.250   8.923 -0.9972 -1.5853 -1.7157
   22SAPC  C217 2907  -0.428   5.150   8.747 -0.1567  0.2043 -0.1510
   22SAPC  H17R 2908  -0.531   5.171   8.710 -0.3967 -0.4426  0.1520
   22SAPC  H17S 2909  -0.426   5.052   8.799  1.3211  0.2353 -0.1245
   22SAPC  C218 2910  -0.331   5.151   8.621 -0.2972  0.4762 -0.2634
   22SAPC  H18R 2911  -0.228   5.126   8.653 -0.1287  2.7018  1.2299
   22SAPC  H18S 2912  -0.320   5.254   8.583 -2.1121  0.4038 -1.0999
   22SAPC  C219 2913  -0.380   5.066   8.495 -0.0318 -0.1226 -0.2450
   22SAPC  H19R 2914  -0.296   5.044   8.425 -0.3958 -1.7698 -0.1973
   22SAPC  H19S 2915  -0.447   5.132   8.436  0.6282  1.3880  0.6343
   22SAPC  C220 2916  -0.452   4.936   8.533 -0.2806 -0.2909 -0.6448
   22SAPC  H20R 2917  -0.486   4.869   8.451 -1.6320 -0.5017  0.0580
   22SAPC  H20S 2918  -0.545   4.957   8.590  0.8885 -2.1757  2.1590
   22SAPC  H20T 2919  -0.381   4.880   8.598  1.2137  2.4555  0.2447
   22SAPC   C33 2920  -0.211   4.888   9.838  0.0025  0.9398  0.4891
   22SAPC   H3X 2921  -0.199   4.995   9.867  2.0318  0.7926  0.2793
   22SAPC   H3Y 2922  -0.316   4.852   9.844  0.4678 -0.3853  0.8386
   22SAPC   C34 2923  -0.150   4.887   9.701 -0.5291 -0.0835  0.2102
   22SAPC   H4X 2924  -0.126   4.787   9.659  0.3283  0.3449 -0.3242
   22SAPC   H4Y 2925  -0.046   4.924   9.709  0.0456 -0.9892 -2.1744
   22SAPC   C35 2926  -0.233   4.961   9.599  0.1654 -0.0603  0.2278
   22SAPC   H5X 2927  -0.255   5.060   9.644  1.7035  1.1163 -1.4491
   22SAPC   H5Y 2928  -0.325   4.902   9.578 -1.1604  1.7545  0.7292
   22SAPC   C36 2929  -0.172   4.993   9.465  0.3947 -0.3528 -0.1243
   22SAPC   H6X 2930  -0.082   5.057   9.467 -0.3640  0.9904 -3.4276
   22SAPC   H6Y 2931  -0.247   5.052   9.409  0.9255  0.0374 -0.4315
   22SAPC   C37 2932  -0.133   4.868   9.383 -0.0401  0.2746  0.4050
   22SAPC   H7X 2933  -0.229   4.815   9.363  0.8320 -1.3152  0.3325
   22SAPC   H7Y 2934  -0.074   4.794   9.440 -0.5508  0.6992  1.5243
   22SAPC   C38 2935  -0.057   4.890   9.258  0.4911  0.0125 -0.0309
   22SAPC   H8X 2936   0.050   4.908   9.282  0.7744  0.2547 -1.4177
   22SAPC   H8Y 2937  -0.094   4.983   9.210 -0.4989  0.7865  2.1087
   22SAPC   C39 2938  -0.060   4.763   9.179 -0.1879 -0.5223 -0.3004
   22SAPC   H9X 2939  -0.165   4.741   9.149 -0.4548 -1.0871  0.9699
   22SAPC   H9Y 2940  -0.018   4.681   9.242  0.1057 -0.4464 -0.3970
   22SAPC  C310 2941   0.032   4.754   9.056 -0.1882 -0.7043 -0.3038
   22SAPC  H10X 2942   0.040   4.648   9.023 -4.0228 -0.7644 -1.5454
   22SAPC  H10Y 2943   0.128   4.793   9.094 -1.0310  0.7204  0.4303
   22SAPC  C311 2944  -0.025   4.829   8.928  0.4184  0.4153 -0.2584
   22SAPC  H11X 2945  -0.018   4.938   8.952  0.8500 -0.0726  2.1526
   22SAPC  H11Y 2946  -0.134   4.806   8.930  1.1594 -3.7930  0.6072
   22SAPC  C312 2947   0.027   4.781   8.792  0.1581  0.4695  0.3735
   22SAPC  H12X 2948  -0.011   4.678   8.772 -0.6085  0.2107  2.8387
   22SAPC  H12Y 2949   0.137   4.787   8.782  0.2220 -0.2419  0.5543
   22SAPC  C313 2950  -0.040   4.862   8.686  0.2857 -0.5452 -0.2911
   22SAPC  H13X 2951   0.011   4.960   8.694  0.0154 -0.4964  1.0828
   22SAPC  H13Y 2952  -0.146   4.883   8.713  0.7536  1.3552  0.1993
   22SAPC  C314 2953  -0.049   4.799   8.544  0.0699 -0.1220  0.1018
   22SAPC  H14X 2954   0.053   4.774   8.507  0.9141 -0.2231  2.3775
   22SAPC  H14Y 2955  -0.096   4.878   8.482  1.9576  0.1780 -1.0311
   22SAPC  C315 2956  -0.121   4.668   8.542  0.6978  0.2587 -0.8298
   22SAPC  H15X 2957  -0.197   4.669   8.624  1.3972 -0.0338 -0.1607
   22SAPC  H15Y 2958  -0.061   4.578   8.568  1.9421  0.7419 -1.9312
   22SAPC  C316 2959  -0.189   4.638   8.412 -0.0417 -0.2936 -0.2093
   22SAPC  H16X 2960  -0.103   4.611   8.347  0.5450 -0.8141  0.7536
   22SAPC  H16Y 2961  -0.225   4.736   8.376  3.7456  0.8444 -1.2659
   22SAPC  C317 2962  -0.295   4.525   8.395 -0.3889  0.5484  0.3756
   22SAPC  H17X 2963  -0.319   4.527   8.287  2.0161  0.1755 -0.2194
   22SAPC  H17Y 2964  -0.386   4.544   8.456 -0.5564  3.3419 -0.5985
   22SAPC  C318 2965  -0.235   4.387   8.430  0.6375  0.8086  0.5734
   22SAPC  H18X 2966  -0.313   4.309   8.418  1.0187  0.6719 -1.4137
   22SAPC  H18Y 2967  -0.192   4.393   8.532  2.0300 -0.4788  0.1030
   22SAPC  H18Z 2968  -0.159   4.364   8.353 -0.6290 -0.7517 -0.2831
   23SAPC     N 2969   0.712   5.984  10.913 -0.8005 -0.0001 -0.1344
   23SAPC   C12 2970   0.804   5.992  10.787 -0.2323  0.1408  0.0109
   23SAPC  H12A 2971   0.743   6.007  10.699 -2.5890 -0.6003  1.4255
   23SAPC  H12B 2972   0.862   5.901  10.777  0.4803  0.6481 -0.5499
   23SAPC   C13 2973   0.609   5.879  10.901 -0.0032  0.0417  0.3746
   23SAPC  H13A 2974   0.650   5.780  10.894 -1.8759 -0.7222 -0.5205
   23SAPC  H13B 2975   0.548   5.890  10.989 -1.0761  1.0624 -0.4516
   23SAPC  H13C 2976   0.555   5.906  10.811  1.4265  0.3448 -0.4180
   23SAPC   C14 2977   0.793   5.937  11.029  0.0775 -0.2825 -0.0233
   23SAPC  H14A 2978   0.812   5.830  11.036  0.5435 -0.0961  4.8048
   23SAPC  H14B 2979   0.888   5.988  11.027  0.1115 -0.3489 -0.1678
   23SAPC  H14C 2980   0.743   5.977  11.115  1.6029  2.9647 -0.5201
   23SAPC   C15 2981   0.639   6.115  10.955  0.7757  0.1259 -0.0574
   23SAPC  H15A 2982   0.705   6.198  10.977  0.5249  0.3690 -0.2260
   23SAPC  H15B 2983   0.580   6.156  10.875 -0.2429 -0.4269  0.3962
   23SAPC  H15C 2984   0.581   6.105  11.046  0.1406  1.0066 -0.3559
   23SAPC   C11 2985   0.903   6.112  10.800  0.2548 -0.3666  1.0677
   23SAPC  H11A 2986   0.973   6.092  10.884  0.0684 -1.5937  0.9611
   23SAPC  H11B 2987   0.846   6.205  10.821  1.0495  0.6707 -1.1314
   23SAPC     P 2988   0.920   6.215  10.572 -0.0740 -0.3908  0.0681
   23SAPC   O13 2989   0.848   6.330  10.627  0.7467  0.0567 -0.9584
   23SAPC   O14 2990   1.023   6.247  10.476 -0.6151  0.5151 -0.1944
   23SAPC   O12 2991   0.985   6.132  10.686 -0.4230 -0.0020 -0.2503
   23SAPC   O11 2992   0.822   6.112  10.503 -0.4510  0.4967 -0.6479
   23SAPC    C1 2993   0.868   6.003  10.419  0.1886 -0.5106  0.1681
   23SAPC    HA 2994   0.946   5.948  10.476 -0.5924 -1.3029  0.4960
   23SAPC    HB 2995   0.776   5.941  10.411  0.1070 -0.2115 -1.5693
   23SAPC    C2 2996   0.895   6.035  10.267 -0.0317  0.6660 -1.1529
   23SAPC    HS 2997   0.974   6.113  10.261 -0.1722  0.7004 -3.0608
   23SAPC   O21 2998   0.761   6.073  10.214 -0.2391 -0.3531  0.7175
   23SAPC   C21 2999   0.767   6.149  10.107  0.1505  0.1038  0.3559
   23SAPC   O22 3000   0.868   6.168  10.039 -0.2993  0.2169  0.1878
   23SAPC   C22 3001   0.636   6.207  10.076 -0.1111  0.9175 -0.0262
   23SAPC   H2R 3002   0.602   6.146   9.990  0.2689 -1.8589  1.6652
   23SAPC   H2S 3003   0.561   6.179  10.153 -0.8785 -1.4514 -1.5129
   23SAPC    C3 3004   0.950   5.909  10.199  0.1844  0.2657 -0.0347
   23SAPC    HX 3005   0.960   5.930  10.091  1.1880 -1.3167 -0.2769
   23SAPC    HY 3006   0.888   5.818  10.214  2.9208 -1.7007 -0.0418
   23SAPC   O31 3007   1.082   5.886  10.260  0.1817 -0.1726  0.3134
   23SAPC   C31 3008   1.139   5.768  10.232  0.8653 -0.4677 -1.0423
   23SAPC   O32 3009   1.088   5.686  10.160 -0.2539  0.1198  0.0720
   23SAPC   C32 3010   1.272   5.757  10.308 -1.0315  0.0685  0.2514
   23SAPC   H2X 3011   1.306   5.652  10.318  2.1278  1.0880  1.6242
   23SAPC   H2Y 3012   1.257   5.794  10.412  1.6746  1.9537  0.0736
   23SAPC   C23 3013   0.635   6.356  10.048 -0.7459  0.0948  0.1036
   23SAPC   H3R 3014   0.529   6.383  10.030 -1.9222 -2.6017  2.2555
   23SAPC   H3S 3015   0.685   6.383   9.953 -0.1120 -1.5679 -0.0670
   23SAPC   C24 3016   0.687   6.432  10.167 -0.1337 -0.1745  0.6124
   23SAPC   H4R 3017   0.669   6.541  10.153 -2.7856 -0.4834  1.0976
   23SAPC   H4S 3018   0.798   6.425  10.170 -0.1248 -0.5027 -0.2999
   23SAPC   C25 3019   0.625   6.417  10.305 -0.1666  0.2702 -0.2958
   23SAPC   H5R 3020   0.688   6.349  10.364 -1.6465 -1.4095 -0.5817
   23SAPC   C26 3021   0.513   6.462  10.358 -0.2097  0.3594  0.6898
   23SAPC   H6R 3022   0.504   6.465  10.468  2.5137  0.8553  0.9875
   23SAPC   C27 3023   0.407   6.542  10.289 -0.1444 -0.5323  0.1381
   23SAPC   H7R 3024   0.411   6.546  10.178  0.1429  0.6199  0.1781
   23SAPC   H7S 3025   0.410   6.651  10.309 -0.5377 -0.4725 -0.1132
   23SAPC   C28 3026   0.268   6.484  10.324  0.7607 -0.5570 -0.7283
   23SAPC   H8R 3027   0.268   6.389  10.378  3.1898  0.3198  1.0086
   23SAPC   C29 3028   0.157   6.550  10.291  0.1854  0.3145 -0.2164
   23SAPC   H9R 3029   0.062   6.497  10.308  1.1777 -0.7795  2.4143
   23SAPC  C210 3030   0.150   6.688  10.228  0.1106 -0.2220  0.7774
   23SAPC  H10R 3031   0.204   6.699  10.132 -0.0309  0.5231  0.7780
   23SAPC  H10S 3032   0.175   6.770  10.299  2.0894 -0.0118 -0.1003
   23SAPC  C211 3033   0.008   6.708  10.188  0.3437  0.0178 -0.0832
   23SAPC  H11R 3034  -0.056   6.664  10.266  1.0124  0.2209  0.5885
   23SAPC  C212 3035  -0.051   6.750  10.071  0.1072  0.0523 -1.0361
   23SAPC  H12R 3036  -0.160   6.741  10.064  0.2512 -1.9545 -1.2257
   23SAPC  C213 3037   0.018   6.799   9.946 -0.0324  0.3071 -0.3665
   23SAPC  H13R 3038   0.128   6.799   9.961  0.1281 -1.5432 -1.2651
   23SAPC  H13S 3039  -0.008   6.901   9.909  1.0907  0.6194 -0.3053
   23SAPC  C214 3040  -0.016   6.696   9.836  0.7954  1.0466 -0.3737
   23SAPC  H14R 3041  -0.052   6.598   9.870  0.2582  1.4940  0.4039
   23SAPC  C215 3042  -0.022   6.713   9.703 -0.0198 -0.4697  0.2379
   23SAPC  H15R 3043  -0.056   6.627   9.643  0.0057 -1.8461  2.0944
   23SAPC  C216 3044  -0.004   6.844   9.623  0.1858  0.3538 -0.5347
   23SAPC  H16R 3045   0.074   6.903   9.676 -1.3673  0.6347  1.5920
   23SAPC  H16S 3046  -0.100   6.900   9.614  0.0771  0.3802  0.6146
   23SAPC  C217 3047   0.040   6.820   9.477 -0.4851 -0.1328  0.2592
   23SAPC  H17R 3048   0.106   6.731   9.465 -0.3379  0.1621 -1.2849
   23SAPC  H17S 3049   0.099   6.904   9.435 -2.7892 -0.7307 -4.8396
   23SAPC  C218 3050  -0.086   6.802   9.382  0.1624  0.7967 -0.3519
   23SAPC  H18R 3051  -0.157   6.887   9.393  1.0252  1.3131  1.8526
   23SAPC  H18S 3052  -0.127   6.704   9.415 -0.7010  1.7242  1.4447
   23SAPC  C219 3053  -0.032   6.806   9.238  0.5174  0.0289  0.3922
   23SAPC  H19R 3054   0.050   6.735   9.213  0.8217  0.8662 -1.0775
   23SAPC  H19S 3055   0.003   6.907   9.210 -0.6085 -0.0177 -1.3043
   23SAPC  C220 3056  -0.142   6.775   9.128 -0.5145 -0.1385  0.0441
   23SAPC  H20R 3057  -0.093   6.755   9.030  1.0123 -1.2084  0.9964
   23SAPC  H20S 3058  -0.221   6.853   9.115  0.9741  1.1665 -1.7468
   23SAPC  H20T 3059  -0.189   6.679   9.156  0.4780 -1.1410 -1.5430
   23SAPC   C33 3060   1.406   5.826  10.247  0.0403  0.1961 -0.5269
   23SAPC   H3X 3061   1.456   5.864  10.339  0.1891 -1.8753  0.2941
   23SAPC   H3Y 3062   1.366   5.906  10.182 -0.4848 -0.1951 -0.6870
   23SAPC   C34 3063   1.496   5.724  10.184 -0.9351  0.1119  0.0173
   23SAPC   H4X 3064   1.430   5.673  10.111 -0.3881 -0.0278 -0.3890
   23SAPC   H4Y 3065   1.541   5.659  10.261 -2.7440 -1.2315 -0.0009
   23SAPC   C35 3066   1.609   5.790  10.108  0.8222 -0.0804 -0.1715
   23SAPC   H5X 3067   1.676   5.708  10.076 -1.1304 -0.8931 -2.4889
   23SAPC   H5Y 3068   1.659   5.857  10.182 -1.1587  0.8792  0.3671
   23SAPC   C36 3069   1.569   5.854   9.978  0.2208  0.2781 -0.0877
   23SAPC   H6X 3070   1.644   5.929   9.945 -0.9971  1.4935 -0.2346
   23SAPC   H6Y 3071   1.477   5.917   9.980 -0.1546 -0.2615  0.0118
   23SAPC   C37 3072   1.573   5.754   9.861 -0.3078  0.4458 -0.3980
   23SAPC   H7X 3073   1.507   5.667   9.883  0.1752  0.0385 -0.5543
   23SAPC   H7Y 3074   1.673   5.707   9.852 -0.0263  0.8685  0.4243
   23SAPC   C38 3075   1.524   5.832   9.740  0.2419 -0.6524 -0.1675
   23SAPC   H8X 3076   1.618   5.878   9.703 -0.1503  1.0349  0.8057
   23SAPC   H8Y 3077   1.462   5.920   9.769  1.0330 -0.0208 -0.3279
   23SAPC   C39 3078   1.459   5.752   9.629  0.2836 -0.4267 -0.8803
   23SAPC   H9X 3079   1.359   5.718   9.662  0.6881 -0.6029  0.1993
   23SAPC   H9Y 3080   1.523   5.666   9.600 -0.3910 -0.9233 -0.9043
   23SAPC  C310 3081   1.439   5.831   9.504 -0.9109 -0.0651  0.4038
   23SAPC  H10X 3082   1.539   5.866   9.468 -1.1488 -0.6048 -0.8263
   23SAPC  H10Y 3083   1.373   5.920   9.514 -0.2146  0.5063  0.0583
   23SAPC  C311 3084   1.358   5.768   9.393  0.2099 -0.2718  0.0165
   23SAPC  H11X 3085   1.254   5.751   9.427 -0.3557  2.4600 -0.1300
   23SAPC  H11Y 3086   1.408   5.673   9.364  0.7847 -0.6329  2.0328
   23SAPC  C312 3087   1.346   5.875   9.279  0.3074 -0.2478  0.0028
   23SAPC  H12X 3088   1.442   5.930   9.267 -0.4496  1.6653  2.0329
   23SAPC  H12Y 3089   1.275   5.951   9.318  1.1867 -0.4353  2.1128
   23SAPC  C313 3090   1.299   5.820   9.138  0.0889  0.4623 -1.0759
   23SAPC  H13X 3091   1.361   5.732   9.112 -0.9499 -0.9219  0.9200
   23SAPC  H13Y 3092   1.313   5.890   9.053  0.2705  1.6318 -0.1168
   23SAPC  C314 3093   1.159   5.757   9.140  0.4551  0.7739 -0.0628
   23SAPC  H14X 3094   1.094   5.802   9.218  1.0818  1.9174 -0.1798
   23SAPC  H14Y 3095   1.161   5.652   9.178 -0.3745  0.6578 -0.3315
   23SAPC  C315 3096   1.096   5.771   9.007 -0.2808 -0.3647  0.2920
   23SAPC  H15X 3097   1.178   5.744   8.938 -0.4692  0.9547 -0.4746
   23SAPC  H15Y 3098   1.055   5.873   8.990 -0.9739 -0.5572  0.7694
   23SAPC  C316 3099   0.977   5.673   8.990  0.9395  0.6902  0.7415
   23SAPC  H16X 3100   0.889   5.699   9.053 -0.2021 -1.1374 -0.0292
   23SAPC  H16Y 3101   1.014   5.571   9.012 -1.4763 -0.3051  0.4349
   23SAPC  C317 3102   0.938   5.683   8.841 -0.0239  0.6121  0.1244
   23SAPC  H17X 3103   1.023   5.639   8.785  0.8970 -2.6957  3.7339
   23SAPC  H17Y 3104   0.908   5.789   8.822 -0.6139  0.1720 -1.6047
   23SAPC  C318 3105   0.821   5.586   8.815  0.4153 -0.7241  0.4262
   23SAPC  H18X 3106   0.867   5.485   8.822 -1.1683 -1.6272 -1.4263
   23SAPC  H18Y 3107   0.787   5.596   8.710  2.3496  0.3042 -0.1531
   23SAPC  H18Z 3108   0.739   5.603   8.887  1.4439 -0.4197  1.5677
   24SAPC     N 3109   2.568   0.090  11.127  0.0123  0.0868  0.2680
   24SAPC   C12 3110   2.573   0.219  11.056  0.0417  0.5400 -0.7336
   24SAPC  H12A 3111   2.675   0.252  11.047  0.7340 -1.4259 -0.7359
   24SAPC  H12B 3112   2.516   0.293  11.110  0.1656 -0.2657  0.5464
   24SAPC   C13 3113   2.613  -0.015  11.043  0.5471  0.9886 -0.2950
   24SAPC  H13A 3114   2.642  -0.103  11.099  0.2923  2.1194  1.7136
   24SAPC  H13B 3115   2.541  -0.031  10.965  1.8205  0.8764 -1.4708
   24SAPC  H13C 3116   2.697   0.020  10.985  1.5073  0.8243  0.9425
   24SAPC   C14 3117   2.678   0.104  11.226  0.0143  0.6156  0.1145
   24SAPC  H14A 3118   2.672   0.175  11.308 -2.4730  0.0296  0.5200
   24SAPC  H14B 3119   2.691   0.015  11.287 -0.1457  0.7792  0.3930
   24SAPC  H14C 3120   2.772   0.126  11.179 -0.3408  1.0253 -0.4164
   24SAPC   C15 3121   2.434   0.068  11.188 -0.2967 -0.3441 -0.4502
   24SAPC  H15A 3122   2.449  -0.013  11.258  0.6598  0.5607  0.4211
   24SAPC  H15B 3123   2.403   0.154  11.244  0.6392 -0.5931  0.4691
   24SAPC  H15C 3124   2.367   0.024  11.115  0.2649 -2.1557  0.0716
   24SAPC   C11 3125   2.531   0.222  10.908  0.2797 -0.5897 -0.4113
   24SAPC  H11A 3126   2.594   0.153  10.848 -1.4035 -0.2753 -2.6620
   24SAPC  H11B 3127   2.547   0.323  10.865 -0.0174  0.4443  1.7913
   24SAPC     P 3128   2.277   0.290  10.881  0.0425 -0.1743  0.3693
   24SAPC   O13 3129   2.149   0.219  10.910 -0.4369 -0.0051  0.0247
   24SAPC   O14 3130   2.303   0.407  10.968  0.7324 -0.0101 -0.2103
   24SAPC   O12 3131   2.393   0.181  10.898 -0.0229  0.2932  0.4189
   24SAPC   O11 3132   2.275   0.327  10.728 -0.1689  0.4853  0.6912
   24SAPC    C1 3133   2.316   0.226  10.633  0.0893 -0.2109 -0.1772
   24SAPC    HA 3134   2.389   0.149  10.667 -0.7992 -0.9364  0.1321
   24SAPC    HB 3135   2.228   0.164  10.603 -0.9673  1.6168 -1.0235
   24SAPC    C2 3136   2.378   0.288  10.512  0.4652  0.1218 -0.0085
   24SAPC    HS 3137   2.428   0.212  10.449 -1.7013  0.0183 -1.7117
   24SAPC   O21 3138   2.474   0.392  10.533  0.1121 -0.4827 -0.4978
   24SAPC   C21 3139   2.598   0.345  10.562  0.6225  0.0372 -0.5525
   24SAPC   O22 3140   2.628   0.227  10.553 -0.0286 -0.0019 -0.3710
   24SAPC   C22 3141   2.701   0.451  10.564  1.0322 -0.0171 -0.2648
   24SAPC   H2R 3142   2.730   0.469  10.669 -0.7562  1.6189  0.0115
   24SAPC   H2S 3143   2.783   0.407  10.502  2.4599  3.1019 -0.7876
   24SAPC    C3 3144   2.266   0.345  10.421 -0.2509  1.1628  0.3087
   24SAPC    HX 3145   2.309   0.412  10.344  1.4290  1.1724  1.1874
   24SAPC    HY 3146   2.201   0.404  10.489 -1.9226  0.7504 -0.8927
   24SAPC   O31 3147   2.192   0.243  10.348 -0.1408 -0.3006  0.2328
   24SAPC   C31 3148   2.060   0.231  10.380  0.4689  0.0687 -0.0031
   24SAPC   O32 3149   2.006   0.285  10.476  0.4811  0.7372  0.1858
   24SAPC   C32 3150   1.981   0.151  10.275 -0.0407 -0.0456 -0.9113
   24SAPC   H2X 3151   1.872   0.148  10.297  0.0137  1.2467 -0.3468
   24SAPC   H2Y 3152   2.015   0.045  10.281 -0.3432 -0.1022 -0.1179
   24SAPC   C23 3153   2.642   0.584  10.504 -0.6958  0.4068 -0.3705
   24SAPC   H3R 3154   2.566   0.579  10.423 -2.4641 -0.9917  1.2867
   24SAPC   H3S 3155   2.724   0.651  10.469 -1.4005  2.2074  1.2552
   24SAPC   C24 3156   2.591   0.675  10.622  0.5192  0.1645 -0.6785
   24SAPC   H4R 3157   2.680   0.689  10.687  0.3305  0.8783 -0.5753
   24SAPC   H4S 3158   2.520   0.608  10.675  3.5555 -1.8687  1.1389
   24SAPC   C25 3159   2.529   0.816  10.611  0.8875 -0.0835 -0.3492
   24SAPC   H5R 3160   2.551   0.881  10.697  2.7889 -0.7698 -0.2826
   24SAPC   C26 3161   2.451   0.863  10.511 -0.3637 -0.0693  0.2982
   24SAPC   H6R 3162   2.406   0.962  10.523  0.0622  0.2008 -0.2818
   24SAPC   C27 3163   2.401   0.791  10.388  0.2777 -0.6904  0.5272
   24SAPC   H7R 3164   2.300   0.833  10.370  0.8422  0.9966  1.1360
   24SAPC   H7S 3165   2.387   0.684  10.417 -1.3219 -0.6760 -0.0564
   24SAPC   C28 3166   2.485   0.805  10.266 -0.0934  0.3342  0.0534
   24SAPC   H8R 3167   2.540   0.901  10.266 -2.2674  1.6624 -0.6627
   24SAPC   C29 3168   2.499   0.710  10.173  0.2246  0.4731  0.4373
   24SAPC   H9R 3169   2.561   0.732  10.086  2.0982 -1.8983  1.0883
   24SAPC  C210 3170   2.431   0.572  10.161 -0.8722 -0.0950 -0.5701
   24SAPC  H10R 3171   2.380   0.572  10.062  0.4155 -0.8938 -1.2529
   24SAPC  H10S 3172   2.350   0.569  10.238 -0.3273 -0.3357  0.0005
   24SAPC  C211 3173   2.522   0.452  10.168 -0.6020  0.8118  0.9371
   24SAPC  H11R 3174   2.546   0.429  10.273  0.5108 -0.1133  0.5100
   24SAPC  C212 3175   2.576   0.374  10.069 -0.1636 -1.1163 -0.4029
   24SAPC  H12R 3176   2.642   0.291  10.096  2.1521  0.5158 -0.7090
   24SAPC  C213 3177   2.554   0.387   9.921  0.0926  0.6133 -0.4331
   24SAPC  H13R 3178   2.524   0.489   9.887 -0.4008  0.0997 -1.6082
   24SAPC  H13S 3179   2.469   0.322   9.892 -0.0037  0.0247  1.1179
   24SAPC  C214 3180   2.677   0.358   9.835  0.4933  0.0782 -0.0269
   24SAPC  H14R 3181   2.766   0.310   9.878  1.4460  0.6838 -1.2504
   24SAPC  C215 3182   2.678   0.398   9.709 -0.1087  1.0101  0.0332
   24SAPC  H15R 3183   2.764   0.359   9.653 -1.4091 -2.6819  0.3903
   24SAPC  C216 3184   2.565   0.456   9.625 -0.2338  0.0589  0.2960
   24SAPC  H16R 3185   2.583   0.561   9.593 -0.6657  0.2439  0.6506
   24SAPC  H16S 3186   2.474   0.475   9.685  0.1518  2.9105  0.0876
   24SAPC  C217 3187   2.541   0.385   9.482 -0.2892 -0.2076 -0.3571
   24SAPC  H17R 3188   2.512   0.280   9.502 -1.0381  0.1893  0.7175
   24SAPC  H17S 3189   2.637   0.393   9.426  0.4238 -0.2396  0.8264
   24SAPC  C218 3190   2.419   0.442   9.406 -0.3217 -1.0756 -0.6298
   24SAPC  H18R 3191   2.333   0.439   9.476 -0.5234 -0.2216 -0.8188
   24SAPC  H18S 3192   2.405   0.383   9.313  0.9279  0.6319 -1.9771
   24SAPC  C219 3193   2.456   0.588   9.359  0.0557  0.1047  0.0277
   24SAPC  H19R 3194   2.566   0.587   9.340  0.8698 -0.9119  3.7838
   24SAPC  H19S 3195   2.438   0.651   9.449  0.5989  0.3980 -0.0652
   24SAPC  C220 3196   2.372   0.646   9.242  0.4718 -0.1471  0.3635
   24SAPC  H20R 3197   2.268   0.612   9.261  0.4957 -1.3255 -1.4101
   24SAPC  H20S 3198   2.395   0.606   9.141 -2.0135 -2.0926  0.4692
   24SAPC  H20T 3199   2.370   0.757   9.242 -2.1066 -0.1150  1.9358
   24SAPC   C33 3200   1.991   0.204  10.133 -0.4165 -0.1575 -0.3040
   24SAPC   H3X 3201   2.100   0.213  10.114 -0.5623 -1.3061 -1.8368
   24SAPC   H3Y 3202   1.944   0.304  10.120  0.0070 -0.2659 -3.6188
   24SAPC   C34 3203   1.935   0.115  10.023  1.1783 -0.2897  0.6192
   24SAPC   H4X 3204   1.825   0.107  10.033  0.5656  2.4701 -2.1718
   24SAPC   H4Y 3205   1.979   0.014  10.040 -1.6667 -1.6713  0.2756
   24SAPC   C35 3206   1.964   0.163   9.881  0.4529 -0.0922  0.1520
   24SAPC   H5X 3207   1.959   0.082   9.806  0.8123 -0.7505  0.8170
   24SAPC   H5Y 3208   2.068   0.203   9.885 -0.2633  1.7702  1.3195
   24SAPC   C36 3209   1.874   0.287   9.843 -0.2676 -0.1999  0.1707
   24SAPC   H6X 3210   1.865   0.358   9.928 -1.3672 -0.0988 -0.0178
   24SAPC   H6Y 3211   1.769   0.254   9.827  0.2875 -1.0868 -1.9360
   24SAPC   C37 3212   1.927   0.344   9.711  0.1952  0.1994  0.2613
   24SAPC   H7X 3213   2.038   0.348   9.714  0.1988 -0.4731  2.2539
   24SAPC   H7Y 3214   1.869   0.438   9.697 -4.6505 -2.5764 -0.7140
   24SAPC   C38 3215   1.870   0.257   9.596 -0.0540  0.4842  0.4709
   24SAPC   H8X 3216   1.759   0.260   9.600  0.0004  2.3222  2.7005
   24SAPC   H8Y 3217   1.902   0.151   9.606 -0.1054  0.2823 -1.2591
   24SAPC   C39 3218   1.916   0.319   9.465 -0.3061 -0.3193 -0.0263
   24SAPC   H9X 3219   2.024   0.347   9.462 -0.9387  2.4187 -0.1499
   24SAPC   H9Y 3220   1.877   0.423   9.458  0.9748  0.5662  3.7755
   24SAPC  C310 3221   1.870   0.236   9.338 -0.5042 -0.1723  0.0904
   24SAPC  H10X 3222   1.760   0.226   9.341 -0.4687 -0.3509  1.2122
   24SAPC  H10Y 3223   1.911   0.136   9.361  1.9449  0.7047 -0.1417
   24SAPC  C311 3224   1.920   0.291   9.205  0.0825 -0.4398  1.0599
   24SAPC  H11X 3225   2.017   0.242   9.187  0.6667  0.3692  1.8872
   24SAPC  H11Y 3226   1.939   0.399   9.223  1.0601 -0.4571  0.1810
   24SAPC  C312 3227   1.826   0.278   9.090  0.0198 -0.1945  0.0324
   24SAPC  H12X 3228   1.728   0.316   9.123  0.2563 -1.9387  3.1633
   24SAPC  H12Y 3229   1.818   0.173   9.053  0.6947  0.6702 -2.8208
   24SAPC  C313 3230   1.877   0.357   8.969  0.1357  0.2119  0.2066
   24SAPC  H13X 3231   1.967   0.307   8.928  1.4400  1.4113  1.5309
   24SAPC  H13Y 3232   1.916   0.459   8.989  2.5520 -0.0474 -2.5568
   24SAPC  C314 3233   1.780   0.353   8.853  0.8270 -0.0374  0.2039
   24SAPC  H14X 3234   1.696   0.424   8.868  2.7603  2.1019  1.4183
   24SAPC  H14Y 3235   1.740   0.249   8.847 -0.6229  0.5001  0.2482
   24SAPC  C315 3236   1.842   0.390   8.720  0.1208  0.5504  0.1626
   24SAPC  H15X 3237   1.912   0.476   8.725  0.7508  0.0059  1.2201
   24SAPC  H15Y 3238   1.755   0.415   8.656 -0.5921  4.4461  2.3463
   24SAPC  C316 3239   1.915   0.261   8.665 -0.0652 -0.6788 -0.0524
   24SAPC  H16X 3240   1.837   0.195   8.621 -0.9771  0.7529 -0.6577
   24SAPC  H16Y 3241   1.954   0.199   8.748 -1.3668 -1.2897  0.1436
   24SAPC  C317 3242   2.026   0.299   8.571 -0.0969 -0.6908  0.2286
   24SAPC  H17X 3243   2.090   0.368   8.630  1.2701 -0.9734 -0.8708
   24SAPC  H17Y 3244   1.989   0.368   8.492 -0.3247  2.4877  2.9039
   24SAPC  C318 3245   2.112   0.184   8.521 -0.2087  0.7223 -0.0163
   24SAPC  H18X 3246   2.154   0.122   8.603 -0.5355 -0.7907 -0.9311
   24SAPC  H18Y 3247   2.200   0.220   8.464  0.2786 -1.1281 -0.5303
   24SAPC  H18Z 3248   2.053   0.118   8.453  2.0469 -1.1367 -0.3031
   25SAPC     N 3249   5.876   3.583   5.952 -0.8722  0.1210 -0.0550
   25SAPC   C12 3250   5.758   3.567   6.048 -0.4806 -0.6407 -0.3787
   25SAPC  H12A 3251   5.769   3.648   6.118  0.6303 -0.6190 -0.5707
   25SAPC  H12B 3252   5.768   3.471   6.095 -0.1334 -0.7759 -0.7276
   25SAPC   C13 3253   5.871   3.718   5.899  0.2543 -0.0275  0.2276
   25SAPC  H13A 3254   5.943   3.731   5.819  2.2254  0.4680  1.9975
   25SAPC  H13B 3255   5.776   3.749   5.857  1.0188  2.2306  0.0411
   25SAPC  H13C 3256   5.890   3.791   5.976 -0.0920  1.4803 -1.0568
   25SAPC   C14 3257   5.997   3.555   6.031 -0.2954  0.1018 -0.0312
   25SAPC  H14A 3258   6.081   3.565   5.964 -0.1658 -0.9141 -0.0389
   25SAPC  H14B 3259   6.011   3.636   6.101  3.4650 -1.3321  1.1316
   25SAPC  H14C 3260   6.005   3.467   6.093  0.9449 -0.3203 -0.7600
   25SAPC   C15 3261   5.879   3.484   5.840 -0.0552  1.2490  0.5460
   25SAPC  H15A 3262   5.958   3.502   5.768  0.1182 -2.1204 -0.2994
   25SAPC  H15B 3263   5.894   3.380   5.865 -0.4737  1.1102  0.2372
   25SAPC  H15C 3264   5.786   3.482   5.784 -0.1284 -0.1643  0.6853
   25SAPC   C11 3265   5.617   3.575   5.984  0.2400  0.1764 -0.2880
   25SAPC  H11A 3266   5.543   3.531   6.054 -0.6758  2.3715  0.2019
   25SAPC  H11B 3267   5.626   3.519   5.888 -1.3152  0.2772 -0.5228
   25SAPC     P 3268   5.512   3.821   6.053 -0.3311  0.2657 -0.2655
   25SAPC   O13 3269   5.529   3.948   5.985  0.1226 -0.3002 -0.6381
   25SAPC   O14 3270   5.375   3.779   6.087  0.3982  0.5070  0.0920
   25SAPC   O12 3271   5.577   3.706   5.958  0.3805 -0.2067  0.3369
   25SAPC   O11 3272   5.603   3.820   6.184 -0.4145 -0.3422  0.4870
   25SAPC    C1 3273   5.587   3.721   6.287 -0.4840  0.5119  0.5093
   25SAPC    HA 3274   5.520   3.639   6.253  1.8456 -1.7549  1.0943
   25SAPC    HB 3275   5.687   3.676   6.301 -0.4227 -0.0457 -1.3671
   25SAPC    C2 3276   5.532   3.775   6.414 -0.1938  0.5190 -0.2910
   25SAPC    HS 3277   5.430   3.816   6.402 -0.7272 -0.8333 -0.6651
   25SAPC   O21 3278   5.622   3.868   6.474 -0.0543 -0.1855 -0.4248
   25SAPC   C21 3279   5.593   4.000   6.447  0.8599 -0.7364  0.6694
   25SAPC   O22 3280   5.502   4.039   6.373  0.2804 -0.9612  0.2132
   25SAPC   C22 3281   5.695   4.097   6.504  0.1117  0.0048 -0.1750
   25SAPC   H2R 3282   5.692   4.095   6.615  1.6031  0.4846 -0.1051
   25SAPC   H2S 3283   5.797   4.075   6.468  0.0025  0.0234 -0.5006
   25SAPC    C3 3284   5.513   3.648   6.503 -0.8848 -0.4287 -0.2758
   25SAPC    HX 3285   5.604   3.586   6.487  1.2243  1.6126  2.5883
   25SAPC    HY 3286   5.428   3.587   6.468 -2.1580  1.0139  0.1789
   25SAPC   O31 3287   5.488   3.685   6.637 -0.2266  0.1034 -0.7937
   25SAPC   C31 3288   5.538   3.590   6.730 -0.2790  0.8635 -0.1592
   25SAPC   O32 3289   5.606   3.492   6.697  0.0848 -0.4440 -0.4714
   25SAPC   C32 3290   5.507   3.635   6.874  0.0383 -0.4813 -0.1962
   25SAPC   H2X 3291   5.397   3.636   6.890  0.0244  0.3003 -0.3164
   25SAPC   H2Y 3292   5.545   3.738   6.892  1.0282 -0.5055 -1.9418
   25SAPC   C23 3293   5.662   4.240   6.454 -0.0317  0.0839 -0.0573
   25SAPC   H3R 3294   5.556   4.266   6.475 -0.1063  0.0079 -0.3303
   25SAPC   H3S 3295   5.680   4.243   6.344 -1.5472  0.7383 -0.3119
   25SAPC   C24 3296   5.754   4.349   6.501 -0.0832  0.4583  0.6355
   25SAPC   H4R 3297   5.846   4.326   6.444 -2.1793 -0.7814 -2.4569
   25SAPC   H4S 3298   5.767   4.348   6.612  1.5218  0.5550  0.4790
   25SAPC   C25 3299   5.719   4.483   6.443  0.3229  0.1656 -0.5262
   25SAPC   H5R 3300   5.719   4.484   6.333  0.4951 -3.6874 -0.6978
   25SAPC   C26 3301   5.694   4.597   6.507 -0.6199 -0.4822  0.5938
   25SAPC   H6R 3302   5.653   4.679   6.446  0.9230  0.1314  0.3393
   25SAPC   C27 3303   5.706   4.622   6.656 -0.4975  0.1108 -1.7404
   25SAPC   H7R 3304   5.758   4.719   6.672 -0.1454 -0.5580  2.4318
   25SAPC   H7S 3305   5.775   4.547   6.700 -2.0856 -1.0063 -1.0767
   25SAPC   C28 3306   5.582   4.619   6.740 -0.5202 -0.0858 -0.5416
   25SAPC   H8R 3307   5.489   4.641   6.686  0.2084 -0.0864 -1.8227
   25SAPC   C29 3308   5.565   4.601   6.873  0.8501  0.4532  0.0878
   25SAPC   H9R 3309   5.461   4.610   6.908  0.8035  0.9475 -0.1649
   25SAPC  C210 3310   5.670   4.565   6.978 -0.1542  0.6037  0.3364
   25SAPC  H10R 3311   5.679   4.653   7.046 -0.6395  1.1182 -0.2569
   25SAPC  H10S 3312   5.766   4.552   6.925  0.1725 -0.7767  1.1914
   25SAPC  C211 3313   5.636   4.434   7.043 -0.5523 -0.1333 -0.7920
   25SAPC  H11R 3314   5.638   4.345   6.978 -0.9594 -0.7550  0.0268
   25SAPC  C212 3315   5.620   4.412   7.175  0.1602 -0.0849  0.3399
   25SAPC  H12R 3316   5.582   4.314   7.209 -0.5624  0.1904  0.3485
   25SAPC  C213 3317   5.601   4.509   7.285 -0.1776 -0.3048 -0.0735
   25SAPC  H13R 3318   5.584   4.444   7.374 -1.2125 -0.0119 -0.0402
   25SAPC  H13S 3319   5.503   4.560   7.273 -0.0626 -0.2460 -0.7619
   25SAPC  C214 3320   5.704   4.617   7.318 -0.4619 -0.3306 -0.4070
   25SAPC  H14R 3321   5.788   4.628   7.248  0.5612 -1.0510  0.6687
   25SAPC  C215 3322   5.720   4.684   7.438  0.5044 -0.2329 -0.1333
   25SAPC  H15R 3323   5.791   4.767   7.450  0.0204  0.0754  0.6419
   25SAPC  C216 3324   5.633   4.672   7.561  0.2835  0.9454  0.5620
   25SAPC  H16R 3325   5.600   4.567   7.565  1.3718  0.3934 -2.2827
   25SAPC  H16S 3326   5.542   4.735   7.552 -1.8176 -1.9726  0.2807
   25SAPC  C217 3327   5.705   4.710   7.691 -0.1269 -0.2537  0.6993
   25SAPC  H17R 3328   5.793   4.773   7.670 -0.7624  0.8227  1.1731
   25SAPC  H17S 3329   5.757   4.625   7.740  1.6720  0.6740  0.4626
   25SAPC  C218 3330   5.604   4.776   7.784  0.1226  0.8341 -0.9803
   25SAPC  H18R 3331   5.520   4.705   7.797  1.6663 -1.0509 -0.9042
   25SAPC  H18S 3332   5.568   4.868   7.732 -0.5358  0.9998 -0.2578
   25SAPC  C219 3333   5.640   4.807   7.935 -0.4051  0.5511  1.0138
   25SAPC  H19R 3334   5.722   4.882   7.933 -0.6456  0.8104  0.4404
   25SAPC  H19S 3335   5.686   4.718   7.983 -1.9435  0.2571  2.0226
   25SAPC  C220 3336   5.530   4.861   8.025  0.4939 -0.3302  0.9682
   25SAPC  H20R 3337   5.442   4.795   8.009 -0.4370  0.8900  0.8478
   25SAPC  H20S 3338   5.493   4.958   7.986  1.1378 -0.9273 -1.2491
   25SAPC  H20T 3339   5.567   4.869   8.130 -0.0275 -0.4106  1.1631
   25SAPC   C33 3340   5.573   3.551   6.989 -0.2044  0.2804 -0.3708
   25SAPC   H3X 3341   5.683   3.546   6.976 -0.2382 -1.7256 -0.2635
   25SAPC   H3Y 3342   5.518   3.455   6.977 -1.3162  0.7437  0.7884
   25SAPC   C34 3343   5.535   3.615   7.120 -0.5445  0.4141  0.4036
   25SAPC   H4X 3344   5.431   3.654   7.115 -1.2458 -1.4237  0.2232
   25SAPC   H4Y 3345   5.609   3.697   7.136  0.2249  0.4587 -2.6974
   25SAPC   C35 3346   5.555   3.531   7.244  0.4103 -0.4551 -0.3585
   25SAPC   H5X 3347   5.647   3.471   7.228  1.3295  1.0269 -0.8124
   25SAPC   H5Y 3348   5.468   3.462   7.257  1.2895 -1.7455 -1.0968
   25SAPC   C36 3349   5.574   3.606   7.375 -0.6922 -0.0624  0.0053
   25SAPC   H6X 3350   5.480   3.636   7.427 -0.6546  0.5232 -0.2556
   25SAPC   H6Y 3351   5.637   3.696   7.361  1.1799 -0.7855  2.9634
   25SAPC   C37 3352   5.672   3.529   7.472  0.2234 -1.0152  0.0264
   25SAPC   H7X 3353   5.773   3.520   7.427 -0.0878 -3.0732 -0.3644
   25SAPC   H7Y 3354   5.640   3.423   7.473  2.2454 -1.6747  1.1992
   25SAPC   C38 3355   5.674   3.583   7.617  0.6255  0.1081  0.3908
   25SAPC   H8X 3356   5.576   3.587   7.668 -0.4946  2.4737 -1.7403
   25SAPC   H8Y 3357   5.719   3.684   7.626  2.5699 -0.6363 -0.3481
   25SAPC   C39 3358   5.756   3.499   7.712 -0.2033 -0.6265 -0.9016
   25SAPC   H9X 3359   5.854   3.464   7.673  0.0304 -3.6289  1.9875
   25SAPC   H9Y 3360   5.714   3.397   7.726  1.1284 -1.0938 -0.0339
   25SAPC  C310 3361   5.770   3.556   7.862  0.5529 -0.1410  0.9888
   25SAPC  H10X 3362   5.670   3.593   7.896 -0.5531 -2.2204  0.1684
   25SAPC  H10Y 3363   5.842   3.640   7.866 -1.2130  1.6159 -1.1535
   25SAPC  C311 3364   5.811   3.449   7.961 -0.5435  0.1601  0.5289
   25SAPC  H11X 3365   5.902   3.394   7.926 -1.1613 -1.1361  0.8919
   25SAPC  H11Y 3366   5.728   3.376   7.959 -0.0594 -0.4024  0.4708
   25SAPC  C312 3367   5.828   3.496   8.101  0.1270 -0.7863  0.2118
   25SAPC  H12X 3368   5.735   3.546   8.135 -0.1284 -1.8045  1.0742
   25SAPC  H12Y 3369   5.916   3.562   8.115 -0.2102 -0.2710 -0.0444
   25SAPC  C313 3370   5.855   3.383   8.199  0.1275 -0.0628 -0.3255
   25SAPC  H13X 3371   5.958   3.343   8.187 -0.1874 -1.4441  1.3123
   25SAPC  H13Y 3372   5.789   3.297   8.175  1.5445 -1.1823 -0.3609
   25SAPC  C314 3373   5.831   3.438   8.340 -0.4957  0.0460 -0.3080
   25SAPC  H14X 3374   5.737   3.496   8.353 -0.1183  0.0152  4.1637
   25SAPC  H14Y 3375   5.915   3.503   8.371  0.1792 -1.0478  0.2061
   25SAPC  C315 3376   5.820   3.324   8.438  0.5359 -0.3511  0.2246
   25SAPC  H15X 3377   5.755   3.241   8.404  1.5203  0.5837 -4.6395
   25SAPC  H15Y 3378   5.773   3.371   8.527  3.3825 -0.4300  1.9046
   25SAPC  C316 3379   5.951   3.258   8.478 -0.3645  0.2036 -0.2190
   25SAPC  H16X 3380   6.022   3.343   8.490  0.0865 -0.2601  0.4963
   25SAPC  H16Y 3381   5.982   3.188   8.397 -0.9509 -0.4316  0.0912
   25SAPC  C317 3382   5.944   3.175   8.605  0.1098 -0.0867  0.4649
   25SAPC  H17X 3383   6.007   3.086   8.582  0.3557 -0.4295  2.3106
   25SAPC  H17Y 3384   5.841   3.139   8.625 -0.6836  0.2316 -2.5860
   25SAPC  C318 3385   5.997   3.253   8.733  0.1006 -0.5582  0.4812
   25SAPC  H18X 3386   5.936   3.213   8.817 -1.0173 -0.2734 -0.1924
   25SAPC  H18Y 3387   5.961   3.358   8.723 -1.5375 -1.1372  0.1244
   25SAPC  H18Z 3388   6.107   3.238   8.744  0.2161 -0.3157 -0.3333
   26SAPC     N 3389   5.290   5.324   6.236  0.2974  0.1826 -0.0044
   26SAPC   C12 3390   5.233   5.376   6.371  0.6825 -0.1212  0.0409
   26SAPC  H12A 3391   5.274   5.310   6.445  1.5184  0.9421  0.5468
   26SAPC  H12B 3392   5.126   5.361   6.363  0.7122 -0.8917  0.9481
   26SAPC   C13 3393   5.435   5.323   6.257  0.0927  0.0907  0.4926
   26SAPC  H13A 3394   5.459   5.257   6.340 -2.0130 -1.2762  0.0845
   26SAPC  H13B 3395   5.485   5.280   6.171 -1.4205  0.4613 -0.6097
   26SAPC  H13C 3396   5.482   5.419   6.267 -2.4974  1.5096 -0.1205
   26SAPC   C14 3397   5.243   5.185   6.204  0.2375  0.0788  0.3687
   26SAPC  H14A 3398   5.282   5.115   6.277  1.9823  1.4844  0.8689
   26SAPC  H14B 3399   5.137   5.169   6.215  0.3337  0.5686  2.5303
   26SAPC  H14C 3400   5.268   5.147   6.106 -1.1188  1.8279 -0.7204
   26SAPC   C15 3401   5.261   5.419   6.130  0.4303 -0.2231  0.2543
   26SAPC  H15A 3402   5.277   5.524   6.148 -1.2312  0.7073 -2.7969
   26SAPC  H15B 3403   5.321   5.397   6.043  1.6028 -0.6857  1.1688
   26SAPC  H15C 3404   5.154   5.421   6.113  0.3164 -1.5518  0.7277
   26SAPC   C11 3405   5.248   5.524   6.420  0.2347 -0.3300 -0.2318
   26SAPC  H11A 3406   5.356   5.547   6.421  0.1447  0.0903  0.8138
   26SAPC  H11B 3407   5.213   5.531   6.525  0.4916  0.6733 -0.2032
   26SAPC     P 3408   5.029   5.633   6.313 -0.3974 -0.1439  0.2943
   26SAPC   O13 3409   4.983   5.766   6.361 -0.4484 -0.0726 -0.1711
   26SAPC   O14 3410   4.989   5.600   6.174  0.8545 -0.0138  0.0104
   26SAPC   O12 3411   5.188   5.620   6.326 -0.1079 -0.0046 -0.2267
   26SAPC   O11 3412   4.966   5.523   6.402  1.0739 -0.4966 -0.0948
   26SAPC    C1 3413   4.832   5.557   6.456  0.1603  0.4758 -0.4722
   26SAPC    HA 3414   4.812   5.666   6.461 -0.0084  0.5948 -2.7177
   26SAPC    HB 3415   4.756   5.510   6.389 -0.7381  1.3399 -0.0857
   26SAPC    C2 3416   4.821   5.508   6.597 -0.0216  1.2315  0.4312
   26SAPC    HS 3417   4.722   5.518   6.645  0.0524  0.8409  0.6733
   26SAPC   O21 3418   4.915   5.573   6.682  0.1388 -0.5400 -0.6316
   26SAPC   C21 3419   4.880   5.689   6.724  0.2946 -0.1128  0.2077
   26SAPC   O22 3420   4.774   5.749   6.710 -0.1287 -0.0595 -1.0964
   26SAPC   C22 3421   4.994   5.736   6.812  1.1172 -0.1004 -0.7362
   26SAPC   H2R 3422   5.005   5.667   6.899  1.6503 -2.4046 -2.5556
   26SAPC   H2S 3423   5.086   5.730   6.750  0.6072 -1.4942 -1.3939
   26SAPC    C3 3424   4.847   5.350   6.597 -0.4733  0.4278  0.3807
   26SAPC    HX 3425   4.955   5.333   6.578 -0.3074  1.4412  0.3606
   26SAPC    HY 3426   4.793   5.294   6.518  0.1005 -2.2716  1.7936
   26SAPC   O31 3427   4.796   5.280   6.711  0.3912 -0.1987 -0.7279
   26SAPC   C31 3428   4.884   5.236   6.792  0.1056  0.1400  0.3142
   26SAPC   O32 3429   5.007   5.252   6.781  0.5591  0.3337 -0.2481
   26SAPC   C32 3430   4.817   5.153   6.905 -0.0146 -0.2864  0.1329
   26SAPC   H2X 3431   4.896   5.085   6.943 -3.1052 -4.3851 -0.0618
   26SAPC   H2Y 3432   4.739   5.088   6.861  0.8514 -0.2416 -1.5320
   26SAPC   C23 3433   4.986   5.889   6.849 -0.2450  0.7495  0.7036
   26SAPC   H3R 3434   4.910   5.898   6.929 -0.2123 -0.7500  0.9460
   26SAPC   H3S 3435   4.975   5.953   6.760  1.5124  1.2482  0.8025
   26SAPC   C24 3436   5.124   5.935   6.911 -0.9236 -0.0859  0.5777
   26SAPC   H4R 3437   5.126   6.043   6.936 -1.4048 -0.3911  1.9943
   26SAPC   H4S 3438   5.192   5.924   6.824 -1.3417  1.0981  0.0760
   26SAPC   C25 3439   5.163   5.853   7.028 -0.1084  0.1510  0.2315
   26SAPC   H5R 3440   5.208   5.755   7.009  1.8847  1.0010  0.2794
   26SAPC   C26 3441   5.155   5.904   7.158 -0.1320  0.6279  0.4575
   26SAPC   H6R 3442   5.204   5.838   7.232  1.1329 -0.9248 -1.6596
   26SAPC   C27 3443   5.109   6.038   7.199 -0.3149 -0.4544 -0.1820
   26SAPC   H7R 3444   5.070   6.087   7.108  2.4571 -1.4218 -2.0074
   26SAPC   H7S 3445   5.188   6.109   7.232 -0.6045  0.4380 -1.3304
   26SAPC   C28 3446   4.992   6.026   7.296  0.1906  0.1050  0.0387
   26SAPC   H8R 3447   4.906   5.978   7.246  2.1169 -1.2745 -2.1906
   26SAPC   C29 3448   4.982   6.084   7.417  0.6285 -0.0566  0.1439
   26SAPC   H9R 3449   4.900   6.074   7.489  1.0570  1.5654  0.9179
   26SAPC  C210 3450   5.084   6.170   7.488  0.2836  0.5664 -0.1651
   26SAPC  H10R 3451   5.043   6.232   7.570  0.9370  0.3847  0.2996
   26SAPC  H10S 3452   5.125   6.236   7.408  2.2358 -2.2011 -1.6474
   26SAPC  C211 3453   5.212   6.097   7.531  0.4405 -0.3230  0.5700
   26SAPC  H11R 3454   5.285   6.078   7.451 -0.0853 -0.7084  0.1770
   26SAPC  C212 3455   5.249   6.060   7.658 -0.3976  0.4469  0.0934
   26SAPC  H12R 3456   5.344   6.004   7.657 -0.3752  0.3365 -3.1404
   26SAPC  C213 3457   5.174   6.075   7.789  0.0332 -0.0858  0.9201
   26SAPC  H13R 3458   5.071   6.110   7.769  0.5789  0.3576 -1.3836
   26SAPC  H13S 3459   5.215   6.161   7.846  0.1264  1.9513 -2.0116
   26SAPC  C214 3460   5.173   5.952   7.870  0.1930 -0.1862  0.6227
   26SAPC  H14R 3461   5.152   5.862   7.810 -0.1324  0.3748 -0.1243
   26SAPC  C215 3462   5.202   5.932   8.000  0.2144 -0.3033 -0.2092
   26SAPC  H15R 3463   5.187   5.831   8.040 -0.3102  0.0732  0.5543
   26SAPC  C216 3464   5.239   6.047   8.086  0.9812  0.3495 -0.5391
   26SAPC  H16R 3465   5.156   6.075   8.154  2.2537  0.5440  0.9856
   26SAPC  H16S 3466   5.280   6.137   8.036  1.0362  0.7998  0.3112
   26SAPC  C217 3467   5.347   6.020   8.186 -0.2301  0.0159 -0.9944
   26SAPC  H17R 3468   5.367   5.911   8.195  0.4185 -0.0208 -2.5597
   26SAPC  H17S 3469   5.316   6.059   8.286 -0.7433  0.5644 -1.3653
   26SAPC  C218 3470   5.488   6.077   8.148  0.7274 -0.6216  0.4136
   26SAPC  H18R 3471   5.465   6.183   8.122  0.4561  0.0234  3.0510
   26SAPC  H18S 3472   5.536   6.020   8.065  1.7105  0.4460  0.2187
   26SAPC  C219 3473   5.592   6.070   8.266 -0.9705 -0.2207 -0.1848
   26SAPC  H19R 3474   5.588   5.971   8.315  1.6003  0.0235  0.6670
   26SAPC  H19S 3475   5.580   6.146   8.346 -2.8813 -1.4285  0.7222
   26SAPC  C220 3476   5.738   6.100   8.220  0.2827  0.1136  1.1748
   26SAPC  H20R 3477   5.750   6.206   8.188  3.1084 -0.2233  0.8850
   26SAPC  H20S 3478   5.749   6.035   8.130 -0.7002  1.3639  0.1174
   26SAPC  H20T 3479   5.807   6.079   8.305 -0.7000 -1.1991  1.6843
   26SAPC   C33 3480   4.763   5.241   7.021 -0.1479 -0.0247 -0.2363
   26SAPC   H3X 3481   4.661   5.207   7.049  0.2850 -2.3544 -1.3434
   26SAPC   H3Y 3482   4.750   5.347   6.987 -1.4746  0.1901  0.8509
   26SAPC   C34 3483   4.855   5.245   7.147  0.7660  0.2452 -0.0987
   26SAPC   H4X 3484   4.919   5.335   7.137 -0.3382  1.0002 -0.6030
   26SAPC   H4Y 3485   4.907   5.147   7.146 -0.3339 -0.3689  0.6288
   26SAPC   C35 3486   4.776   5.256   7.280 -0.8590  0.0051  0.2955
   26SAPC   H5X 3487   4.706   5.170   7.287  1.8358 -2.5714 -1.3674
   26SAPC   H5Y 3488   4.714   5.348   7.278 -1.1393 -0.0014  3.5248
   26SAPC   C36 3489   4.864   5.258   7.406 -0.6366 -0.1804  0.3004
   26SAPC   H6X 3490   4.950   5.327   7.391  1.3778 -2.7114 -0.7608
   26SAPC   H6Y 3491   4.907   5.161   7.438  3.3235  1.6139  0.9928
   26SAPC   C37 3492   4.772   5.300   7.520  0.6537  0.1375 -0.0136
   26SAPC   H7X 3493   4.720   5.205   7.543  0.4114 -0.0934 -1.4296
   26SAPC   H7Y 3494   4.699   5.377   7.485  0.2461 -0.6134 -0.8457
   26SAPC   C38 3495   4.852   5.361   7.635  0.3143  0.3775  0.4152
   26SAPC   H8X 3496   4.893   5.460   7.603  0.6035 -0.0991 -0.7371
   26SAPC   H8Y 3497   4.941   5.299   7.658 -1.5566 -1.9946  1.7812
   26SAPC   C39 3498   4.762   5.383   7.760  0.6362  0.0858  0.7018
   26SAPC   H9X 3499   4.713   5.293   7.804 -0.0867  1.1897  2.2583
   26SAPC   H9Y 3500   4.694   5.463   7.726 -0.6106 -1.9624 -2.0558
   26SAPC  C310 3501   4.846   5.436   7.881 -0.3721 -0.1350 -0.1206
   26SAPC  H10X 3502   4.915   5.518   7.850 -2.5003  1.7273 -0.2287
   26SAPC  H10Y 3503   4.911   5.357   7.924 -2.2768 -1.4864  0.4095
   26SAPC  C311 3504   4.766   5.504   7.991 -0.1389 -0.1240  0.7866
   26SAPC  H11X 3505   4.718   5.426   8.054 -2.3918  0.8137  0.3467
   26SAPC  H11Y 3506   4.686   5.574   7.959 -0.0066 -0.0889  0.5318
   26SAPC  C312 3507   4.859   5.577   8.091 -0.1365 -0.5037  0.7049
   26SAPC  H12X 3508   4.912   5.654   8.031 -1.9183  0.6132  0.4853
   26SAPC  H12Y 3509   4.933   5.508   8.137  2.5756  1.5164 -0.3340
   26SAPC  C313 3510   4.783   5.667   8.192  0.4381  0.4142  0.8783
   26SAPC  H13X 3511   4.725   5.732   8.123 -0.7971 -3.3150 -1.9651
   26SAPC  H13Y 3512   4.858   5.720   8.254  0.9486 -1.8451  2.3242
   26SAPC  C314 3513   4.690   5.586   8.289  0.1064 -0.6583  0.7224
   26SAPC  H14X 3514   4.624   5.523   8.225 -0.9390  0.5231  0.5874
   26SAPC  H14Y 3515   4.617   5.655   8.337  0.9087  0.4452  0.3785
   26SAPC  C315 3516   4.765   5.511   8.396  0.0323 -0.4015  0.1951
   26SAPC  H15X 3517   4.843   5.582   8.429  0.3317 -0.6867  0.1031
   26SAPC  H15Y 3518   4.822   5.419   8.370  0.2528 -1.0378  2.6751
   26SAPC  C316 3519   4.670   5.471   8.507  0.1207 -0.1511  0.5949
   26SAPC  H16X 3520   4.623   5.566   8.539 -0.6946 -0.2894 -0.1701
   26SAPC  H16Y 3521   4.712   5.423   8.598 -1.2757  0.9940  1.8985
   26SAPC  C317 3522   4.571   5.360   8.462 -0.0099  0.1494  0.0874
   26SAPC  H17X 3523   4.621   5.267   8.427 -2.5106 -1.8049  1.4493
   26SAPC  H17Y 3524   4.516   5.399   8.374  0.7845  2.0019  0.3422
   26SAPC  C318 3525   4.475   5.326   8.573 -0.0575 -0.1335 -0.4243
   26SAPC  H18X 3526   4.441   5.417   8.628 -0.7732 -1.2945  1.1328
   26SAPC  H18Y 3527   4.535   5.268   8.647  1.6567  1.3481 -0.5792
   26SAPC  H18Z 3528   4.390   5.265   8.536 -0.7425  1.4974 -1.6683
   27SAPC     N 3529   2.203   5.861   6.677  0.3017 -0.1185 -0.1418
   27SAPC   C12 3530   2.290   5.805   6.567  0.6575  0.6063 -0.0561
   27SAPC  H12A 3531   2.312   5.883   6.495  2.0345  0.5560  0.2817
   27SAPC  H12B 3532   2.243   5.722   6.516 -0.1687  0.2181  1.2866
   27SAPC   C13 3533   2.190   5.765   6.796  0.0256  0.0106  0.4490
   27SAPC  H13A 3534   2.289   5.742   6.833  0.3078  0.4217 -0.0486
   27SAPC  H13B 3535   2.124   5.791   6.878  0.2386  1.8986  0.0520
   27SAPC  H13C 3536   2.150   5.669   6.765  0.5547  0.2278 -0.9719
   27SAPC   C14 3537   2.265   5.980   6.732  0.3408  0.3899 -0.7294
   27SAPC  H14A 3538   2.267   6.055   6.654 -0.6420 -0.7298 -1.8821
   27SAPC  H14B 3539   2.216   6.016   6.821 -0.3278 -1.3768 -0.3615
   27SAPC  H14C 3540   2.369   5.960   6.757 -0.2560 -0.7324  0.9998
   27SAPC   C15 3541   2.058   5.869   6.627 -0.2638  0.1754 -0.5117
   27SAPC  H15A 3542   2.046   5.925   6.535 -0.0705 -2.9295 -2.5796
   27SAPC  H15B 3543   2.023   5.771   6.598 -0.1720 -0.1257  0.3625
   27SAPC  H15C 3544   2.001   5.906   6.711  0.8483  1.4567 -0.2728
   27SAPC   C11 3545   2.433   5.754   6.602 -0.2148 -0.3330  0.0107
   27SAPC  H11A 3546   2.473   5.731   6.501 -0.1593  1.7691 -0.4897
   27SAPC  H11B 3547   2.420   5.666   6.669 -2.7899  0.3100  0.4861
   27SAPC     P 3548   2.609   5.831   6.772  0.2568  0.1388 -0.0761
   27SAPC   O13 3549   2.723   5.750   6.720  0.2559  0.1835 -0.3738
   27SAPC   O14 3550   2.646   5.962   6.828 -0.2754 -0.6852 -0.0468
   27SAPC   O12 3551   2.512   5.863   6.654  0.4788  0.0176  0.1791
   27SAPC   O11 3552   2.513   5.756   6.879 -0.0664  0.0880 -0.2368
   27SAPC    C1 3553   2.550   5.618   6.917 -0.2025 -0.2321  0.0341
   27SAPC    HA 3554   2.572   5.554   6.829 -1.1519 -1.0887  0.3929
   27SAPC    HB 3555   2.642   5.613   6.978  0.5025  1.3806 -0.8518
   27SAPC    C2 3556   2.432   5.554   6.998 -0.7817  0.2478  0.2860
   27SAPC    HS 3557   2.337   5.570   6.942 -0.6757 -0.6444 -0.1622
   27SAPC   O21 3558   2.420   5.626   7.122 -0.5997  0.6748 -0.2571
   27SAPC   C21 3559   2.311   5.598   7.192  0.8079  0.3692 -0.2431
   27SAPC   O22 3560   2.213   5.541   7.151 -0.0389  0.1999 -0.5141
   27SAPC   C22 3561   2.324   5.646   7.340  0.0553 -0.5407 -0.0684
   27SAPC   H2R 3562   2.376   5.564   7.393 -0.5270  0.2455  1.7831
   27SAPC   H2S 3563   2.387   5.737   7.329  0.9429 -1.2699 -1.3250
   27SAPC    C3 3564   2.446   5.402   7.004  0.1475  0.1324  0.6320
   27SAPC    HX 3565   2.431   5.373   6.898 -1.8455 -2.4128  1.4854
   27SAPC    HY 3566   2.365   5.353   7.063  0.3995  1.3056  2.0128
   27SAPC   O31 3567   2.575   5.366   7.042 -0.4475  0.1990  0.3623
   27SAPC   C31 3568   2.597   5.352   7.172 -0.8896  0.1679  0.6105
   27SAPC   O32 3569   2.509   5.369   7.251 -0.1888 -0.2630 -0.1057
   27SAPC   C32 3570   2.744   5.342   7.206  0.0375 -0.2523  0.5248
   27SAPC   H2X 3571   2.787   5.445   7.200  0.1797 -0.3792 -0.8817
   27SAPC   H2Y 3572   2.803   5.290   7.128  1.3471 -0.1317  1.3914
   27SAPC   C23 3573   2.201   5.663   7.417  0.1833 -0.6466 -0.5474
   27SAPC   H3R 3574   2.221   5.609   7.512 -1.0565  0.4556  0.3790
   27SAPC   H3S 3575   2.113   5.623   7.362 -1.0800 -0.3895  1.1772
   27SAPC   C24 3576   2.182   5.812   7.454 -0.9686  0.6210 -0.2118
   27SAPC   H4R 3577   2.167   5.884   7.370 -2.1165  2.5829  1.5741
   27SAPC   H4S 3578   2.271   5.842   7.513  0.2749 -1.1360 -1.1079
   27SAPC   C25 3579   2.068   5.825   7.553  0.4102 -0.2363 -0.4692
   27SAPC   H5R 3580   1.974   5.832   7.497  0.6055  1.5604 -0.6267
   27SAPC   C26 3581   2.069   5.812   7.690  1.1554  1.1567  0.3842
   27SAPC   H6R 3582   1.978   5.845   7.742 -0.0744  1.1710 -1.6265
   27SAPC   C27 3583   2.189   5.778   7.782  0.2388 -0.0704  0.6919
   27SAPC   H7R 3584   2.197   5.869   7.845  2.0878 -0.1190  0.5676
   27SAPC   H7S 3585   2.281   5.775   7.721  0.0909  1.8879  0.3126
   27SAPC   C28 3586   2.174   5.659   7.872 -0.0420 -0.0940 -0.5006
   27SAPC   H8R 3587   2.222   5.562   7.852 -0.9082 -1.0451  1.6754
   27SAPC   C29 3588   2.097   5.662   7.983 -0.1635 -0.2942  0.4139
   27SAPC   H9R 3589   2.069   5.564   8.024  2.4787 -0.9130  0.8686
   27SAPC  C210 3590   2.014   5.782   8.036  0.2388  0.3785 -0.1674
   27SAPC  H10R 3591   1.907   5.762   8.014  0.9591 -1.3922 -2.4810
   27SAPC  H10S 3592   2.033   5.879   7.984  1.1125  0.3297  0.0371
   27SAPC  C211 3593   2.029   5.818   8.186 -0.5086  0.7252  0.0964
   27SAPC  H11R 3594   2.134   5.833   8.217  0.1577 -1.8850 -0.6687
   27SAPC  C212 3595   1.933   5.826   8.274  1.4081  0.8092  0.3756
   27SAPC  H12R 3596   1.961   5.851   8.377  0.3273  1.6127  0.4986
   27SAPC  C213 3597   1.783   5.813   8.257 -0.9228  0.1801 -0.4123
   27SAPC  H13R 3598   1.758   5.706   8.269  0.1265 -0.0836 -0.4497
   27SAPC  H13S 3599   1.760   5.834   8.150 -2.8140 -2.1691 -0.5458
   27SAPC  C214 3600   1.712   5.912   8.354  0.2944  0.0488  0.5057
   27SAPC  H14R 3601   1.709   6.012   8.309 -1.9873 -0.1139  0.1661
   27SAPC  C215 3602   1.628   5.878   8.455  0.5731 -0.3010 -0.3779
   27SAPC  H15R 3603   1.585   5.958   8.517 -1.9270 -2.1698  0.4932
   27SAPC  C216 3604   1.621   5.736   8.511  0.2074  0.1620 -0.5458
   27SAPC  H16R 3605   1.688   5.666   8.456  0.9488  1.0822 -0.8386
   27SAPC  H16S 3606   1.518   5.704   8.483  0.7053 -1.9538 -0.1269
   27SAPC  C217 3607   1.634   5.715   8.664 -0.5338 -0.7918  0.8306
   27SAPC  H17R 3608   1.609   5.610   8.689  0.7717 -0.5316  3.6080
   27SAPC  H17S 3609   1.563   5.779   8.720 -1.9483 -0.6239 -1.0630
   27SAPC  C218 3610   1.776   5.746   8.713 -0.6732  0.5943  0.5067
   27SAPC  H18R 3611   1.782   5.712   8.819 -0.7749 -1.2123 -0.0436
   27SAPC  H18S 3612   1.801   5.853   8.700 -1.5155  0.8131  0.5906
   27SAPC  C219 3613   1.882   5.668   8.639 -0.3314  0.0322  0.1087
   27SAPC  H19R 3614   1.881   5.688   8.530 -0.8931  1.1072  0.2979
   27SAPC  H19S 3615   1.862   5.559   8.651 -1.7204  0.4083  1.5088
   27SAPC  C220 3616   2.024   5.706   8.679  1.3033  0.4583  0.1771
   27SAPC  H20R 3617   2.033   5.685   8.788 -0.9166 -2.6059 -0.0884
   27SAPC  H20S 3618   2.046   5.811   8.652 -0.4610  0.5650 -1.0314
   27SAPC  H20T 3619   2.104   5.645   8.632  0.3625 -0.8049  0.1736
   27SAPC   C33 3620   2.773   5.260   7.339 -0.1684  0.6480 -0.6106
   27SAPC   H3X 3621   2.741   5.154   7.331  2.4780 -0.6573  3.2183
   27SAPC   H3Y 3622   2.733   5.322   7.422  0.6762  1.8275 -1.0597
   27SAPC   C34 3623   2.929   5.257   7.365 -0.0933  0.3794 -0.6607
   27SAPC   H4X 3624   2.975   5.335   7.300  0.9859 -0.5490 -1.0579
   27SAPC   H4Y 3625   2.968   5.159   7.333 -2.1940 -1.4131  1.8525
   27SAPC   C35 3626   2.974   5.276   7.518  0.0413  0.3318  0.1995
   27SAPC   H5X 3627   2.956   5.183   7.574  0.6435  0.4123  0.5389
   27SAPC   H5Y 3628   2.915   5.361   7.559 -0.7549  1.0057 -2.1632
   27SAPC   C36 3629   3.118   5.310   7.540  0.3550  0.0277  0.0092
   27SAPC   H6X 3630   3.139   5.416   7.511  0.9425 -0.2625 -0.6519
   27SAPC   H6Y 3631   3.186   5.251   7.475  2.4883 -0.4582  2.4699
   27SAPC   C37 3632   3.162   5.282   7.683 -0.6560 -0.3501 -0.0006
   27SAPC   H7X 3633   3.270   5.259   7.689 -0.7974 -1.4994 -1.2921
   27SAPC   H7Y 3634   3.131   5.180   7.715  1.3067 -1.3835 -1.2027
   27SAPC   C38 3635   3.109   5.372   7.797 -0.5542  0.0194 -0.1226
   27SAPC   H8X 3636   3.003   5.344   7.810 -1.0113  0.5523 -2.2962
   27SAPC   H8Y 3637   3.115   5.474   7.753  0.6685 -0.6606 -1.6667
   27SAPC   C39 3638   3.183   5.344   7.928  0.2471  0.4118 -0.6156
   27SAPC   H9X 3639   3.291   5.366   7.909  0.4561  0.2218  0.2853
   27SAPC   H9Y 3640   3.159   5.238   7.951 -1.4578  0.9299  0.1324
   27SAPC  C310 3641   3.143   5.437   8.047  0.1107  0.5700 -0.5588
   27SAPC  H10X 3642   3.055   5.389   8.095  1.2344  0.1434  1.1681
   27SAPC  H10Y 3643   3.124   5.543   8.022 -0.2813  0.2770 -1.5506
   27SAPC  C311 3644   3.238   5.410   8.161 -0.0759  0.0874  0.5366
   27SAPC  H11X 3645   3.340   5.425   8.119  0.3071 -2.6654  0.2695
   27SAPC  H11Y 3646   3.228   5.302   8.185  1.2378 -0.4247 -1.0293
   27SAPC  C312 3647   3.218   5.490   8.286 -0.1583  0.2053  0.1641
   27SAPC  H12X 3648   3.131   5.459   8.347 -0.1876  0.3997  0.2237
   27SAPC  H12Y 3649   3.196   5.597   8.265  0.0095  0.7719  2.5757
   27SAPC  C313 3650   3.344   5.488   8.368 -0.2068  0.7241 -0.1165
   27SAPC  H13X 3651   3.419   5.528   8.296  0.7322  0.3618  0.6404
   27SAPC  H13Y 3652   3.352   5.379   8.388 -0.7086  0.8895  1.0305
   27SAPC  C314 3653   3.331   5.569   8.495 -0.3638 -0.1570 -0.4602
   27SAPC  H14X 3654   3.247   5.528   8.555 -1.0160  2.0617  0.2368
   27SAPC  H14Y 3655   3.295   5.671   8.469 -0.0142 -0.0464 -0.5087
   27SAPC  C315 3656   3.452   5.558   8.587 -0.6833 -0.1527  0.0052
   27SAPC  H15X 3657   3.545   5.556   8.526 -0.8060 -2.5207 -0.1782
   27SAPC  H15Y 3658   3.459   5.455   8.628  0.1605 -0.6223 -1.2724
   27SAPC  C316 3659   3.460   5.663   8.701 -0.4242 -0.8748  0.3610
   27SAPC  H16X 3660   3.379   5.654   8.776  0.2122  3.8848  1.9615
   27SAPC  H16Y 3661   3.441   5.762   8.653  0.2979 -0.2182  1.3742
   27SAPC  C317 3662   3.597   5.660   8.774  0.1384  0.3165  0.3421
   27SAPC  H17X 3663   3.630   5.757   8.818 -1.1365 -0.1504  2.4878
   27SAPC  H17Y 3664   3.675   5.650   8.696 -1.0206  1.8417 -1.0929
   27SAPC  C318 3665   3.613   5.555   8.885 -0.0212  0.2344  0.2355
   27SAPC  H18X 3666   3.701   5.581   8.948  1.5229 -2.1465 -0.7798
   27SAPC  H18Y 3667   3.628   5.456   8.838  1.9901  0.7840 -0.3621
   27SAPC  H18Z 3668   3.521   5.555   8.949 -0.2595 -0.1516 -0.1012
   28SAPC     N 3669   2.307   2.516   5.914  0.2687  0.1003 -0.1853
   28SAPC   C12 3670   2.353   2.574   6.042 -0.1208  0.0220  0.0427
   28SAPC  H12A 3671   2.361   2.680   6.027  0.1996  0.2324  1.5512
   28SAPC  H12B 3672   2.451   2.532   6.063  0.6058  0.8869 -1.4246
   28SAPC   C13 3673   2.178   2.583   5.862  0.4445  0.9564 -0.8034
   28SAPC  H13A 3674   2.186   2.691   5.852 -0.8057  0.8903 -3.4330
   28SAPC  H13B 3675   2.166   2.541   5.763 -2.9588  0.2384 -0.2069
   28SAPC  H13C 3676   2.093   2.576   5.928 -0.5709 -0.2585 -2.1773
   28SAPC   C14 3677   2.410   2.533   5.809 -0.1106 -0.3491 -0.3986
   28SAPC  H14A 3678   2.513   2.506   5.829  0.3953  0.0532 -2.2360
   28SAPC  H14B 3679   2.369   2.488   5.720  3.4736 -0.5370 -2.1112
   28SAPC  H14C 3680   2.417   2.635   5.774  1.5416 -0.4005 -0.2854
   28SAPC   C15 3681   2.277   2.375   5.937  0.1993  0.3380 -0.1356
   28SAPC  H15A 3682   2.366   2.315   5.949 -0.4825 -0.7095 -0.1255
   28SAPC  H15B 3683   2.219   2.364   6.027 -0.3439  1.2827 -0.3590
   28SAPC  H15C 3684   2.239   2.330   5.847  1.5079 -1.2024  0.0405
   28SAPC   C11 3685   2.265   2.555   6.171 -0.3681  0.1999  0.7682
   28SAPC  H11A 3686   2.158   2.562   6.145 -1.2927 -0.9163  3.8886
   28SAPC  H11B 3687   2.284   2.636   6.246  0.4565 -0.2582  1.0731
   28SAPC     P 3688   2.384   2.382   6.324  0.0445 -0.1425  0.2724
   28SAPC   O13 3689   2.413   2.241   6.295 -0.7118  0.0628  0.0748
   28SAPC   O14 3690   2.496   2.476   6.331 -0.5859  0.7014  0.3512
   28SAPC   O12 3691   2.278   2.426   6.218  0.4894  0.8934  0.1087
   28SAPC   O11 3692   2.298   2.385   6.454 -0.0340  0.0836 -0.1296
   28SAPC    C1 3693   2.280   2.503   6.539  0.4165  0.3235  0.4398
   28SAPC    HA 3694   2.288   2.598   6.483  1.6046  0.5711  1.0065
   28SAPC    HB 3695   2.178   2.501   6.585  1.0389  0.5019  1.8723
   28SAPC    C2 3696   2.370   2.512   6.664  0.4805  0.2611  1.0441
   28SAPC    HS 3697   2.477   2.500   6.638 -0.0424 -2.4705 -0.1349
   28SAPC   O21 3698   2.335   2.406   6.752 -0.2769 -0.2051  0.1040
   28SAPC   C21 3699   2.431   2.386   6.848 -0.2669  0.4690  0.1276
   28SAPC   O22 3700   2.542   2.442   6.851  0.4948  0.2155  0.3155
   28SAPC   C22 3701   2.381   2.297   6.957  0.2837 -0.4635 -0.0104
   28SAPC   H2R 3702   2.328   2.216   6.904 -1.1088 -2.0248  3.4306
   28SAPC   H2S 3703   2.453   2.245   7.023  1.0590 -1.1172 -1.3480
   28SAPC    C3 3704   2.347   2.656   6.732 -0.2564 -0.0058  0.0973
   28SAPC    HX 3705   2.279   2.639   6.818  0.5402  2.3330  1.2768
   28SAPC    HY 3706   2.316   2.728   6.654 -1.1247 -0.8222 -0.3343
   28SAPC   O31 3707   2.480   2.696   6.790 -0.0572 -0.4620  0.1691
   28SAPC   C31 3708   2.479   2.813   6.850  0.4181  0.0085  0.0374
   28SAPC   O32 3709   2.376   2.881   6.862  0.0063 -0.4024  0.4422
   28SAPC   C32 3710   2.619   2.845   6.907 -0.3493  0.1957  0.2025
   28SAPC   H2X 3711   2.620   2.956   6.904 -1.6530  0.2044 -0.6200
   28SAPC   H2Y 3712   2.691   2.803   6.833  1.1349 -0.0513  1.7158
   28SAPC   C23 3713   2.282   2.376   7.044  0.4349 -0.3299  0.2563
   28SAPC   H3R 3714   2.214   2.305   7.096 -1.2363  1.1666  0.2026
   28SAPC   H3S 3715   2.202   2.424   6.984  1.8969  0.2989 -1.2603
   28SAPC   C24 3716   2.358   2.476   7.134 -0.2846 -0.7834  0.0868
   28SAPC   H4R 3717   2.414   2.426   7.216 -0.7768  2.2032  2.4068
   28SAPC   H4S 3718   2.438   2.523   7.074 -0.3881 -1.4445 -0.5860
   28SAPC   C25 3719   2.269   2.578   7.194  0.3834  0.2602 -0.4070
   28SAPC   H5R 3720   2.208   2.637   7.124 -0.9908 -0.3849  0.2132
   28SAPC   C26 3721   2.233   2.595   7.324  0.4844 -0.3706 -1.0087
   28SAPC   H6R 3722   2.156   2.672   7.340  0.3186 -0.6323 -0.5315
   28SAPC   C27 3723   2.272   2.522   7.449  0.3645 -0.1490 -0.2868
   28SAPC   H7R 3724   2.297   2.419   7.415  0.7895  0.3883 -1.6788
   28SAPC   H7S 3725   2.191   2.532   7.524  1.2469  2.6099  0.4095
   28SAPC   C28 3726   2.393   2.589   7.514 -0.9526  0.2101  1.2126
   28SAPC   H8R 3727   2.456   2.655   7.452 -2.6890  0.5287 -0.3195
   28SAPC   C29 3728   2.410   2.586   7.645  0.0504  0.6190 -0.4972
   28SAPC   H9R 3729   2.507   2.625   7.680  0.0805  0.0399  0.0852
   28SAPC  C210 3730   2.335   2.519   7.759  0.2093  0.1449 -0.4866
   28SAPC  H10R 3731   2.245   2.473   7.714 -0.1454 -0.3245  0.6599
   28SAPC  H10S 3732   2.305   2.590   7.839 -0.3967 -1.4485  0.7529
   28SAPC  C211 3733   2.429   2.410   7.817 -0.5967  0.0152  0.1824
   28SAPC  H11R 3734   2.460   2.326   7.752 -2.4224 -0.1392 -0.5305
   28SAPC  C212 3735   2.481   2.414   7.942 -0.7852  0.6019  0.3701
   28SAPC  H12R 3736   2.559   2.341   7.969 -0.9812  0.0710 -0.4396
   28SAPC  C213 3737   2.450   2.524   8.046 -0.0268  0.2340 -0.3907
   28SAPC  H13R 3738   2.353   2.503   8.096 -1.3195  2.7803 -1.6188
   28SAPC  H13S 3739   2.423   2.618   7.993  1.6212  1.3424  0.6416
   28SAPC  C214 3740   2.560   2.566   8.144  0.1965  0.6337 -0.0684
   28SAPC  H14R 3741   2.663   2.566   8.104  0.3467 -1.7373  0.2152
   28SAPC  C215 3742   2.538   2.594   8.275 -0.5823 -0.2754  0.0528
   28SAPC  H15R 3743   2.628   2.631   8.326  0.4478  0.9030 -2.4623
   28SAPC  C216 3744   2.407   2.597   8.352 -0.1792 -0.4036 -0.5150
   28SAPC  H16R 3745   2.321   2.646   8.301  0.6637  0.9544 -0.6481
   28SAPC  H16S 3746   2.438   2.661   8.437  0.2822 -2.7994  1.2463
   28SAPC  C217 3747   2.367   2.452   8.394 -0.1272  0.2952  0.6613
   28SAPC  H17R 3748   2.359   2.401   8.296 -1.3806 -0.2470  1.0277
   28SAPC  H17S 3749   2.261   2.451   8.426 -0.4324  2.2376 -0.1459
   28SAPC  C218 3750   2.454   2.394   8.498 -1.2333  0.5815 -0.1673
   28SAPC  H18R 3751   2.458   2.444   8.596  0.8116  0.2508 -0.0307
   28SAPC  H18S 3752   2.555   2.383   8.453 -1.9210 -2.4523 -1.2203
   28SAPC  C219 3753   2.419   2.247   8.532 -0.7304 -0.7587 -0.3420
   28SAPC  H19R 3754   2.325   2.250   8.591 -0.3054  0.4407  0.3072
   28SAPC  H19S 3755   2.500   2.208   8.597 -0.7599 -0.5215 -0.1612
   28SAPC  C220 3756   2.388   2.145   8.420  0.1591  0.0956  0.8636
   28SAPC  H20R 3757   2.476   2.133   8.354 -0.5730  2.8548 -0.7700
   28SAPC  H20S 3758   2.312   2.194   8.356  2.1152  1.2740 -0.6626
   28SAPC  H20T 3759   2.354   2.050   8.466 -0.4008  0.0516  0.3718
   28SAPC   C33 3760   2.656   2.801   7.053 -0.9483 -0.2497  0.7936
   28SAPC   H3X 3761   2.758   2.843   7.067  0.9671 -2.8167 -3.5989
   28SAPC   H3Y 3762   2.671   2.691   7.055  1.8571  0.0754  1.4168
   28SAPC   C34 3763   2.559   2.852   7.164 -1.5269 -0.4410 -0.2692
   28SAPC   H4X 3764   2.454   2.833   7.134 -1.5744 -0.5372 -0.0457
   28SAPC   H4Y 3765   2.576   2.961   7.150 -2.2570 -0.5179 -1.9450
   28SAPC   C35 3766   2.611   2.833   7.304  0.1740  0.0906 -0.0111
   28SAPC   H5X 3767   2.714   2.875   7.311 -0.1641  1.1790 -1.1938
   28SAPC   H5Y 3768   2.596   2.727   7.333  0.1106  0.0763 -0.0993
   28SAPC   C36 3769   2.531   2.917   7.400  0.1400 -0.8858 -0.1835
   28SAPC   H6X 3770   2.422   2.898   7.396 -0.6993  1.9903  3.1390
   28SAPC   H6Y 3771   2.543   3.025   7.376  1.6324 -1.0149 -0.1292
   28SAPC   C37 3772   2.574   2.896   7.552 -0.1959 -0.2508  0.8192
   28SAPC   H7X 3773   2.599   2.788   7.556  1.0540 -0.2043 -2.3177
   28SAPC   H7Y 3774   2.490   2.917   7.622 -2.8651 -1.9092 -1.6793
   28SAPC   C38 3775   2.701   2.968   7.590  0.4868  0.3046  0.0002
   28SAPC   H8X 3776   2.695   3.079   7.583 -2.2439  0.1123 -3.3640
   28SAPC   H8Y 3777   2.789   2.939   7.528 -0.5415 -3.0030 -0.0562
   28SAPC   C39 3778   2.723   2.939   7.734 -0.0017 -0.8782  0.1166
   28SAPC   H9X 3779   2.832   2.942   7.758 -0.1458  1.9905  0.7029
   28SAPC   H9Y 3780   2.692   2.835   7.758 -1.7325 -0.0286  1.8289
   28SAPC  C310 3781   2.654   3.033   7.833  1.1406 -0.2989 -0.1254
   28SAPC  H10X 3782   2.544   3.023   7.830  1.3217 -2.9147 -0.8380
   28SAPC  H10Y 3783   2.673   3.131   7.786 -1.0957 -0.1885 -0.9122
   28SAPC  C311 3784   2.712   3.030   7.975 -0.8736 -1.0074 -0.3664
   28SAPC  H11X 3785   2.822   3.039   7.984 -0.8648 -0.8758 -0.5851
   28SAPC  H11Y 3786   2.689   2.935   8.026  0.6413 -1.1896  0.0213
   28SAPC  C312 3787   2.649   3.137   8.064 -0.2898  0.1049 -0.2352
   28SAPC  H12X 3788   2.540   3.134   8.045 -0.3341 -2.0353  0.1338
   28SAPC  H12Y 3789   2.685   3.239   8.036 -0.1355  0.9516  2.6815
   28SAPC  C313 3790   2.676   3.123   8.209 -0.6546  0.3761 -0.4065
   28SAPC  H13X 3791   2.783   3.132   8.236 -0.3333 -1.3185 -0.9936
   28SAPC  H13Y 3792   2.639   3.024   8.245  0.3167 -0.5123 -1.7368
   28SAPC  C314 3793   2.604   3.230   8.292  0.1727 -0.3105 -0.2917
   28SAPC  H14X 3794   2.649   3.327   8.263 -1.0176  0.4618  0.3728
   28SAPC  H14Y 3795   2.626   3.214   8.400 -0.8154  0.5694  0.0595
   28SAPC  C315 3796   2.448   3.232   8.287 -0.6505 -0.0121  0.0333
   28SAPC  H15X 3797   2.414   3.251   8.183 -1.2627 -0.6230  0.1180
   28SAPC  H15Y 3798   2.418   3.331   8.330  1.7991  1.4794 -1.4557
   28SAPC  C316 3799   2.379   3.109   8.346 -0.8467 -0.2069  0.5038
   28SAPC  H16X 3800   2.411   3.025   8.280 -2.0885  1.1413 -1.9623
   28SAPC  H16Y 3801   2.272   3.126   8.322 -0.1290  2.2873 -1.3360
   28SAPC  C317 3802   2.420   3.086   8.492 -0.4094  0.3444  0.8802
   28SAPC  H17X 3803   2.403   3.183   8.544 -1.7611  1.7296 -1.9576
   28SAPC  H17Y 3804   2.529   3.063   8.494 -0.2347  1.0460 -0.0239
   28SAPC  C318 3805   2.349   2.977   8.560  0.7970  0.2133  0.1572
   28SAPC  H18X 3806   2.357   2.880   8.507  0.4254 -1.7235  3.3687
   28SAPC  H18Y 3807   2.242   3.004   8.561  0.7219 -0.0778  1.2971
   28SAPC  H18Z 3808   2.375   2.948   8.664 -0.6505 -1.1516  0.1786
   29SAPC     N 3809   4.450   5.903   6.430 -0.6915 -0.5963  0.3802
   29SAPC   C12 3810   4.314   5.830   6.423  0.3403 -0.1472  0.6834
   29SAPC  H12A 3811   4.240   5.903   6.393  1.6288  0.0786 -2.2298
   29SAPC  H12B 3812   4.301   5.806   6.528  0.7426  0.5989  0.9129
   29SAPC   C13 3813   4.448   6.017   6.519  0.0195 -0.7500  0.4083
   29SAPC  H13A 3814   4.428   5.992   6.622 -0.1955  0.3083  0.6328
   29SAPC  H13B 3815   4.545   6.064   6.525  0.2489 -1.3799  2.1975
   29SAPC  H13C 3816   4.379   6.091   6.481 -0.3976 -1.3408  0.0012
   29SAPC   C14 3817   4.560   5.818   6.481  0.0988 -0.7744  0.7833
   29SAPC  H14A 3818   4.549   5.780   6.582  3.9227 -3.3928  0.4131
   29SAPC  H14B 3819   4.573   5.734   6.414 -2.7335 -2.1991  1.8262
   29SAPC  H14C 3820   4.652   5.875   6.484  1.1750 -2.4699  3.5390
   29SAPC   C15 3821   4.484   5.939   6.289  0.4911  0.0115  0.5620
   29SAPC  H15A 3822   4.576   5.995   6.285  1.0151 -0.7470  1.5039
   29SAPC  H15B 3823   4.513   5.848   6.240  0.5620  0.7680 -0.8404
   29SAPC  H15C 3824   4.406   5.994   6.237  0.5676 -1.4024 -1.1022
   29SAPC   C11 3825   4.304   5.718   6.319  1.3014  0.1865  0.3633
   29SAPC  H11A 3826   4.290   5.777   6.226  1.8544 -1.6271 -0.9227
   29SAPC  H11B 3827   4.214   5.655   6.331  1.2698  0.0703 -0.4713
   29SAPC     P 3828   4.437   5.491   6.312  0.3735  0.2024 -0.0407
   29SAPC   O13 3829   4.311   5.419   6.276  0.5177 -0.6939 -0.1267
   29SAPC   O14 3830   4.549   5.461   6.225 -0.3921 -0.1219  0.5349
   29SAPC   O12 3831   4.422   5.645   6.295 -0.3795 -0.3172 -0.1009
   29SAPC   O11 3832   4.472   5.472   6.470  0.3517  0.2057  0.4457
   29SAPC    C1 3833   4.366   5.486   6.561  0.2233  0.3771 -0.5546
   29SAPC    HA 3834   4.355   5.593   6.588  3.7071  0.0575  3.1962
   29SAPC    HB 3835   4.275   5.432   6.529  0.2786  0.0475 -0.1706
   29SAPC    C2 3836   4.402   5.417   6.701 -0.0730 -0.3245  0.1796
   29SAPC    HS 3837   4.306   5.398   6.752 -1.2330  0.3803 -1.6641
   29SAPC   O21 3838   4.487   5.509   6.772 -0.1313 -0.2950 -0.0803
   29SAPC   C21 3839   4.496   5.499   6.908 -0.2518  0.3426 -0.4736
   29SAPC   O22 3840   4.434   5.420   6.978  0.3562 -0.1339 -0.1312
   29SAPC   C22 3841   4.599   5.608   6.953  0.1497  0.1251  0.6760
   29SAPC   H2R 3842   4.693   5.575   6.906  0.2527 -1.4367  1.9000
   29SAPC   H2S 3843   4.543   5.695   6.912 -0.8280 -0.7989  0.0143
   29SAPC    C3 3844   4.481   5.284   6.676 -0.2691 -0.2423  0.7210
   29SAPC    HX 3845   4.587   5.312   6.696 -0.2300 -1.4229  2.4209
   29SAPC    HY 3846   4.478   5.254   6.569 -1.4195  1.0903  0.3614
   29SAPC   O31 3847   4.447   5.183   6.777 -0.2210 -0.6285  0.0995
   29SAPC   C31 3848   4.378   5.080   6.739  0.8108 -0.5536 -0.4041
   29SAPC   O32 3849   4.354   5.057   6.619 -0.2234  0.2150  0.0939
   29SAPC   C32 3850   4.336   4.989   6.859  0.7902  0.5798 -0.1388
   29SAPC   H2X 3851   4.276   5.054   6.926  1.4684  2.1815 -1.0274
   29SAPC   H2Y 3852   4.427   4.972   6.921  0.0877  1.7455  1.2662
   29SAPC   C23 3853   4.621   5.617   7.110  0.1883 -0.4487 -0.5048
   29SAPC   H3R 3854   4.667   5.520   7.141 -0.9914 -0.6191  0.8057
   29SAPC   H3S 3855   4.527   5.628   7.168 -0.1365  0.0092 -1.1147
   29SAPC   C24 3856   4.719   5.723   7.152  0.2973  0.5975  0.3055
   29SAPC   H4R 3857   4.679   5.823   7.125  0.9926  0.8312  0.1431
   29SAPC   H4S 3858   4.803   5.706   7.081 -0.8132  0.1387 -0.9483
   29SAPC   C25 3859   4.772   5.711   7.296  0.3127  0.7942 -0.0857
   29SAPC   H5R 3860   4.864   5.652   7.291 -0.0679  0.1736  0.0971
   29SAPC   C26 3861   4.713   5.761   7.409 -0.2533 -0.5962 -0.2605
   29SAPC   H6R 3862   4.773   5.744   7.500 -0.8395  0.1596  0.2747
   29SAPC   C27 3863   4.578   5.826   7.427 -0.1539 -0.5076 -0.3668
   29SAPC   H7R 3864   4.544   5.865   7.328 -0.1280  0.4757  0.0056
   29SAPC   H7S 3865   4.596   5.907   7.500 -0.2911 -0.9246  0.1387
   29SAPC   C28 3866   4.467   5.731   7.469 -0.0001  0.1153  0.0465
   29SAPC   H8R 3867   4.428   5.662   7.392 -1.1242  0.7314  0.0464
   29SAPC   C29 3868   4.374   5.744   7.564 -0.2912 -0.4358  0.5224
   29SAPC   H9R 3869   4.297   5.666   7.571  0.2646 -1.0324  0.1055
   29SAPC  C210 3870   4.372   5.853   7.670  0.0166 -0.1376 -0.3558
   29SAPC  H10R 3871   4.277   5.905   7.646  0.2007  1.8463  2.6991
   29SAPC  H10S 3872   4.458   5.921   7.653  0.1180  0.6518  2.6464
   29SAPC  C211 3873   4.374   5.795   7.810 -1.0142  0.7781  0.6675
   29SAPC  H11R 3874   4.375   5.685   7.818 -0.8158  0.7754  0.6107
   29SAPC  C212 3875   4.402   5.878   7.918 -0.5425  0.3182 -0.2797
   29SAPC  H12R 3876   4.423   5.836   8.017  2.0409  1.6064 -0.1897
   29SAPC  C213 3877   4.432   6.026   7.920  0.1065  0.1055  0.0555
   29SAPC  H13R 3878   4.380   6.084   7.840 -0.7572 -0.4744  0.1814
   29SAPC  H13S 3879   4.540   6.031   7.892  0.0644  1.9723  0.1131
   29SAPC  C214 3880   4.411   6.077   8.069 -0.3093 -0.2375  0.2649
   29SAPC  H14R 3881   4.305   6.081   8.100 -0.0473 -1.5556  1.3798
   29SAPC  C215 3882   4.508   6.127   8.152  0.2435  0.1040 -0.3714
   29SAPC  H15R 3883   4.475   6.163   8.251 -1.7752  0.2903 -1.0490
   29SAPC  C216 3884   4.659   6.124   8.135  0.7300  0.2776  0.7527
   29SAPC  H16R 3885   4.705   6.224   8.145  2.6449 -0.5897  0.9709
   29SAPC  H16S 3886   4.678   6.096   8.029 -1.0121  0.3049  0.4070
   29SAPC  C217 3887   4.727   6.039   8.246 -0.0387  0.4420 -0.3864
   29SAPC  H17R 3888   4.681   5.938   8.250 -1.7640  1.1448  5.0041
   29SAPC  H17S 3889   4.698   6.078   8.346 -0.3192  0.2312 -0.3855
   29SAPC  C218 3890   4.882   6.038   8.241  0.4880  0.1910  1.0695
   29SAPC  H18R 3891   4.927   6.124   8.188 -0.1507 -0.7104 -1.0304
   29SAPC  H18S 3892   4.907   5.952   8.175  3.8713  1.6130  0.3347
   29SAPC  C219 3893   4.943   6.009   8.384 -0.0823 -0.3645  0.0070
   29SAPC  H19R 3894   5.053   5.997   8.376 -0.4100 -2.5530 -4.3733
   29SAPC  H19S 3895   4.899   5.915   8.423 -1.1680 -0.0471 -0.3899
   29SAPC  C220 3896   4.919   6.120   8.492 -0.0258  0.2803  0.0531
   29SAPC  H20R 3897   4.943   6.074   8.590  2.7758  1.1224 -0.1665
   29SAPC  H20S 3898   4.815   6.159   8.497  0.3407  1.1537  1.7767
   29SAPC  H20T 3899   4.994   6.201   8.479 -0.2172  0.1753 -2.0603
   29SAPC   C33 3900   4.260   4.856   6.836 -0.2730 -0.8515  0.2023
   29SAPC   H3X 3901   4.329   4.780   6.793  1.5546  1.4874 -1.2283
   29SAPC   H3Y 3902   4.182   4.879   6.760  1.7650 -2.4034 -2.5406
   29SAPC   C34 3903   4.194   4.791   6.955  0.7511  0.4206  0.8954
   29SAPC   H4X 3904   4.139   4.698   6.928  0.1494  0.8872  0.4663
   29SAPC   H4Y 3905   4.111   4.854   6.993 -1.4919 -1.9321  0.1756
   29SAPC   C35 3906   4.294   4.758   7.072  1.4613  0.1147 -0.1160
   29SAPC   H5X 3907   4.335   4.852   7.117  1.7519 -0.8730  1.7781
   29SAPC   H5Y 3908   4.376   4.691   7.038  0.9393  0.0770 -1.3495
   29SAPC   C36 3909   4.208   4.700   7.187 -0.1956 -0.0252 -0.4932
   29SAPC   H6X 3910   4.165   4.600   7.166  1.5752 -1.0994  0.7756
   29SAPC   H6Y 3911   4.123   4.772   7.188  1.3774  1.9331 -0.9874
   29SAPC   C37 3912   4.287   4.694   7.318 -0.4548  0.4579  0.6264
   29SAPC   H7X 3913   4.322   4.798   7.338 -0.4597  0.6431 -0.3065
   29SAPC   H7Y 3914   4.380   4.634   7.307  0.0155  1.4058 -0.8029
   29SAPC   C38 3915   4.209   4.643   7.439 -0.4721 -0.0341  0.0642
   29SAPC   H8X 3916   4.189   4.538   7.410  0.4968 -0.5878  1.3226
   29SAPC   H8Y 3917   4.113   4.698   7.447  0.8107  2.3320  0.2730
   29SAPC   C39 3918   4.289   4.656   7.568  0.1230 -0.0517  0.6722
   29SAPC   H9X 3919   4.300   4.764   7.594 -0.8146 -0.3590  2.5793
   29SAPC   H9Y 3920   4.390   4.614   7.550  0.7558  1.3036  0.9241
   29SAPC  C310 3921   4.229   4.577   7.685  0.1250 -0.4156 -0.2730
   29SAPC  H10X 3922   4.235   4.471   7.652 -0.3365 -0.4625 -0.2141
   29SAPC  H10Y 3923   4.128   4.620   7.703  0.7368 -0.0613  2.8310
   29SAPC  C311 3924   4.305   4.598   7.822  0.5289 -0.0585  0.4764
   29SAPC  H11X 3925   4.304   4.705   7.852 -2.7086  0.5788 -1.4836
   29SAPC  H11Y 3926   4.412   4.573   7.805  0.1074 -0.4134 -1.9557
   29SAPC  C312 3927   4.235   4.509   7.923  0.1374  0.1787 -0.2654
   29SAPC  H12X 3928   4.243   4.403   7.891  0.3273  0.8870 -2.7306
   29SAPC  H12Y 3929   4.129   4.542   7.921  0.0567  0.3211  2.3516
   29SAPC  C313 3930   4.296   4.519   8.065 -0.1429  0.1810  0.2771
   29SAPC  H13X 3931   4.323   4.626   8.077 -3.2343  1.1626 -0.6681
   29SAPC  H13Y 3932   4.392   4.462   8.071 -1.1724 -2.0466 -2.2395
   29SAPC  C314 3933   4.190   4.485   8.171  0.0071  0.2316 -0.2105
   29SAPC  H14X 3934   4.240   4.454   8.265  0.3219  0.3884 -0.3252
   29SAPC  H14Y 3935   4.142   4.399   8.119 -0.7066  0.9050 -0.6830
   29SAPC  C315 3936   4.082   4.595   8.213 -0.2226 -0.3893  0.5304
   29SAPC  H15X 3937   4.031   4.641   8.125  0.7318  0.9115  0.6352
   29SAPC  H15Y 3938   4.137   4.676   8.264 -3.4047  2.9071 -0.8643
   29SAPC  C316 3939   3.985   4.544   8.318  0.6573 -0.1511  0.5006
   29SAPC  H16X 3940   3.930   4.460   8.271  0.6793  0.3285 -0.4081
   29SAPC  H16Y 3941   3.904   4.616   8.343 -0.3124 -1.1145  0.1723
   29SAPC  C317 3942   4.056   4.501   8.449  0.2413 -0.0511 -0.9105
   29SAPC  H17X 3943   4.104   4.594   8.486  0.8452 -1.2013  1.3676
   29SAPC  H17Y 3944   4.137   4.427   8.433  0.4555 -0.0105 -0.0338
   29SAPC  C318 3945   3.956   4.465   8.557 -0.1548  0.8567  0.0452
   29SAPC  H18X 3946   3.903   4.368   8.569 -1.3490  1.7228  2.4498
   29SAPC  H18Y 3947   3.874   4.539   8.552  0.2999  1.4029  0.5265
   29SAPC  H18Z 3948   3.994   4.483   8.660 -0.5913 -0.4075  0.4474
   30SAPC     N 3949   6.641   0.039   6.266  0.1696 -0.7111  0.4310
   30SAPC   C12 3950   6.566   0.018   6.133  0.0759 -0.6540  0.3049
   30SAPC  H12A 3951   6.628  -0.045   6.072 -1.0312 -0.4747 -1.0403
   30SAPC  H12B 3952   6.568   0.109   6.075  0.8245 -0.2256  0.9748
   30SAPC   C13 3953   6.715   0.174   6.259  0.4255  0.2542  0.3829
   30SAPC  H13A 3954   6.740   0.198   6.361  0.9878 -2.3265  0.9214
   30SAPC  H13B 3955   6.807   0.163   6.204 -1.1945 -3.2203 -2.0003
   30SAPC  H13C 3956   6.658   0.258   6.222  1.8124  0.6406 -1.0138
   30SAPC   C14 3957   6.548   0.030   6.380  0.5220  0.1358 -0.3438
   30SAPC  H14A 3958   6.473  -0.047   6.371 -1.3186  1.9589 -1.8282
   30SAPC  H14B 3959   6.597   0.027   6.476  3.5423  2.0888 -1.6756
   30SAPC  H14C 3960   6.485   0.118   6.379 -1.9943 -1.5291  0.4711
   30SAPC   C15 3961   6.737  -0.068   6.273 -0.5084  0.3450  0.2133
   30SAPC  H15A 3962   6.782  -0.084   6.176  0.5876 -2.5803  1.1069
   30SAPC  H15B 3963   6.810  -0.048   6.350 -0.6256 -0.7282  0.6233
   30SAPC  H15C 3964   6.691  -0.162   6.299 -0.8716  0.7989  1.2663
   30SAPC   C11 3965   6.425  -0.043   6.118  0.7246 -0.3861  0.0099
   30SAPC  H11A 3966   6.376  -0.033   6.019  2.3412  1.8517 -0.6352
   30SAPC  H11B 3967   6.352   0.013   6.180  0.5265 -0.0021 -0.5610
   30SAPC     P 3968   6.489  -0.297   6.092  0.0850 -0.2678 -0.5336
   30SAPC   O13 3969   6.394  -0.398   6.049  0.1379  0.0458 -0.6940
   30SAPC   O14 3970   6.580  -0.254   5.980  0.9768 -0.7342 -0.4793
   30SAPC   O12 3971   6.422  -0.180   6.171 -0.0371  0.2185 -0.1836
   30SAPC   O11 3972   6.571  -0.343   6.213  0.6041  0.4930 -0.3981
   30SAPC    C1 3973   6.514  -0.374   6.342  0.5263 -0.2502 -0.3212
   30SAPC    HA 3974   6.515  -0.288   6.412 -0.7564  0.5185 -1.2000
   30SAPC    HB 3975   6.419  -0.432   6.339 -0.0123  0.4991  1.1719
   30SAPC    C2 3976   6.611  -0.465   6.413  0.8045  0.5562 -0.4246
   30SAPC    HS 3977   6.710  -0.415   6.413  0.3848  1.3936  0.6108
   30SAPC   O21 3978   6.609  -0.584   6.330 -0.0377 -0.7759 -0.1715
   30SAPC   C21 3979   6.716  -0.656   6.338 -0.1893  0.0295  0.0549
   30SAPC   O22 3980   6.815  -0.628   6.403 -0.8693 -0.6378  0.4216
   30SAPC   C22 3981   6.694  -0.775   6.249 -0.2198  0.5427 -0.5846
   30SAPC   H2R 3982   6.590  -0.813   6.256  0.3282 -0.8181  0.6386
   30SAPC   H2S 3983   6.698  -0.753   6.140 -0.0891 -1.7619 -1.0938
   30SAPC    C3 3984   6.579  -0.494   6.560 -0.9097 -0.0306 -0.7440
   30SAPC    HX 3985   6.666  -0.526   6.621  0.6427  2.2562 -1.6355
   30SAPC    HY 3986   6.506  -0.578   6.565  0.2045 -1.0859 -1.7742
   30SAPC   O31 3987   6.509  -0.385   6.627 -0.2162 -0.6689 -0.6501
   30SAPC   C31 3988   6.577  -0.298   6.696  0.7030 -0.0521  0.6919
   30SAPC   O32 3989   6.698  -0.284   6.701 -0.2437 -0.3740  0.2217
   30SAPC   C32 3990   6.477  -0.199   6.762 -0.0412 -0.2012 -0.0899
   30SAPC   H2X 3991   6.381  -0.252   6.743  1.0569 -2.5226  0.3912
   30SAPC   H2Y 3992   6.480  -0.099   6.713 -0.6466  0.3201  0.9232
   30SAPC   C23 3993   6.782  -0.897   6.287 -0.2456 -0.0547  0.2554
   30SAPC   H3R 3994   6.886  -0.863   6.304 -0.4733  0.5758  0.4209
   30SAPC   H3S 3995   6.789  -0.962   6.197  2.6144  0.3895  0.0926
   30SAPC   C24 3996   6.725  -0.977   6.405 -0.7694 -0.4684 -0.2451
   30SAPC   H4R 3997   6.746  -0.920   6.498 -0.0471  0.3486 -0.8998
   30SAPC   H4S 3998   6.790  -1.066   6.396 -1.8531 -1.3314  0.1896
   30SAPC   C25 3999   6.584  -1.018   6.412 -0.0757 -0.9535  0.3745
   30SAPC   H5R 4000   6.568  -1.100   6.341  2.7649 -0.4959 -0.9495
   30SAPC   C26 4001   6.484  -0.983   6.494 -0.1526  0.0793  0.0815
   30SAPC   H6R 4002   6.384  -1.029   6.480  0.3254 -0.7383 -0.7145
   30SAPC   C27 4003   6.484  -0.879   6.600  0.2177 -0.4478  0.5718
   30SAPC   H7R 4004   6.412  -0.798   6.576 -0.2233 -0.8164  0.6324
   30SAPC   H7S 4005   6.584  -0.831   6.609 -0.6607  1.6055 -0.0060
   30SAPC   C28 4006   6.430  -0.924   6.730 -0.5264 -0.7613 -0.0049
   30SAPC   H8R 4007   6.361  -1.010   6.730 -1.6743  0.1024  1.3027
   30SAPC   C29 4008   6.449  -0.867   6.847  0.1230 -0.1936  0.5725
   30SAPC   H9R 4009   6.406  -0.917   6.935 -0.7189  3.3637  2.3474
   30SAPC  C210 4010   6.538  -0.747   6.870 -0.3264  0.1875 -0.0983
   30SAPC  H10R 4011   6.476  -0.667   6.916 -0.2872  0.3898 -0.3955
   30SAPC  H10S 4012   6.578  -0.705   6.775  0.3110  2.5465  1.1391
   30SAPC  C211 4013   6.665  -0.763   6.958 -0.0100 -0.2485 -0.0028
   30SAPC  H11R 4014   6.753  -0.794   6.899  0.7915  0.4523  0.7870
   30SAPC  C212 4015   6.681  -0.740   7.095 -0.1163  0.3933  0.0847
   30SAPC  H12R 4016   6.777  -0.773   7.137  0.9068 -0.5924 -2.7761
   30SAPC  C213 4017   6.577  -0.660   7.178  0.5051  0.3890  0.0850
   30SAPC  H13R 4018   6.522  -0.595   7.107  0.1544 -1.5450 -1.5322
   30SAPC  H13S 4019   6.633  -0.590   7.243 -0.2100  0.4976  0.5846
   30SAPC  C214 4020   6.484  -0.761   7.246 -0.0554  0.2266  0.0840
   30SAPC  H14R 4021   6.412  -0.799   7.171 -0.1875  3.5072 -1.6044
   30SAPC  C215 4022   6.478  -0.782   7.378  1.0029 -0.0713 -0.1804
   30SAPC  H15R 4023   6.398  -0.841   7.426 -0.5746  2.2444  0.2404
   30SAPC  C216 4024   6.563  -0.711   7.484  0.3050  0.3115 -0.3131
   30SAPC  H16R 4025   6.495  -0.630   7.518 -0.5439 -0.7685  0.6459
   30SAPC  H16S 4026   6.657  -0.660   7.450  0.1927  1.5790  1.1687
   30SAPC  C217 4027   6.601  -0.798   7.607 -0.1414 -0.5488 -0.4056
   30SAPC  H17R 4028   6.638  -0.730   7.687 -0.3895  0.1220 -0.8520
   30SAPC  H17S 4029   6.681  -0.867   7.575  0.0472 -0.0398 -1.0437
   30SAPC  C218 4030   6.483  -0.874   7.670  0.5913 -0.0715  0.2872
   30SAPC  H18R 4031   6.451  -0.955   7.602 -0.8588  0.7518 -0.0777
   30SAPC  H18S 4032   6.392  -0.810   7.673 -0.2565 -1.2419  0.2263
   30SAPC  C219 4033   6.496  -0.921   7.817 -0.3395  0.5606  0.1846
   30SAPC  H19R 4034   6.402  -0.972   7.845  0.0668  0.7169  1.9674
   30SAPC  H19S 4035   6.510  -0.834   7.886 -2.3132 -0.2635  1.7223
   30SAPC  C220 4036   6.617  -1.016   7.839 -0.3281  0.7503  0.1976
   30SAPC  H20R 4037   6.586  -1.121   7.822 -0.3809  0.8279 -0.2042
   30SAPC  H20S 4038   6.647  -1.025   7.945 -0.1983 -0.0317  0.1001
   30SAPC  H20T 4039   6.702  -0.993   7.771 -1.0254  1.5773 -0.4256
   30SAPC   C33 4040   6.483  -0.186   6.917 -0.3196  0.3328  0.8161
   30SAPC   H3X 4041   6.458  -0.286   6.959  0.0175 -1.0194 -1.9734
   30SAPC   H3Y 4042   6.401  -0.118   6.950  0.7473  0.5381  3.2803
   30SAPC   C34 4043   6.618  -0.124   6.970 -1.0645 -0.7517  0.2489
   30SAPC   H4X 4044   6.655  -0.041   6.905  1.2518 -3.1067 -1.6565
   30SAPC   H4Y 4045   6.699  -0.199   6.956 -1.1205 -0.7206 -0.2792
   30SAPC   C35 4046   6.605  -0.082   7.121  0.4773  0.0610  1.2706
   30SAPC   H5X 4047   6.555  -0.171   7.166 -1.8655 -0.4989 -2.0551
   30SAPC   H5Y 4048   6.533   0.003   7.115  1.2208  0.5990 -1.4202
   30SAPC   C36 4049   6.738  -0.029   7.176 -0.0103  0.6047  0.5604
   30SAPC   H6X 4050   6.774   0.063   7.127 -0.1084  0.9574  1.1398
   30SAPC   H6Y 4051   6.816  -0.103   7.148 -0.9246 -0.4345  0.6794
   30SAPC   C37 4052   6.740  -0.020   7.324 -0.7360  0.4594 -0.0730
   30SAPC   H7X 4053   6.742  -0.124   7.365 -0.2204  1.6399  3.2516
   30SAPC   H7Y 4054   6.649   0.032   7.358 -1.6443 -0.7007 -0.6713
   30SAPC   C38 4055   6.880   0.036   7.375  0.0323  0.6528  0.1239
   30SAPC   H8X 4056   6.888   0.140   7.337  0.7664  0.7895  0.6307
   30SAPC   H8Y 4057   6.956  -0.026   7.324 -1.5999 -1.9204  0.6385
   30SAPC   C39 4058   6.891   0.017   7.521 -0.3085 -0.0670 -0.1791
   30SAPC   H9X 4059   6.888  -0.091   7.549 -0.5004 -0.0276 -0.0414
   30SAPC   H9Y 4060   6.801   0.058   7.573 -0.3017  0.3096 -0.4634
   30SAPC  C310 4061   7.007   0.086   7.595  0.0278 -0.1462 -0.3778
   30SAPC  H10X 4062   7.016   0.194   7.568  0.5395 -0.4731 -1.6049
   30SAPC  H10Y 4063   7.106   0.041   7.574  0.4722  0.6960 -0.1292
   30SAPC  C311 4064   6.990   0.080   7.747 -0.1285 -0.1874 -0.4877
   30SAPC  H11X 4065   6.892   0.125   7.776  0.5187  1.4276 -0.6840
   30SAPC  H11Y 4066   7.061   0.153   7.793  0.1547 -0.0340 -1.1678
   30SAPC  C312 4067   7.013  -0.060   7.811  0.0942 -0.2479 -0.3102
   30SAPC  H12X 4068   7.111  -0.100   7.779 -0.0058 -0.3770 -0.4581
   30SAPC  H12Y 4069   6.938  -0.137   7.780  0.9858 -1.3298  0.1706
   30SAPC  C313 4070   7.004  -0.056   7.959 -0.7840  0.0244 -0.0687
   30SAPC  H13X 4071   6.943   0.027   8.001 -1.3851 -0.3409 -0.1989
   30SAPC  H13Y 4072   7.104  -0.050   8.007 -0.7415  0.6258 -0.2196
   30SAPC  C314 4073   6.950  -0.188   8.011  0.6047  0.3431 -0.7559
   30SAPC  H14X 4074   6.992  -0.284   7.974  0.9584 -0.9264  2.6026
   30SAPC  H14Y 4075   6.842  -0.199   7.988  0.0131  1.8552  1.0748
   30SAPC  C315 4076   6.968  -0.215   8.163 -0.8634  0.6311 -0.2939
   30SAPC  H15X 4077   6.922  -0.133   8.223  1.6206  2.0955 -0.2585
   30SAPC  H15Y 4078   7.076  -0.228   8.184 -1.0181 -2.5436 -0.9011
   30SAPC  C316 4079   6.901  -0.341   8.218 -0.2244  0.4100  0.4126
   30SAPC  H16X 4080   6.954  -0.430   8.179 -0.7412  1.0247 -1.8464
   30SAPC  H16Y 4081   6.798  -0.339   8.177  0.2402 -0.0216 -0.8088
   30SAPC  C317 4082   6.903  -0.342   8.375 -0.1094  1.0480  0.2195
   30SAPC  H17X 4083   6.857  -0.251   8.418  0.1820  0.5960  1.5326
   30SAPC  H17Y 4084   7.007  -0.343   8.414  0.4387  0.8902 -1.1805
   30SAPC  C318 4085   6.835  -0.472   8.424 -0.1931 -0.0476  0.6111
   30SAPC  H18X 4086   6.828  -0.476   8.535  1.0681  0.5958  0.7309
   30SAPC  H18Y 4087   6.903  -0.552   8.386  1.0501  2.3382 -2.7476
   30SAPC  H18Z 4088   6.737  -0.470   8.372  0.0926  1.5058  0.0884
   31SAPC     N 4089   0.762   1.158   6.202 -0.7851  0.3148  0.7748
   31SAPC   C12 4090   0.794   1.007   6.187  0.0454 -0.1018  0.2006
   31SAPC  H12A 4091   0.873   0.998   6.115 -0.1657  2.1255 -0.4004
   31SAPC  H12B 4092   0.709   0.952   6.149  0.0424 -0.0986  0.2026
   31SAPC   C13 4093   0.729   1.217   6.065  0.1265  0.0351  0.2412
   31SAPC  H13A 4094   0.815   1.207   6.001  0.2736 -2.7311  0.7324
   31SAPC  H13B 4095   0.634   1.177   6.030 -0.6755  2.1652 -0.2079
   31SAPC  H13C 4096   0.703   1.321   6.075 -0.9625 -0.1647 -0.2552
   31SAPC   C14 4097   0.659   1.166   6.304  0.5685 -0.3380  0.3960
   31SAPC  H14A 4098   0.661   1.257   6.363  0.1103 -1.8709  2.9380
   31SAPC  H14B 4099   0.557   1.151   6.271  0.3889 -1.1557  1.2757
   31SAPC  H14C 4100   0.660   1.079   6.369  0.3642  1.3171  2.7493
   31SAPC   C15 4101   0.877   1.236   6.251  0.2895  0.1153  0.3029
   31SAPC  H15A 4102   0.948   1.267   6.176  0.2735 -0.0421  0.2230
   31SAPC  H15B 4103   0.846   1.333   6.286  0.4909  0.2899  0.0033
   31SAPC  H15C 4104   0.941   1.190   6.325  0.0780  0.4503  0.6932
   31SAPC   C11 4105   0.844   0.926   6.311 -0.1592  0.6145  0.1908
   31SAPC  H11A 4106   0.940   0.973   6.340 -0.3719  0.3871  1.3143
   31SAPC  H11B 4107   0.859   0.826   6.265 -0.7216  0.8166 -0.4526
   31SAPC     P 4108   0.662   0.795   6.451  0.1260  0.0753  0.1844
   31SAPC   O13 4109   0.538   0.797   6.371  0.0971  0.4230 -0.1102
   31SAPC   O14 4110   0.745   0.674   6.439 -0.2349  0.0377 -0.2035
   31SAPC   O12 4111   0.752   0.920   6.411  0.3905 -0.7241 -0.6900
   31SAPC   O11 4112   0.636   0.821   6.609 -0.8616  0.0068 -0.0480
   31SAPC    C1 4113   0.697   0.927   6.675 -0.5541  0.0811 -0.7164
   31SAPC    HA 4114   0.669   1.021   6.622  0.5280  0.6115 -0.3882
   31SAPC    HB 4115   0.657   0.935   6.778  2.0847 -1.5585  0.5509
   31SAPC    C2 4116   0.853   0.923   6.678 -0.1109 -0.0726 -0.3182
   31SAPC    HS 4117   0.900   0.905   6.579  2.1217  0.0609  0.6571
   31SAPC   O21 4118   0.889   0.813   6.759  0.4199  0.1286 -0.7795
   31SAPC   C21 4119   0.991   0.742   6.719 -0.6444 -0.1978 -0.1894
   31SAPC   O22 4120   1.074   0.769   6.629 -0.6642  0.4117 -0.1527
   31SAPC   C22 4121   0.993   0.601   6.789  0.7657 -0.4282  0.1513
   31SAPC   H2R 4122   0.886   0.571   6.799  1.3476 -2.5642  0.6141
   31SAPC   H2S 4123   1.047   0.533   6.720  4.2255  1.1026  1.1507
   31SAPC    C3 4124   0.914   1.054   6.732 -0.6197 -0.5620  0.0147
   31SAPC    HX 4125   0.879   1.142   6.673  0.7646  0.0129 -0.0094
   31SAPC    HY 4126   1.023   1.060   6.708 -1.1638  0.9301 -2.3843
   31SAPC   O31 4127   0.882   1.083   6.871  0.2099  0.5798 -0.7875
   31SAPC   C31 4128   0.944   1.006   6.960  0.4137 -0.7822 -0.0803
   31SAPC   O32 4129   1.042   0.942   6.939  0.1770 -0.0686 -0.3823
   31SAPC   C32 4130   0.870   1.017   7.091  0.8377 -0.0633 -0.2423
   31SAPC   H2X 4131   0.765   0.988   7.069  1.4131 -3.5033  0.9553
   31SAPC   H2Y 4132   0.874   1.123   7.123  3.5908  0.3260 -1.5967
   31SAPC   C23 4133   1.045   0.603   6.934  0.0778  0.4314 -0.6653
   31SAPC   H3R 4134   0.972   0.655   6.998 -0.3366 -2.5237  1.4924
   31SAPC   H3S 4135   1.149   0.643   6.930  0.5250 -0.5996  0.1576
   31SAPC   C24 4136   1.075   0.462   6.996  0.8654  0.5708 -0.7524
   31SAPC   H4R 4137   1.126   0.467   7.095  1.9166  0.4783 -1.2764
   31SAPC   H4S 4138   1.145   0.416   6.922  0.4976 -1.3803  0.0608
   31SAPC   C25 4139   0.957   0.380   7.004  0.9634  0.5928 -0.4902
   31SAPC   H5R 4140   0.943   0.309   6.921 -1.5158 -0.1866  0.4744
   31SAPC   C26 4141   0.860   0.381   7.093  0.1843 -1.0502  0.1909
   31SAPC   H6R 4142   0.773   0.316   7.076 -0.7874  0.2008  0.2170
   31SAPC   C27 4143   0.861   0.474   7.221 -0.3177  0.1390 -0.6198
   31SAPC   H7R 4144   0.932   0.559   7.223 -0.1172 -0.0241  1.5584
   31SAPC   H7S 4145   0.876   0.403   7.306 -0.7087  2.2287  1.2827
   31SAPC   C28 4146   0.718   0.534   7.230  0.0401 -0.2817 -0.3167
   31SAPC   H8R 4147   0.687   0.575   7.133  0.9973  0.3893 -0.3583
   31SAPC   C29 4148   0.632   0.543   7.339 -0.3075  0.7900  0.2956
   31SAPC   H9R 4149   0.541   0.603   7.327 -0.2051  1.7734  3.5215
   31SAPC  C210 4150   0.665   0.508   7.479 -0.3447  0.4944 -0.2252
   31SAPC  H10R 4151   0.646   0.600   7.539  1.2239  2.6911 -2.8552
   31SAPC  H10S 4152   0.776   0.497   7.482 -0.3926  0.1784  1.2477
   31SAPC  C211 4153   0.601   0.379   7.535  0.0056  0.6400  0.0121
   31SAPC  H11R 4154   0.637   0.276   7.523 -2.5582 -0.5373  1.4120
   31SAPC  C212 4155   0.470   0.370   7.556 -0.0643  0.3108  0.1211
   31SAPC  H12R 4156   0.421   0.276   7.586 -0.9801  0.6210 -0.3636
   31SAPC  C213 4157   0.370   0.487   7.540 -0.4771 -0.3786  0.4452
   31SAPC  H13R 4158   0.367   0.515   7.433 -1.7123  2.7356  1.1896
   31SAPC  H13S 4159   0.401   0.568   7.610  1.0941 -2.1622  1.9257
   31SAPC  C214 4160   0.228   0.456   7.581  0.1839 -0.1013 -0.0918
   31SAPC  H14R 4161   0.171   0.410   7.499  2.5079 -1.3163 -1.0928
   31SAPC  C215 4162   0.172   0.474   7.705 -0.5288  0.2951  0.2398
   31SAPC  H15R 4163   0.065   0.452   7.714 -0.7060  0.9843 -0.0821
   31SAPC  C216 4164   0.239   0.532   7.833 -0.0288  0.3185  0.4299
   31SAPC  H16R 4165   0.163   0.563   7.908  0.2814 -0.8391  1.2440
   31SAPC  H16S 4166   0.319   0.606   7.811 -0.3300  0.6842  0.5582
   31SAPC  C217 4167   0.316   0.421   7.907 -0.5245  0.0984  0.3243
   31SAPC  H17R 4168   0.386   0.364   7.841 -0.9517 -0.4093  0.3014
   31SAPC  H17S 4169   0.237   0.348   7.934  0.5329 -0.6822  1.4012
   31SAPC  C218 4170   0.402   0.461   8.031 -0.1403  0.1445 -0.5236
   31SAPC  H18R 4171   0.338   0.517   8.102 -0.4411 -0.1964 -0.5240
   31SAPC  H18S 4172   0.479   0.536   8.003  1.0619 -0.0864  1.8659
   31SAPC  C219 4173   0.482   0.344   8.087 -0.0830  0.1858  0.1123
   31SAPC  H19R 4174   0.550   0.381   8.166 -0.1768 -0.9746  0.7564
   31SAPC  H19S 4175   0.547   0.300   8.009  1.0014  2.5522 -0.4228
   31SAPC  C220 4176   0.392   0.234   8.143  0.2100 -0.1717  0.7031
   31SAPC  H20R 4177   0.347   0.170   8.064 -1.3218  0.9461  0.6270
   31SAPC  H20S 4178   0.315   0.278   8.210 -0.1449  1.7153 -0.8694
   31SAPC  H20T 4179   0.456   0.174   8.212  2.0250  4.3132  3.3376
   31SAPC   C33 4180   0.927   0.930   7.200  0.0946  0.6685 -0.3692
   31SAPC   H3X 4181   1.038   0.940   7.205  0.2310 -0.7301 -0.2396
   31SAPC   H3Y 4182   0.915   0.824   7.168 -1.3317  0.1462  1.7143
   31SAPC   C34 4183   0.854   0.952   7.336 -0.4109  0.2797 -0.1449
   31SAPC   H4X 4184   0.748   0.927   7.317 -0.3774  2.5267 -4.7664
   31SAPC   H4Y 4185   0.864   1.059   7.363  0.3930  0.0753  0.4023
   31SAPC   C35 4186   0.912   0.866   7.452 -0.2043 -0.3050 -0.1745
   31SAPC   H5X 4187   1.013   0.905   7.473  0.2696 -1.2964 -0.5598
   31SAPC   H5Y 4188   0.911   0.761   7.414 -4.4456 -1.2715  1.9904
   31SAPC   C36 4189   0.830   0.875   7.579  0.6365  0.1704  0.3739
   31SAPC   H6X 4190   0.725   0.854   7.550  0.4481 -0.2066  1.2804
   31SAPC   H6Y 4191   0.825   0.976   7.625  0.2139  0.9071 -1.2020
   31SAPC   C37 4192   0.877   0.764   7.681 -0.8536 -0.2067  0.2746
   31SAPC   H7X 4193   0.982   0.791   7.704 -0.9340  0.4541 -0.1083
   31SAPC   H7Y 4194   0.874   0.666   7.629 -2.0099 -0.9615  1.6752
   31SAPC   C38 4195   0.805   0.756   7.819 -0.3123  0.4049  0.1075
   31SAPC   H8X 4196   0.867   0.688   7.881  1.4101  0.3097 -1.5996
   31SAPC   H8Y 4197   0.703   0.715   7.809 -0.5075  1.1461 -1.3812
   31SAPC   C39 4198   0.777   0.892   7.877  0.2584  0.6643  0.4437
   31SAPC   H9X 4199   0.708   0.948   7.810 -0.9230  0.4132  1.4216
   31SAPC   H9Y 4200   0.874   0.947   7.879 -0.2058  1.4750  1.5641
   31SAPC  C310 4201   0.703   0.893   8.017 -0.3684 -0.1123 -0.0555
   31SAPC  H10X 4202   0.765   0.837   8.091  0.4493 -0.2754 -0.8397
   31SAPC  H10Y 4203   0.606   0.840   8.010  0.8242 -2.5335  0.3639
   31SAPC  C311 4204   0.704   1.037   8.058 -0.5780  0.6221 -0.3106
   31SAPC  H11X 4205   0.642   1.091   7.983 -2.7021 -1.2013  0.0069
   31SAPC  H11Y 4206   0.812   1.060   8.047  0.4652 -2.1680  2.5694
   31SAPC  C312 4207   0.643   1.065   8.191 -0.4168  0.1295 -0.5804
   31SAPC  H12X 4208   0.706   1.025   8.275 -1.6302 -0.2627  0.1667
   31SAPC  H12Y 4209   0.550   1.005   8.190 -0.6068  0.4247 -2.1464
   31SAPC  C313 4210   0.606   1.213   8.210 -0.1873  0.6654  0.3908
   31SAPC  H13X 4211   0.562   1.251   8.115  2.4023  2.8795 -0.0594
   31SAPC  H13Y 4212   0.697   1.275   8.199  0.2531 -0.3067 -2.5697
   31SAPC  C314 4213   0.529   1.243   8.337 -0.5880  0.4599 -0.0072
   31SAPC  H14X 4214   0.599   1.220   8.420  1.8759 -1.2890 -2.3984
   31SAPC  H14Y 4215   0.446   1.170   8.355  1.0688 -1.4516  0.2300
   31SAPC  C315 4216   0.490   1.389   8.354 -0.0859 -0.7771  0.0857
   31SAPC  H15X 4217   0.410   1.416   8.282  0.2667  1.6819  0.5420
   31SAPC  H15Y 4218   0.575   1.454   8.327 -0.8438  0.9515  1.6559
   31SAPC  C316 4219   0.454   1.438   8.499  0.8532  0.3569 -0.3491
   31SAPC  H16X 4220   0.366   1.377   8.529  1.4040  0.0536  0.7042
   31SAPC  H16Y 4221   0.420   1.544   8.489  1.3839  0.7474  1.5463
   31SAPC  C317 4222   0.576   1.436   8.594 -0.5580 -0.1397  0.9522
   31SAPC  H17X 4223   0.663   1.480   8.541 -2.4168  2.8906  0.1405
   31SAPC  H17Y 4224   0.601   1.330   8.618  0.8602  0.2418  1.1928
   31SAPC  C318 4225   0.566   1.508   8.727 -0.2362  0.1256  0.3055
   31SAPC  H18X 4226   0.581   1.618   8.726  1.5109 -0.0764  1.1746
   31SAPC  H18Y 4227   0.653   1.471   8.786  0.4527 -1.4280 -1.5598
   31SAPC  H18Z 4228   0.471   1.467   8.767  1.0446 -2.8635  0.5918
   32SAPC     N 4229   3.280   1.959   6.188 -0.5788 -0.9164  0.3138
   32SAPC   C12 4230   3.142   1.948   6.251 -0.2400  0.3831 -0.0940
   32SAPC  H12A 4231   3.150   1.865   6.319 -1.9821  2.1107  2.3677
   32SAPC  H12B 4232   3.071   1.912   6.178  0.8324 -3.0931  0.3696
   32SAPC   C13 4233   3.301   1.833   6.111 -0.4501  0.1397  0.5876
   32SAPC  H13A 4234   3.226   1.830   6.033  0.7277  0.6796 -0.5954
   32SAPC  H13B 4235   3.395   1.833   6.059 -0.0383 -3.6993  1.0316
   32SAPC  H13C 4236   3.303   1.755   6.186  0.0665  1.6002  2.1512
   32SAPC   C14 4237   3.271   2.068   6.094 -0.1181  0.1153 -0.2886
   32SAPC  H14A 4238   3.344   2.053   6.016 -0.3852 -2.9502 -0.0573
   32SAPC  H14B 4239   3.176   2.062   6.043 -0.2023  0.1503 -0.1377
   32SAPC  H14C 4240   3.278   2.165   6.141 -0.9306 -0.7805  1.8309
   32SAPC   C15 4241   3.381   1.976   6.292  0.3551 -0.3819 -0.3220
   32SAPC  H15A 4242   3.481   1.984   6.253  1.3887  0.3737  2.2857
   32SAPC  H15B 4243   3.364   2.067   6.348  2.6052  0.1699 -0.4451
   32SAPC  H15C 4244   3.384   1.897   6.366  1.3146 -1.5359 -1.5370
   32SAPC   C11 4245   3.084   2.066   6.326 -0.2716 -0.4031  0.1555
   32SAPC  H11A 4246   3.172   2.114   6.372 -1.6062  3.9779 -1.3207
   32SAPC  H11B 4247   3.004   2.046   6.401 -1.5710  1.2947 -0.7027
   32SAPC     P 4248   2.910   2.165   6.145 -0.3498 -0.1906 -0.3027
   32SAPC   O13 4249   2.863   2.305   6.128 -0.0722  0.2748  0.4487
   32SAPC   O14 4250   2.930   2.084   6.022 -0.4276 -0.0045 -0.5579
   32SAPC   O12 4251   3.035   2.162   6.235  0.2768  0.2462  0.0345
   32SAPC   O11 4252   2.812   2.082   6.242  0.0417 -0.4024 -0.7948
   32SAPC    C1 4253   2.752   2.168   6.348 -0.0967  0.4873  0.2242
   32SAPC    HA 4254   2.807   2.257   6.386 -1.4178  0.5177  2.1863
   32SAPC    HB 4255   2.656   2.211   6.313 -0.2060  3.1333  3.3174
   32SAPC    C2 4256   2.722   2.092   6.483  0.1755  0.1778 -0.7336
   32SAPC    HS 4257   2.825   2.067   6.516  0.7742  1.7577 -1.2958
   32SAPC   O21 4258   2.639   1.973   6.468  0.5805 -0.5492 -0.1647
   32SAPC   C21 4259   2.671   1.876   6.546  0.0509 -0.3450 -0.3670
   32SAPC   O22 4260   2.763   1.866   6.626  0.8441 -0.0436 -0.0419
   32SAPC   C22 4261   2.568   1.760   6.525  0.0841  0.7414  0.4555
   32SAPC   H2R 4262   2.508   1.778   6.433  0.8279 -1.6735 -0.6036
   32SAPC   H2S 4263   2.634   1.673   6.501 -1.3746 -0.1856 -0.3851
   32SAPC    C3 4264   2.672   2.181   6.605  0.9134  0.5734  0.0252
   32SAPC    HX 4265   2.572   2.216   6.572  0.8555 -1.0003 -1.6859
   32SAPC    HY 4266   2.732   2.273   6.614  0.1900  1.0189  0.3790
   32SAPC   O31 4267   2.669   2.115   6.735 -0.1851  0.6429  0.5860
   32SAPC   C31 4268   2.790   2.110   6.790  0.1822  0.0562 -0.5636
   32SAPC   O32 4269   2.895   2.160   6.753  0.3035  0.4269  0.6158
   32SAPC   C32 4270   2.781   2.027   6.916 -0.2039  0.1060  1.1196
   32SAPC   H2X 4271   2.858   1.949   6.902 -0.4833 -0.2046  1.3024
   32SAPC   H2Y 4272   2.684   1.973   6.912 -1.2117  1.8410 -2.7217
   32SAPC   C23 4273   2.486   1.715   6.645 -0.1202  0.0169  0.0675
   32SAPC   H3R 4274   2.537   1.737   6.741  0.0986 -0.7084  0.1240
   32SAPC   H3S 4275   2.469   1.605   6.642 -1.6766  0.2561 -1.5935
   32SAPC   C24 4276   2.353   1.785   6.664  0.5461 -0.2458 -0.1435
   32SAPC   H4R 4277   2.303   1.766   6.567 -0.5141  1.3119  0.0548
   32SAPC   H4S 4278   2.364   1.893   6.684 -0.2541  0.1153 -1.5420
   32SAPC   C25 4279   2.269   1.721   6.779  0.6524 -0.2623 -0.4090
   32SAPC   H5R 4280   2.236   1.617   6.770  0.0541 -0.3783  2.2386
   32SAPC   C26 4281   2.248   1.778   6.900  0.7566  0.4987  0.2699
   32SAPC   H6R 4282   2.189   1.715   6.968  2.1347 -1.2788 -0.1115
   32SAPC   C27 4283   2.287   1.906   6.958 -0.1104 -0.2091 -0.3757
   32SAPC   H7R 4284   2.208   1.949   7.022  1.0835  2.1246 -0.3785
   32SAPC   H7S 4285   2.299   1.978   6.874  0.2992  2.8163  2.0988
   32SAPC   C28 4286   2.410   1.892   7.052 -0.0784  0.0647  0.0294
   32SAPC   H8R 4287   2.495   1.829   7.021  0.6454  0.3644  1.3437
   32SAPC   C29 4288   2.434   1.949   7.168 -0.1552  0.1482  0.1950
   32SAPC   H9R 4289   2.533   1.930   7.213  0.2049 -0.6881 -0.8969
   32SAPC  C210 4290   2.346   2.048   7.235 -0.1580  0.0004  0.2409
   32SAPC  H10R 4291   2.260   1.995   7.281  0.2890 -0.7636  0.2047
   32SAPC  H10S 4292   2.308   2.132   7.172 -2.3984 -1.0327  0.1276
   32SAPC  C211 4293   2.429   2.108   7.344 -0.2810 -0.1419  0.2973
   32SAPC  H11R 4294   2.480   2.203   7.324  1.4799 -1.0179  0.4155
   32SAPC  C212 4295   2.460   2.049   7.461  0.2065 -0.6321  0.3553
   32SAPC  H12R 4296   2.518   2.113   7.530  0.4459  2.1263 -2.2134
   32SAPC  C213 4297   2.429   1.911   7.512 -0.8785 -0.2629 -0.2428
   32SAPC  H13R 4298   2.371   1.854   7.437  1.1386 -0.8988 -1.3926
   32SAPC  H13S 4299   2.368   1.919   7.605  0.7645 -1.4872  1.0007
   32SAPC  C214 4300   2.551   1.825   7.558 -0.5293  0.5269 -0.9528
   32SAPC  H14R 4301   2.576   1.739   7.494 -2.9120  0.4819 -1.9288
   32SAPC  C215 4302   2.617   1.833   7.677  0.6442 -0.7887 -0.1494
   32SAPC  H15R 4303   2.703   1.771   7.704  2.1905  1.7325  1.0641
   32SAPC  C216 4304   2.591   1.942   7.776  0.2418  0.6484  0.0406
   32SAPC  H16R 4305   2.484   1.952   7.806  0.5134  0.9376  0.9607
   32SAPC  H16S 4306   2.611   2.030   7.712 -2.0696  0.4341 -1.0538
   32SAPC  C217 4307   2.686   1.944   7.897  0.2588  0.3366 -0.0953
   32SAPC  H17R 4308   2.792   1.927   7.867 -0.1107 -1.5044 -0.4988
   32SAPC  H17S 4309   2.664   1.867   7.974 -1.8874  2.2629  1.3529
   32SAPC  C218 4310   2.660   2.077   7.973  0.2780 -0.1580 -0.1149
   32SAPC  H18R 4311   2.555   2.066   8.006  0.2095 -1.9162 -0.8308
   32SAPC  H18S 4312   2.673   2.164   7.904 -1.9638 -0.9934 -1.6796
   32SAPC  C219 4313   2.732   2.095   8.106  0.1897  0.1363  0.2449
   32SAPC  H19R 4314   2.843   2.096   8.097  0.0840 -0.5241 -1.5471
   32SAPC  H19S 4315   2.707   2.011   8.174  1.4470 -0.6190 -0.1841
   32SAPC  C220 4316   2.676   2.213   8.176  0.4410 -0.2257  0.8006
   32SAPC  H20R 4317   2.697   2.221   8.285 -1.0017 -1.0582  1.1693
   32SAPC  H20S 4318   2.567   2.232   8.159  0.8065 -0.5381 -2.3967
   32SAPC  H20T 4319   2.732   2.294   8.125 -0.3147  0.3142  0.8010
   32SAPC   C33 4320   2.796   2.087   7.053  0.1250  0.6559  0.5999
   32SAPC   H3X 4321   2.698   2.128   7.087  1.7610  2.8031  3.1043
   32SAPC   H3Y 4322   2.871   2.168   7.037 -1.8770  2.5366  0.2249
   32SAPC   C34 4323   2.844   1.980   7.155 -0.6683 -0.0360 -0.0130
   32SAPC   H4X 4324   2.938   1.926   7.131 -0.8830 -0.7744  0.7479
   32SAPC   H4Y 4325   2.764   1.904   7.142 -0.7917  0.0247  0.3861
   32SAPC   C35 4326   2.853   2.048   7.291 -0.1850 -0.0105  0.6686
   32SAPC   H5X 4327   2.757   2.094   7.320 -1.2703 -3.2298  2.6794
   32SAPC   H5Y 4328   2.929   2.128   7.281 -0.1848 -0.1634 -0.9060
   32SAPC   C36 4329   2.905   1.947   7.394 -0.0557 -0.4798 -0.0616
   32SAPC   H6X 4330   2.975   1.876   7.346  1.3913  0.6660  0.2699
   32SAPC   H6Y 4331   2.811   1.893   7.420 -0.5988  1.7267  3.2364
   32SAPC   C37 4332   2.959   2.022   7.520  0.0482  0.3151 -0.2157
   32SAPC   H7X 4333   2.896   2.103   7.562 -1.2150  0.0060 -1.4265
   32SAPC   H7Y 4334   3.058   2.058   7.485 -1.1598  1.8874 -2.1828
   32SAPC   C38 4335   2.988   1.917   7.634  0.4211  0.1398  0.5263
   32SAPC   H8X 4336   3.060   1.844   7.590 -0.7514 -0.6299 -0.1928
   32SAPC   H8Y 4337   2.902   1.851   7.659  0.0191 -0.7642 -2.6988
   32SAPC   C39 4338   3.050   1.978   7.764 -0.6753 -0.4632  0.1995
   32SAPC   H9X 4339   2.977   2.054   7.799  1.1459  0.5908  1.8962
   32SAPC   H9Y 4340   3.143   2.031   7.735 -0.5490  0.5007  2.2077
   32SAPC  C310 4341   3.083   1.874   7.864  0.2193  0.5373 -0.2403
   32SAPC  H10X 4342   3.168   1.813   7.828 -0.9048  0.0273 -2.1841
   32SAPC  H10Y 4343   2.990   1.815   7.880 -0.5402  1.7910  0.1203
   32SAPC  C311 4344   3.119   1.938   8.005  0.3626  0.6394 -0.3006
   32SAPC  H11X 4345   3.039   2.013   8.023  0.5438  0.9062 -0.5986
   32SAPC  H11Y 4346   3.207   2.005   7.995 -0.4308  1.6497 -0.5708
   32SAPC  C312 4347   3.134   1.831   8.118 -0.7031 -0.6810 -0.3521
   32SAPC  H12X 4348   3.238   1.793   8.107  0.1376  1.3453  0.0784
   32SAPC  H12Y 4349   3.068   1.743   8.107 -2.8184  0.3053  2.9318
   32SAPC  C313 4350   3.101   1.885   8.259 -0.1239  0.2117 -0.0149
   32SAPC  H13X 4351   3.079   1.805   8.332 -3.2667 -0.4206 -1.4631
   32SAPC  H13Y 4352   3.001   1.934   8.257  0.1681  0.9046  1.3207
   32SAPC  C314 4353   3.211   1.979   8.316 -0.0595 -0.8338 -0.3960
   32SAPC  H14X 4354   3.256   2.030   8.229 -0.7884 -0.7238 -0.7187
   32SAPC  H14Y 4355   3.287   1.928   8.379  0.0367  1.1285  1.1993
   32SAPC  C315 4356   3.152   2.078   8.414 -0.4980  0.3488 -0.1903
   32SAPC  H15X 4357   3.220   2.122   8.490  0.2633 -0.8917 -0.1275
   32SAPC  H15Y 4358   3.079   2.023   8.478  2.5797 -2.0347  1.5196
   32SAPC  C316 4359   3.084   2.200   8.347  0.3168 -0.1990 -0.5515
   32SAPC  H16X 4360   3.024   2.170   8.259  1.1767 -0.8372 -0.9290
   32SAPC  H16Y 4361   3.162   2.267   8.304  1.1901 -0.8477 -0.0060
   32SAPC  C317 4362   3.000   2.275   8.457  0.4275 -0.1388  0.2958
   32SAPC  H17X 4363   2.969   2.374   8.419 -0.1941  0.3002  1.8458
   32SAPC  H17Y 4364   3.062   2.320   8.537 -0.6684 -0.1359  1.1784
   32SAPC  C318 4365   2.876   2.200   8.518 -0.3786  0.0648  0.2243
   32SAPC  H18X 4366   2.907   2.121   8.589  0.8869  0.8047  0.5338
   32SAPC  H18Y 4367   2.819   2.160   8.432  0.9395  0.1475 -0.7186
   32SAPC  H18Z 4368   2.811   2.272   8.573 -1.9696 -1.3903  0.3196
   33POPC     N 4369   0.142   4.003  10.448 -0.1258 -0.0788  0.8039
   33POPC   C12 4370   0.237   3.946  10.554 -0.0964 -0.1280 -0.3201
   33POPC  H12A 4371   0.284   3.858  10.514  3.1238  1.7495 -1.0250
   33POPC  H12B 4372   0.191   3.914  10.646  3.4455 -1.7325  1.0919
   33POPC   C13 4373   0.060   3.886  10.391 -0.5067 -0.2224  0.2634
   33POPC  H13A 4374   0.017   3.915  10.296 -1.0963 -0.4515  0.4545
   33POPC  H13B 4375   0.117   3.799  10.364 -1.1795 -0.0564 -1.8525
   33POPC  H13C 4376  -0.004   3.838  10.464 -2.6307 -1.1981 -2.0723
   33POPC   C14 4377   0.051   4.107  10.501 -0.4087 -0.2953 -0.3306
   33POPC  H14A 4378  -0.011   4.084  10.586  0.7750 -1.4548  0.2484
   33POPC  H14B 4379   0.102   4.199  10.528  0.5994 -0.9363 -0.0217
   33POPC  H14C 4380  -0.020   4.136  10.424  1.7683  0.0486 -2.3140
   33POPC   C15 4381   0.219   4.058  10.331  0.1799 -0.1805 -0.1808
   33POPC  H15A 4382   0.157   4.110  10.260  2.4629  1.7621 -0.8808
   33POPC  H15B 4383   0.261   3.973  10.279  0.0334 -0.3077 -0.0908
   33POPC  H15C 4384   0.286   4.137  10.362 -1.6877  1.8095 -0.9619
   33POPC   C11 4385   0.358   4.046  10.591  0.8849 -0.9088 -0.0892
   33POPC  H11A 4386   0.429   4.058  10.506 -1.2222  1.2651 -1.7025
   33POPC  H11B 4387   0.411   4.000  10.677 -0.9332 -1.8855  0.5503
   33POPC     P 4388   0.363   4.306  10.623  0.0363 -0.1848  0.0452
   33POPC   O13 4389   0.479   4.320  10.707 -0.0478  0.1625  0.0341
   33POPC   O14 4390   0.265   4.413  10.625  0.2450 -0.1839  0.2505
   33POPC   O12 4391   0.298   4.170  10.643  0.2355  0.1254 -0.1544
   33POPC   O11 4392   0.401   4.294  10.464 -0.5369 -0.2263 -0.3683
   33POPC    C1 4393   0.506   4.374  10.407 -0.2770 -0.1332  0.0950
   33POPC    HA 4394   0.488   4.481  10.431 -1.8903 -0.6857  1.5714
   33POPC    HB 4395   0.607   4.348  10.446  1.3861 -1.2698 -4.3739
   33POPC    C2 4396   0.515   4.345  10.258  0.2173  0.1219  0.2660
   33POPC    HS 4397   0.575   4.429  10.218  3.3103 -2.0699 -0.1363
   33POPC   O21 4398   0.383   4.347  10.200 -0.0494  0.4225 -0.1814
   33POPC   C21 4399   0.317   4.459  10.213  0.8265 -0.1044 -0.4390
   33POPC   O22 4400   0.358   4.575  10.230 -0.6748  0.3855  0.1690
   33POPC   C22 4401   0.170   4.425  10.175 -0.3439  0.3083 -0.0795
   33POPC   H2R 4402   0.102   4.504  10.214 -1.9550 -0.5959 -0.9618
   33POPC   H2S 4403   0.140   4.328  10.220  0.7280  1.4548  3.4087
   33POPC    C3 4404   0.584   4.205  10.220  0.3505  0.4124 -0.3606
   33POPC    HX 4405   0.544   4.121  10.280  1.7066 -2.1916 -2.9002
   33POPC    HY 4406   0.688   4.214  10.258  1.1291 -0.1820 -2.2839
   33POPC   O31 4407   0.580   4.186  10.078 -0.0531 -0.4706  0.0166
   33POPC   C31 4408   0.498   4.089  10.042 -0.5167  0.5410 -0.5085
   33POPC   O32 4409   0.446   4.007  10.110 -0.0762  0.2764  0.3291
   33POPC   C32 4410   0.483   4.112   9.901  0.5015 -0.8872  0.1580
   33POPC   H2X 4411   0.582   4.078   9.864  1.1690 -0.9220  1.8763
   33POPC   H2Y 4412   0.467   4.217   9.868 -0.8540 -0.3687  2.2571
   33POPC   C23 4413   0.157   4.402  10.023  0.2781 -0.0792 -0.2231
   33POPC   H3R 4414   0.059   4.358   9.994 -0.6689  2.1394 -0.6642
   33POPC   H3S 4415   0.235   4.329   9.993  1.0902  0.9013 -0.5408
   33POPC   C24 4416   0.170   4.529   9.941  0.1373 -0.5801 -0.5491
   33POPC   H4R 4417   0.271   4.573   9.954 -1.3997  2.6455  1.9863
   33POPC   H4S 4418   0.105   4.606   9.988  1.6035  1.3881 -1.5848
   33POPC   C25 4419   0.133   4.520   9.796 -0.1648  0.1823  0.1300
   33POPC   H5R 4420   0.022   4.526   9.788 -0.1522  3.3978  1.2474
   33POPC   H5S 4421   0.176   4.426   9.754  1.0111 -0.3915  2.4497
   33POPC   C26 4422   0.200   4.636   9.721  0.1379 -0.1869 -0.1206
   33POPC   H6R 4423   0.310   4.648   9.733  0.0114 -1.6337  3.8290
   33POPC   H6S 4424   0.159   4.733   9.757 -0.7193 -0.0898 -1.2959
   33POPC   C27 4425   0.177   4.634   9.568  0.3648 -0.2995 -0.4553
   33POPC   H7R 4426   0.071   4.610   9.543  0.9696 -0.9241 -2.5839
   33POPC   H7S 4427   0.237   4.554   9.519 -0.1183 -0.9922  0.0533
   33POPC   C28 4428   0.207   4.764   9.495 -0.1538  0.5074  0.4245
   33POPC   H8R 4429   0.156   4.852   9.540  1.2731  2.9636 -2.4212
   33POPC   H8S 4430   0.164   4.750   9.393 -0.7580  0.8361  0.6246
   33POPC   C29 4431   0.350   4.798   9.482 -0.4272 -0.1674  0.0394
   33POPC   H91 4432   0.400   4.835   9.573  1.8496 -0.8121 -0.8878
   33POPC  C210 4433   0.432   4.803   9.378 -0.1571  0.6846 -0.0748
   33POPC  H101 4434   0.536   4.835   9.394  0.3724 -0.3948 -1.1235
   33POPC  C211 4435   0.402   4.773   9.231 -0.0389  0.2626 -0.2515
   33POPC  H11R 4436   0.301   4.736   9.203  0.5455 -1.1883 -0.5570
   33POPC  H11S 4437   0.469   4.695   9.190 -0.2104 -1.4266  2.4173
   33POPC  C212 4438   0.427   4.910   9.155 -0.3701  0.6319  0.8201
   33POPC  H12R 4439   0.536   4.933   9.163  0.0781 -0.7507 -0.6485
   33POPC  H12S 4440   0.370   4.997   9.193 -2.4735  0.0912 -0.8998
   33POPC  C213 4441   0.401   4.899   9.003 -0.0026 -0.1590 -0.0462
   33POPC  H13R 4442   0.294   4.871   8.991  0.2282 -2.3715  2.1064
   33POPC  H13S 4443   0.464   4.823   8.953  1.4305  0.9017  0.1033
   33POPC  C214 4444   0.419   5.032   8.928 -0.5781  0.1475  0.2633
   33POPC  H14R 4445   0.520   5.073   8.950 -0.5943 -0.6647  2.0165
   33POPC  H14S 4446   0.346   5.106   8.966  0.5876  1.8027 -0.5896
   33POPC  C215 4447   0.406   5.021   8.779  0.1057 -0.5488 -0.2065
   33POPC  H15R 4448   0.301   5.032   8.746 -0.4666  0.5559  1.8500
   33POPC  H15S 4449   0.435   4.916   8.754  1.9343  0.3698 -2.2292
   33POPC  C216 4450   0.499   5.111   8.698  0.0219 -0.2316 -0.8016
   33POPC  H16R 4451   0.503   5.082   8.590  3.4986  2.2510 -1.5422
   33POPC  H16S 4452   0.602   5.104   8.740  0.2593  1.7681 -0.9592
   33POPC  C217 4453   0.454   5.264   8.705 -0.2883 -0.3549  0.0075
   33POPC  H17R 4454   0.430   5.297   8.809 -1.2565 -2.4768  0.5174
   33POPC  H17S 4455   0.355   5.276   8.657  0.0192  1.3612 -0.2548
   33POPC  C218 4456   0.544   5.357   8.618 -0.7355  0.2243  0.2238
   33POPC  H18R 4457   0.484   5.444   8.586  0.3162  0.6078 -0.7443
   33POPC  H18S 4458   0.579   5.300   8.529 -1.5119 -1.5165  0.9845
   33POPC  H18T 4459   0.630   5.394   8.678 -0.4306  0.3968 -0.3193
   33POPC   C33 4460   0.365   4.037   9.836 -0.3549 -0.6252 -0.1999
   33POPC   H3X 4461   0.280   4.099   9.871  0.1234  0.3439 -0.7354
   33POPC   H3Y 4462   0.356   3.941   9.892  3.5986  0.2183  2.3248
   33POPC   C34 4463   0.388   4.031   9.681 -0.3271 -0.3352  0.1358
   33POPC   H4X 4464   0.323   3.948   9.646  0.6600 -1.5573  1.0963
   33POPC   H4Y 4465   0.491   3.994   9.661 -1.0262 -1.5010 -1.5775
   33POPC   C35 4466   0.372   4.157   9.606  0.0676 -0.1006 -0.0839
   33POPC   H5X 4467   0.440   4.232   9.650  1.9846 -2.1569  0.6434
   33POPC   H5Y 4468   0.269   4.196   9.622 -1.2279 -3.1545 -0.2249
   33POPC   C36 4469   0.383   4.137   9.454  0.6012 -0.7724  0.1143
   33POPC   H6X 4470   0.346   4.035   9.434  0.7701 -0.7085 -0.5535
   33POPC   H6Y 4471   0.492   4.147   9.432  0.0072  2.4150 -2.1863
   33POPC   C37 4472   0.316   4.251   9.369 -0.0144  0.0879 -0.4694
   33POPC   H7X 4473   0.358   4.345   9.410 -0.6198  0.1080  0.1143
   33POPC   H7Y 4474   0.208   4.256   9.392 -0.0912  0.3207 -0.8677
   33POPC   C38 4475   0.340   4.233   9.215 -0.0481 -0.3321 -0.8238
   33POPC   H8X 4476   0.271   4.152   9.183 -1.9256 -1.1802  4.3785
   33POPC   H8Y 4477   0.450   4.218   9.207  0.6822  0.8682  3.6684
   33POPC   C39 4478   0.297   4.357   9.137 -0.0134 -0.9381  0.5299
   33POPC   H9X 4479   0.326   4.451   9.189 -1.0922 -0.4259  0.2294
   33POPC   H9Y 4480   0.187   4.365   9.127 -0.1987 -0.5019  2.6297
   33POPC  C310 4481   0.359   4.369   8.996  0.7641 -0.3098 -0.3833
   33POPC  H10X 4482   0.350   4.270   8.948 -1.5830  0.0571 -0.8547
   33POPC  H10Y 4483   0.468   4.391   8.999  1.3381 -2.9295  1.9558
   33POPC  C311 4484   0.282   4.475   8.915  0.0147 -0.6079  0.1200
   33POPC  H11X 4485   0.284   4.569   8.973  1.5356 -0.7094  0.2793
   33POPC  H11Y 4486   0.176   4.446   8.904  0.0628 -0.8857  0.3588
   33POPC  C312 4487   0.347   4.512   8.780 -0.2307  0.3190  0.4123
   33POPC  H12X 4488   0.454   4.540   8.791  1.3059 -3.9380 -1.5307
   33POPC  H12Y 4489   0.282   4.579   8.721  1.0352  1.4645  0.2740
   33POPC  C313 4490   0.356   4.384   8.690  0.2518 -0.5279 -0.3816
   33POPC  H13X 4491   0.433   4.309   8.719  0.8683 -0.4591 -1.7425
   33POPC  H13Y 4492   0.385   4.418   8.588 -1.5085  2.6950  0.0889
   33POPC  C314 4493   0.216   4.310   8.676  0.4041  0.3237  0.2372
   33POPC  H14X 4494   0.133   4.383   8.663  0.9967  0.6607 -1.8842
   33POPC  H14Y 4495   0.198   4.265   8.776  1.8196 -1.8337 -0.4016
   33POPC  C315 4496   0.207   4.200   8.567 -0.1026 -0.2361 -0.1075
   33POPC  H15X 4497   0.270   4.243   8.486  2.3939  1.6467  2.6265
   33POPC  H15Y 4498   0.107   4.203   8.519  0.2010 -0.8925 -0.8095
   33POPC  C316 4499   0.246   4.059   8.609 -0.2191 -0.5257  0.7083
   33POPC  H16X 4500   0.223   3.978   8.537  1.0652 -0.6891  0.4668
   33POPC  H16Y 4501   0.188   4.028   8.698  0.1577 -2.3563  0.3512
   33POPC  H16Z 4502   0.352   4.060   8.640  0.3530 -0.3980 -1.1085
   34POPC     N 4503   6.163   3.883  10.791 -0.2166 -0.5706  0.3853
   34POPC   C12 4504   6.228   4.024  10.781  0.2990 -0.0554 -0.1481
   34POPC  H12A 4505   6.166   4.100  10.825  2.5622  1.8297 -0.0033
   34POPC  H12B 4506   6.243   4.055  10.679 -1.0619 -0.5582 -0.5098
   34POPC   C13 4507   6.026   3.889  10.734 -0.1496  0.1003  0.6725
   34POPC  H13A 4508   5.978   3.794  10.748  1.3931 -0.8738 -0.3382
   34POPC  H13B 4509   5.967   3.963  10.785  1.7831  0.6521  2.2348
   34POPC  H13C 4510   6.021   3.910  10.628 -3.1959 -0.0720  0.6956
   34POPC   C14 4511   6.243   3.783  10.717 -0.5592 -0.7984  0.1484
   34POPC  H14A 4512   6.258   3.814  10.615  0.4834  2.5334  1.1978
   34POPC  H14B 4513   6.346   3.787  10.751 -0.2553 -0.6799 -0.7511
   34POPC  H14C 4514   6.210   3.680  10.724 -0.5743 -0.9215 -1.3259
   34POPC   C15 4515   6.149   3.854  10.941 -0.3444 -0.0093 -0.5638
   34POPC  H15A 4516   6.127   3.749  10.956  2.2225 -0.6626 -0.8703
   34POPC  H15B 4517   6.063   3.906  10.981 -0.8093  0.3390 -1.9716
   34POPC  H15C 4518   6.245   3.867  10.989 -0.9929  1.8520  0.3427
   34POPC   C11 4519   6.361   4.061  10.857  0.4162  0.3156  0.3135
   34POPC  H11A 4520   6.337   4.042  10.964  0.5992  1.3382  0.5509
   34POPC  H11B 4521   6.381   4.170  10.847  0.4402  0.3751  0.9398
   34POPC     P 4522   6.560   4.019  10.696  0.0736  0.0221 -0.2525
   34POPC   O13 4523   6.616   3.889  10.640 -0.0499 -0.7764  0.1439
   34POPC   O14 4524   6.656   4.124  10.739  0.2462 -0.4945  0.2740
   34POPC   O12 4525   6.463   3.973  10.815 -0.4375  0.0746  0.0596
   34POPC   O11 4526   6.464   4.084  10.585 -0.3152 -0.1406  0.1512
   34POPC    C1 4527   6.421   4.018  10.466  0.1764 -0.3806 -0.2627
   34POPC    HA 4528   6.313   4.039  10.452  0.5798  2.6045  0.4558
   34POPC    HB 4529   6.424   3.907  10.475  1.8611 -0.4162 -0.9417
   34POPC    C2 4530   6.500   4.064  10.339  0.0918 -0.3937 -0.2187
   34POPC    HS 4531   6.605   4.037  10.362  0.8086  1.9339 -0.4623
   34POPC   O21 4532   6.475   4.203  10.329 -0.3955 -0.3364  0.2787
   34POPC   C21 4533   6.579   4.271  10.291 -0.2488  0.0659  0.4001
   34POPC   O22 4534   6.688   4.227  10.262 -0.3321 -0.6647 -0.2688
   34POPC   C22 4535   6.547   4.417  10.274 -0.3621 -0.0621  0.0596
   34POPC   H2R 4536   6.622   4.473  10.335 -2.2215  1.2460  1.2470
   34POPC   H2S 4537   6.449   4.430  10.325 -0.3549 -0.2004  0.1086
   34POPC    C3 4538   6.442   3.993  10.208 -0.1272 -0.1208  0.8502
   34POPC    HX 4539   6.332   4.002  10.220 -0.5482 -0.1505 -2.3059
   34POPC    HY 4540   6.463   3.884  10.208  0.3723 -0.0922 -1.8522
   34POPC   O31 4541   6.484   4.052  10.094  0.0868 -0.1809 -0.1991
   34POPC   C31 4542   6.618   4.019  10.070 -0.5327  1.0157  0.6929
   34POPC   O32 4543   6.690   3.946  10.134  0.3018  0.0082 -0.0028
   34POPC   C32 4544   6.661   4.095   9.947  0.4022  0.1086 -0.2362
   34POPC   H2X 4545   6.699   4.197   9.969  1.3831 -0.7570  2.4236
   34POPC   H2Y 4546   6.570   4.120   9.888 -1.5462 -1.1531  2.1049
   34POPC   C23 4547   6.547   4.470  10.128  0.8248 -0.3091  0.0548
   34POPC   H3R 4548   6.632   4.425  10.074  1.4264 -3.2747  3.1040
   34POPC   H3S 4549   6.549   4.581  10.135  0.6592 -0.3934  3.3970
   34POPC   C24 4550   6.424   4.430  10.060 -0.8455  0.4147  0.6882
   34POPC   H4R 4551   6.337   4.467  10.118 -0.8590 -1.4255  1.9332
   34POPC   H4S 4552   6.423   4.319  10.069 -1.2271  0.1743 -1.6709
   34POPC   C25 4553   6.416   4.474   9.913  0.1467 -0.2941  0.2731
   34POPC   H5R 4554   6.417   4.584   9.898  0.8884 -0.1503  1.3378
   34POPC   H5S 4555   6.307   4.461   9.890 -0.6854  3.2190  1.6936
   34POPC   C26 4556   6.514   4.415   9.811 -0.1349 -0.3775  0.5844
   34POPC   H6R 4557   6.491   4.306   9.808 -2.0438 -0.0123  1.0534
   34POPC   H6S 4558   6.620   4.433   9.840  0.1299 -2.7151  1.3470
   34POPC   C27 4559   6.492   4.481   9.675 -0.1613  0.7971  0.6672
   34POPC   H7R 4560   6.503   4.590   9.695 -1.3154  0.4241  4.0724
   34POPC   H7S 4561   6.395   4.471   9.622  0.3585  1.1113 -0.3605
   34POPC   C28 4562   6.602   4.440   9.574  0.6988 -0.3249  0.2397
   34POPC   H8R 4563   6.596   4.330   9.567  0.3101 -0.4357  1.8508
   34POPC   H8S 4564   6.705   4.467   9.607  0.5028  0.8108 -0.0120
   34POPC   C29 4565   6.580   4.527   9.449 -0.5965 -0.3625 -0.1464
   34POPC   H91 4566   6.536   4.627   9.461 -2.6171 -1.3912  1.9510
   34POPC  C210 4567   6.602   4.485   9.324 -0.3909 -0.2094  0.5029
   34POPC  H101 4568   6.576   4.557   9.245 -1.4295 -0.9067  0.1881
   34POPC  C211 4569   6.666   4.356   9.267  1.1184  0.5347 -0.4262
   34POPC  H11R 4570   6.629   4.268   9.324  2.5624 -1.2871 -2.2121
   34POPC  H11S 4571   6.776   4.353   9.281  0.9728 -0.1159  0.7541
   34POPC  C212 4572   6.627   4.330   9.123  0.6486  0.4509  0.6905
   34POPC  H12R 4573   6.519   4.344   9.101  0.8262  0.4342 -0.2654
   34POPC  H12S 4574   6.649   4.226   9.089  1.7169  1.6391 -2.7888
   34POPC  C213 4575   6.705   4.423   9.023 -0.2179  0.1203  0.8068
   34POPC  H13R 4576   6.808   4.382   9.022 -0.2121  0.1390  0.6778
   34POPC  H13S 4577   6.696   4.528   9.059 -2.8027  0.0995  0.4043
   34POPC  C214 4578   6.632   4.421   8.886 -0.2041 -0.1750  0.3631
   34POPC  H14R 4579   6.654   4.506   8.819  0.2405 -1.7090 -1.5208
   34POPC  H14S 4580   6.524   4.423   8.910 -0.0729  1.2532  0.9474
   34POPC  C215 4581   6.649   4.284   8.808 -0.7127  0.8019 -0.2537
   34POPC  H15R 4582   6.668   4.206   8.885 -1.3061 -0.1359 -1.0317
   34POPC  H15S 4583   6.734   4.299   8.738  0.2202 -0.3538  0.5806
   34POPC  C216 4584   6.525   4.244   8.727  0.1805  0.8159 -0.0276
   34POPC  H16R 4585   6.563   4.164   8.660  0.7657 -0.5028  1.7966
   34POPC  H16S 4586   6.488   4.336   8.678 -3.2315  0.0151  0.7992
   34POPC  C217 4587   6.412   4.184   8.814 -1.2239  0.3716  0.6830
   34POPC  H17R 4588   6.347   4.267   8.848 -0.9375  1.5154 -1.3673
   34POPC  H17S 4589   6.464   4.135   8.899  2.0787 -2.7372 -2.7428
   34POPC  C218 4590   6.334   4.078   8.733 -0.1855 -0.5213 -0.1948
   34POPC  H18R 4591   6.271   4.137   8.663 -1.7409 -2.5062 -0.5282
   34POPC  H18S 4592   6.259   4.027   8.796 -0.6022  0.7897  0.4043
   34POPC  H18T 4593   6.395   3.996   8.689  0.3010 -0.3301  0.1144
   34POPC   C33 4594   6.760   4.025   9.858  0.5380 -0.4903 -0.1408
   34POPC   H3X 4595   6.714   3.924   9.846 -2.4182  0.7715 -0.3657
   34POPC   H3Y 4596   6.860   4.006   9.903  0.8434  0.7974 -0.2293
   34POPC   C34 4597   6.772   4.099   9.721  0.0405  0.1426 -0.2233
   34POPC   H4X 4598   6.837   4.188   9.739 -0.8682  0.2173  3.4792
   34POPC   H4Y 4599   6.670   4.132   9.695 -1.5512 -3.7955  0.3988
   34POPC   C35 4600   6.833   4.017   9.609  0.5995 -0.4877 -0.0735
   34POPC   H5X 4601   6.767   3.928   9.609  0.3628 -0.3130 -0.3324
   34POPC   H5Y 4602   6.939   4.002   9.639  1.6949  3.4794 -1.3346
   34POPC   C36 4603   6.810   4.087   9.475  0.8094  0.2455 -0.8450
   34POPC   H6X 4604   6.872   4.179   9.482  1.5228 -0.3712  2.5649
   34POPC   H6Y 4605   6.705   4.116   9.455  1.4217  0.2083 -5.0763
   34POPC   C37 4606   6.857   3.999   9.351  1.0029  0.3605 -0.3540
   34POPC   H7X 4607   6.813   3.898   9.366  0.9964  0.5072  0.7220
   34POPC   H7Y 4608   6.966   3.982   9.358  0.6874 -1.2653  1.3817
   34POPC   C38 4609   6.819   4.047   9.213  0.5487 -0.3615  0.3727
   34POPC   H8X 4610   6.858   4.150   9.200  0.0353 -0.5942 -5.0610
   34POPC   H8Y 4611   6.709   4.052   9.199  0.4660  0.2496  1.1763
   34POPC   C39 4612   6.876   3.960   9.092  0.1897  0.0824  0.4554
   34POPC   H9X 4613   6.845   3.858   9.122  0.9331  0.2586  1.9661
   34POPC   H9Y 4614   6.987   3.972   9.088  0.0335  1.2780 -0.6807
   34POPC  C310 4615   6.818   3.988   8.951 -0.8391  0.0030 -0.3358
   34POPC  H10X 4616   6.855   4.084   8.909 -1.1726  1.3004  2.1416
   34POPC  H10Y 4617   6.711   4.006   8.978 -0.4082  0.0219  1.5220
   34POPC  C311 4618   6.837   3.868   8.846  0.0679  0.3808 -0.6092
   34POPC  H11X 4619   6.816   3.770   8.893  0.3029  1.1353  1.1711
   34POPC  H11Y 4620   6.943   3.863   8.815  0.5554 -0.3204  1.0685
   34POPC  C312 4621   6.740   3.879   8.724 -0.4335 -0.2738  0.0970
   34POPC  H12X 4622   6.789   3.944   8.649  3.0989 -1.8844  0.8224
   34POPC  H12Y 4623   6.648   3.934   8.755 -1.2255 -1.3922 -0.1923
   34POPC  C313 4624   6.701   3.740   8.675  0.5064  0.4902  0.7067
   34POPC  H13X 4625   6.673   3.673   8.759  0.1047  0.3946  0.5020
   34POPC  H13Y 4626   6.783   3.695   8.616 -0.7245 -1.3374  0.3265
   34POPC  C314 4627   6.571   3.744   8.587  1.0809  0.1714  0.3518
   34POPC  H14X 4628   6.491   3.797   8.643  1.1556 -1.1700  1.8083
   34POPC  H14Y 4629   6.537   3.639   8.574  0.3391  0.0244  2.9610
   34POPC  C315 4630   6.582   3.821   8.458 -0.0417  0.1321  0.2997
   34POPC  H15X 4631   6.584   3.930   8.481 -2.1701  0.1416  0.6501
   34POPC  H15Y 4632   6.481   3.814   8.414 -0.6578  2.8855  1.0811
   34POPC  C316 4633   6.695   3.770   8.365 -0.9967  0.1663 -0.1758
   34POPC  H16X 4634   6.693   3.838   8.277 -1.3142  1.2129  0.6122
   34POPC  H16Y 4635   6.666   3.670   8.328  0.8749 -0.6768  0.5364
   34POPC  H16Z 4636   6.793   3.759   8.416 -0.6973 -1.4564 -1.0566
   35POPC     N 4637   5.240   6.555  11.082  0.2607 -0.0847 -0.1648
   35POPC   C12 4638   5.310   6.493  10.964 -0.6141  1.1888  0.0013
   35POPC  H12A 4639   5.357   6.569  10.904  0.1803 -0.2264 -1.2716
   35POPC  H12B 4640   5.240   6.435  10.905 -1.0626  0.4299  1.2298
   35POPC   C13 4641   5.332   6.627  11.177  0.0090  0.1212  0.3092
   35POPC  H13A 4642   5.289   6.652  11.272  1.0727  1.8752  0.3588
   35POPC  H13B 4643   5.410   6.554  11.193 -0.8122 -1.1226 -1.0424
   35POPC  H13C 4644   5.384   6.701  11.119  1.3873 -1.9049 -1.2176
   35POPC   C14 4645   5.144   6.656  11.036 -0.2827 -1.0324  0.3161
   35POPC  H14A 4646   5.077   6.690  11.114  2.2565  3.1186  0.9961
   35POPC  H14B 4647   5.186   6.741  10.984  2.6128 -2.0943  0.7297
   35POPC  H14C 4648   5.077   6.610  10.965 -0.4980  0.5637 -0.5739
   35POPC   C15 4649   5.167   6.448  11.160  0.5271  0.0870  0.1609
   35POPC  H15A 4650   5.231   6.365  11.188  1.0723  0.8786  1.3607
   35POPC  H15B 4651   5.080   6.408  11.109 -0.1387 -0.9827  2.0553
   35POPC  H15C 4652   5.113   6.489  11.244 -0.6728 -1.7984  0.3698
   35POPC   C11 4653   5.427   6.389  10.988 -0.5346  0.2181  0.7503
   35POPC  H11A 4654   5.463   6.345  10.892 -0.4120 -0.6073  1.1610
   35POPC  H11B 4655   5.387   6.305  11.049  0.1706  0.5736  1.7158
   35POPC     P 4656   5.645   6.527  10.970 -0.0438 -0.4111  0.2170
   35POPC   O13 4657   5.738   6.436  10.898  0.0012  0.3550 -0.2964
   35POPC   O14 4658   5.714   6.616  11.069  0.0519  0.5411  0.0693
   35POPC   O12 4659   5.536   6.445  11.058  0.6074 -0.4288  0.2389
   35POPC   O11 4660   5.553   6.611  10.880  0.0183  0.8936  0.4245
   35POPC    C1 4661   5.589   6.750  10.855  0.0490  1.2020  0.2073
   35POPC    HA 4662   5.699   6.764  10.865 -0.1692  2.2216  1.4594
   35POPC    HB 4663   5.536   6.818  10.925  1.0948 -0.1785  2.4634
   35POPC    C2 4664   5.559   6.791  10.703  0.5619  0.1299 -0.3526
   35POPC    HS 4665   5.449   6.798  10.690  0.5848  0.3655 -0.4279
   35POPC   O21 4666   5.620   6.694  10.611  0.2027 -0.5350 -0.4964
   35POPC   C21 4667   5.570   6.697  10.487 -0.2131 -0.0474  0.0954
   35POPC   O22 4668   5.457   6.738  10.462  0.0452 -0.0298 -0.4818
   35POPC   C22 4669   5.662   6.640  10.378 -0.0790  0.1072  0.9674
   35POPC   H2R 4670   5.607   6.552  10.340 -1.0049  0.7528  0.7676
   35POPC   H2S 4671   5.757   6.615  10.430  0.6914  1.3824  0.2337
   35POPC    C3 4672   5.618   6.930  10.695  0.2190  0.2252  0.3880
   35POPC    HX 4673   5.726   6.919  10.721  0.0308  0.9802  1.5480
   35POPC    HY 4674   5.562   6.997  10.763  0.8958  0.3578  0.8249
   35POPC   O31 4675   5.630   6.990  10.561 -0.0299 -0.2117 -0.0602
   35POPC   C31 4676   5.622   7.126  10.556 -0.5751 -0.8596  0.5232
   35POPC   O32 4677   5.609   7.200  10.649  0.2931 -0.0079 -0.4139
   35POPC   C32 4678   5.637   7.183  10.412 -0.1640  0.2616  0.4847
   35POPC   H2X 4679   5.582   7.280  10.405 -2.0348 -0.8484 -3.5994
   35POPC   H2Y 4680   5.590   7.119  10.334 -2.6703  2.5368 -0.0274
   35POPC   C23 4681   5.683   6.752  10.272 -0.8746 -0.4275  0.4232
   35POPC   H3R 4682   5.750   6.819  10.329 -0.7165 -1.0251  0.9459
   35POPC   H3S 4683   5.596   6.815  10.241 -0.9025  0.2681  1.8784
   35POPC   C24 4684   5.749   6.700  10.132  0.7118 -0.5684 -0.5038
   35POPC   H4R 4685   5.826   6.630  10.171 -0.3386 -0.4563  1.9203
   35POPC   H4S 4686   5.781   6.794  10.081 -1.0510  0.2506 -0.1820
   35POPC   C25 4687   5.653   6.618  10.050 -0.0748  0.0980 -0.0065
   35POPC   H5R 4688   5.555   6.669  10.044  0.9054  1.9335 -1.0509
   35POPC   H5S 4689   5.633   6.514  10.085  0.6319 -0.3939 -0.9811
   35POPC   C26 4690   5.688   6.593   9.904 -0.2409 -0.6672 -0.1542
   35POPC   H6R 4691   5.745   6.498   9.899 -1.6531 -1.6920  1.8374
   35POPC   H6S 4692   5.747   6.685   9.886 -0.0409 -0.6361  0.6223
   35POPC   C27 4693   5.569   6.595   9.806  0.3433 -0.3057  0.2057
   35POPC   H7R 4694   5.516   6.692   9.796 -0.3064 -0.7839 -1.3952
   35POPC   H7S 4695   5.492   6.521   9.836 -0.5576 -0.4109 -2.1262
   35POPC   C28 4696   5.621   6.546   9.664 -0.5688  0.5525  0.1887
   35POPC   H8R 4697   5.524   6.527   9.613  0.7709 -0.3114 -2.1397
   35POPC   H8S 4698   5.661   6.443   9.668 -0.5551  0.3816 -2.5574
   35POPC   C29 4699   5.702   6.630   9.578 -1.1306  0.2011  0.3226
   35POPC   H91 4700   5.769   6.701   9.630 -0.9170  0.0053  0.3155
   35POPC  C210 4701   5.699   6.609   9.445 -0.2816 -0.3093  1.0946
   35POPC  H101 4702   5.755   6.676   9.378 -1.1153 -1.7787 -1.1939
   35POPC  C211 4703   5.618   6.496   9.375 -0.2188  0.3852  0.3040
   35POPC  H11R 4704   5.512   6.523   9.356  0.2702  2.4025  0.1984
   35POPC  H11S 4705   5.626   6.401   9.431  1.7908  1.3059  1.7115
   35POPC  C212 4706   5.688   6.461   9.236 -0.0442 -0.2057  0.1393
   35POPC  H12R 4707   5.628   6.376   9.198 -0.8483  0.2704  0.3349
   35POPC  H12S 4708   5.795   6.433   9.253  0.6439  2.2924  0.3492
   35POPC  C213 4709   5.684   6.570   9.128 -0.6512  0.2481 -0.0993
   35POPC  H13R 4710   5.745   6.539   9.041  0.9652  4.2036 -0.6040
   35POPC  H13S 4711   5.724   6.666   9.169 -0.8793  0.5593 -0.6013
   35POPC  C214 4712   5.555   6.602   9.060 -0.0173 -0.0476 -0.3999
   35POPC  H14R 4713   5.472   6.627   9.129 -0.7373 -2.1191 -0.4477
   35POPC  H14S 4714   5.509   6.517   9.005  0.2561 -1.8260  1.9832
   35POPC  C215 4715   5.600   6.720   8.964  0.4241 -0.5626  0.3879
   35POPC  H15R 4716   5.672   6.673   8.893  3.5094  1.9269  1.5860
   35POPC  H15S 4717   5.648   6.798   9.027  0.3100 -1.1513  1.2238
   35POPC  C216 4718   5.487   6.780   8.879  0.5097  0.3990 -0.3084
   35POPC  H16R 4719   5.511   6.886   8.859  0.9889  1.0264  2.9289
   35POPC  H16S 4720   5.389   6.783   8.932 -0.6368  0.5837 -2.3235
   35POPC  C217 4721   5.468   6.695   8.746  0.4569 -0.1388 -0.1620
   35POPC  H17R 4722   5.418   6.601   8.776 -1.7483  2.3843  5.6034
   35POPC  H17S 4723   5.558   6.662   8.690 -1.6398 -2.1588 -2.5993
   35POPC  C218 4724   5.372   6.778   8.658 -0.0032 -0.6871  0.9431
   35POPC  H18R 4725   5.428   6.872   8.640 -0.0039 -0.4132  2.2853
   35POPC  H18S 4726   5.270   6.789   8.700 -0.3183 -0.8707  0.2356
   35POPC  H18T 4727   5.355   6.722   8.563 -0.4532  0.8776  0.0619
   35POPC   C33 4728   5.785   7.205  10.376 -0.4327 -0.0601  0.3882
   35POPC   H3X 4729   5.838   7.110  10.352 -0.4768 -0.2712  1.1001
   35POPC   H3Y 4730   5.829   7.258  10.464  0.1069 -2.2796  1.5439
   35POPC   C34 4731   5.814   7.294  10.253 -0.2109  0.2569 -0.2013
   35POPC   H4X 4732   5.923   7.314  10.241 -0.1811  0.5043  0.4932
   35POPC   H4Y 4733   5.755   7.387  10.259 -0.5926  0.1489 -1.7942
   35POPC   C35 4734   5.769   7.214  10.125 -0.3224 -0.2681 -1.1088
   35POPC   H5X 4735   5.664   7.184  10.141 -0.4689  1.0082  0.5486
   35POPC   H5Y 4736   5.835   7.126  10.109  1.2739  0.8274 -0.8679
   35POPC   C36 4737   5.792   7.293   9.991  0.1218 -0.3116  0.1501
   35POPC   H6X 4738   5.898   7.325   9.997 -0.1253  0.7930 -1.0616
   35POPC   H6Y 4739   5.729   7.382   9.973  0.5762  0.0394  0.2821
   35POPC   C37 4740   5.789   7.191   9.872  0.1589 -0.3339  0.5151
   35POPC   H7X 4741   5.705   7.122   9.892  0.6716 -0.6376  1.7340
   35POPC   H7Y 4742   5.879   7.127   9.874  0.4984  0.1492  1.0406
   35POPC   C38 4743   5.782   7.275   9.739 -0.1595 -0.6933 -0.2752
   35POPC   H8X 4744   5.841   7.368   9.754  1.2122 -1.9851  3.3110
   35POPC   H8Y 4745   5.679   7.314   9.726 -0.6590 -1.6170  0.7936
   35POPC   C39 4746   5.831   7.192   9.615  0.1179 -0.3559  0.6575
   35POPC   H9X 4747   5.768   7.100   9.611  1.7018 -1.5294  1.7985
   35POPC   H9Y 4748   5.927   7.141   9.635  1.2698  1.8663  1.0669
   35POPC  C310 4749   5.838   7.272   9.479 -0.2913  0.0731 -0.4240
   35POPC  H10X 4750   5.890   7.370   9.491 -1.4828  1.1171 -3.0799
   35POPC  H10Y 4751   5.732   7.297   9.458 -0.8570 -1.1920  0.7529
   35POPC  C311 4752   5.890   7.194   9.359 -0.4043 -0.6248 -0.7076
   35POPC  H11X 4753   5.856   7.088   9.364 -0.8678 -0.4731 -0.6399
   35POPC  H11Y 4754   6.001   7.199   9.353 -0.5109  0.3126 -2.9259
   35POPC  C312 4755   5.853   7.246   9.217  0.5304 -0.0350  0.4473
   35POPC  H12X 4756   5.894   7.348   9.201  0.5366  0.2629  2.2316
   35POPC  H12Y 4757   5.742   7.258   9.215  0.5198 -0.1825 -0.1582
   35POPC  C313 4758   5.914   7.150   9.113  0.0623  0.9860 -0.3783
   35POPC  H13X 4759   5.869   7.050   9.132  0.7762  1.0309  1.7366
   35POPC  H13Y 4760   6.024   7.152   9.130  0.2161 -0.2434 -1.1400
   35POPC  C314 4761   5.886   7.198   8.966 -0.5108 -0.8773  0.3987
   35POPC  H14X 4762   5.947   7.140   8.894 -0.8223  1.8829 -2.2796
   35POPC  H14Y 4763   5.903   7.303   8.937 -1.7131 -0.4412  1.1640
   35POPC  C315 4764   5.742   7.177   8.918 -0.1377  0.3076 -0.9544
   35POPC  H15X 4765   5.675   7.226   8.992  0.2656 -1.2449  0.5038
   35POPC  H15Y 4766   5.704   7.073   8.911  0.0400  0.1742 -0.0537
   35POPC  C316 4767   5.728   7.233   8.776  0.0366  0.0835  1.2509
   35POPC  H16X 4768   5.794   7.180   8.704  1.9887  0.0062  2.9970
   35POPC  H16Y 4769   5.752   7.341   8.778  0.5152  0.0008  0.3037
   35POPC  H16Z 4770   5.626   7.226   8.732  0.4889 -0.0541  0.1931
   36POPC     N 4771   4.413   5.783  11.146 -0.1694  0.4745 -0.2689
   36POPC   C12 4772   4.466   5.802  11.001 -0.0420 -0.1647  0.6738
   36POPC  H12A 4773   4.547   5.873  10.992  0.8201 -1.0985  0.8411
   36POPC  H12B 4774   4.387   5.852  10.948  1.4821  0.6394 -0.9449
   36POPC   C13 4775   4.518   5.744  11.244  0.7627 -0.1740 -0.1852
   36POPC  H13A 4776   4.616   5.785  11.226  1.3743 -2.2028 -1.9046
   36POPC  H13B 4777   4.487   5.755  11.347 -1.0852  0.1549 -0.7389
   36POPC  H13C 4778   4.543   5.639  11.233 -1.6603 -0.9845  1.3315
   36POPC   C14 4779   4.361   5.922  11.187 -0.1807 -0.0033  0.1717
   36POPC  H14A 4780   4.290   5.967  11.120  0.5630 -0.1818 -0.7532
   36POPC  H14B 4781   4.317   5.924  11.286  0.9381  1.3360  0.6676
   36POPC  H14C 4782   4.449   5.983  11.195  0.4084 -0.9741  1.5352
   36POPC   C15 4783   4.301   5.684  11.156  0.5856 -0.2567 -0.7462
   36POPC  H15A 4784   4.326   5.582  11.129 -1.2945 -1.3323  1.2575
   36POPC  H15B 4785   4.217   5.702  11.090  0.7295  0.3937 -0.7576
   36POPC  H15C 4786   4.257   5.672  11.254 -0.8420 -2.3320 -1.5559
   36POPC   C11 4787   4.518   5.678  10.927 -0.3920  0.8387  0.4719
   36POPC  H11A 4788   4.545   5.697  10.821 -0.4466 -0.3885  0.2194
   36POPC  H11B 4789   4.427   5.615  10.913  1.0764 -1.5969  1.3491
   36POPC     P 4790   4.762   5.666  11.000 -0.1463  0.0060  0.0033
   36POPC   O13 4791   4.849   5.585  11.093 -0.2764 -0.6781  0.1368
   36POPC   O14 4792   4.754   5.808  11.034 -1.2472  0.4221 -0.2080
   36POPC   O12 4793   4.619   5.600  10.995  0.7222 -0.5502  0.2286
   36POPC   O11 4794   4.821   5.647  10.859 -0.2135  0.7140  0.8608
   36POPC    C1 4795   4.800   5.529  10.787  0.0609  0.1711 -0.0968
   36POPC    HA 4796   4.701   5.482  10.801  0.4056 -0.2920  0.9018
   36POPC    HB 4797   4.869   5.450  10.824 -0.7108 -1.8592 -2.6595
   36POPC    C2 4798   4.836   5.550  10.643 -0.3373  0.2858  0.3754
   36POPC    HS 4799   4.936   5.599  10.640  0.0822 -0.5753 -0.6521
   36POPC   O21 4800   4.720   5.624  10.594  0.7023 -0.1397 -0.6588
   36POPC   C21 4801   4.754   5.716  10.503 -0.8468  0.0869  0.7279
   36POPC   O22 4802   4.871   5.728  10.465 -0.4277  0.0962 -0.4402
   36POPC   C22 4803   4.632   5.773  10.435 -0.4506  0.1042  0.3705
   36POPC   H2R 4804   4.591   5.846  10.508  2.4654  0.1688  2.0661
   36POPC   H2S 4805   4.557   5.694  10.413  0.3895 -0.8214  0.8039
   36POPC    C3 4806   4.838   5.411  10.565 -0.0404 -0.7940 -0.2595
   36POPC    HX 4807   4.736   5.369  10.576  0.5143 -1.9497  0.6260
   36POPC    HY 4808   4.914   5.345  10.612  3.2586  2.4735 -0.5462
   36POPC   O31 4809   4.865   5.432  10.424  0.2662 -0.3334 -0.2954
   36POPC   C31 4810   4.827   5.340  10.346  0.6013 -0.9971  0.6148
   36POPC   O32 4811   4.777   5.235  10.379  0.5242  0.3181 -0.0234
   36POPC   C32 4812   4.836   5.383  10.191  0.3604 -0.5723  0.0740
   36POPC   H2X 4813   4.941   5.415  10.176  0.3331  0.1599  1.3025
   36POPC   H2Y 4814   4.763   5.463  10.165  0.9496 -0.8794 -2.8298
   36POPC   C23 4815   4.661   5.865  10.313 -0.4959 -0.2059  0.2030
   36POPC   H3R 4816   4.739   5.939  10.341 -1.3230  0.0778  1.9362
   36POPC   H3S 4817   4.566   5.924  10.307 -1.3626 -0.8773  4.1517
   36POPC   C24 4818   4.686   5.781  10.186 -0.9225  0.0265 -0.7184
   36POPC   H4R 4819   4.747   5.693  10.214  0.2313  0.4994 -1.6899
   36POPC   H4S 4820   4.749   5.836  10.113 -1.9246 -0.0308 -1.6451
   36POPC   C25 4821   4.559   5.746  10.118  0.7137  0.3591 -0.0020
   36POPC   H5R 4822   4.507   5.842  10.095  0.4007  0.1940  0.0244
   36POPC   H5S 4823   4.500   5.688  10.192  1.7248 -1.0857 -0.2987
   36POPC   C26 4824   4.580   5.674   9.988 -0.0330 -0.5319 -0.4850
   36POPC   H6R 4825   4.478   5.638   9.963 -0.0068 -0.4691 -0.6866
   36POPC   H6S 4826   4.645   5.584  10.000  0.0705 -0.2024  1.8308
   36POPC   C27 4827   4.641   5.765   9.870  0.1806 -0.0425  0.8012
   36POPC   H7R 4828   4.741   5.795   9.910 -0.7371  1.2905  2.2116
   36POPC   H7S 4829   4.585   5.859   9.854 -0.9151 -0.8826 -0.5210
   36POPC   C28 4830   4.659   5.691   9.741  0.0787  0.2179 -0.2753
   36POPC   H8R 4831   4.563   5.649   9.704 -0.8223  2.4343 -0.5954
   36POPC   H8S 4832   4.730   5.606   9.745  0.1596  0.3255  1.3534
   36POPC   C29 4833   4.722   5.782   9.640  0.0616  0.4165  0.0742
   36POPC   H91 4834   4.766   5.872   9.685  2.4511 -1.3649  1.5243
   36POPC  C210 4835   4.731   5.752   9.510  0.0623  0.0591  0.3867
   36POPC  H101 4836   4.770   5.826   9.438 -0.7160 -1.4295 -1.6885
   36POPC  C211 4837   4.673   5.630   9.438 -0.3740 -0.5369 -0.0782
   36POPC  H11R 4838   4.591   5.587   9.500 -0.3415  1.4966  1.4759
   36POPC  H11S 4839   4.748   5.551   9.421  0.9922  0.7396 -0.1669
   36POPC  C212 4840   4.638   5.660   9.291  0.3825 -0.3857 -0.2549
   36POPC  H12R 4841   4.727   5.715   9.251  0.5456  1.5038  2.4457
   36POPC  H12S 4842   4.549   5.724   9.277  0.0717 -1.0813 -1.6259
   36POPC  C213 4843   4.620   5.532   9.216  0.3639  0.8590 -0.3508
   36POPC  H13R 4844   4.526   5.486   9.250  0.7393  1.8510  2.2698
   36POPC  H13S 4845   4.704   5.463   9.239 -1.9734 -1.8856  0.5603
   36POPC  C214 4846   4.626   5.547   9.066 -0.0184 -0.2731 -0.1961
   36POPC  H14R 4847   4.656   5.448   9.025 -0.3076 -0.2201 -0.5385
   36POPC  H14S 4848   4.700   5.624   9.035 -0.0150 -0.3437 -0.3631
   36POPC  C215 4849   4.494   5.588   9.006 -0.0779 -0.2402 -0.2776
   36POPC  H15R 4850   4.510   5.636   8.907  0.7640  1.5247  0.6736
   36POPC  H15S 4851   4.435   5.655   9.073  0.2439 -0.3846  0.1475
   36POPC  C216 4852   4.408   5.468   8.973  0.6172  0.6406  0.1164
   36POPC  H16R 4853   4.363   5.400   9.048 -2.0669  0.2036 -1.7240
   36POPC  H16S 4854   4.471   5.396   8.917  2.4909  0.9502  1.7155
   36POPC  C217 4855   4.287   5.521   8.881 -0.8300  0.4479 -0.0923
   36POPC  H17R 4856   4.339   5.576   8.800  1.5330  0.6516  1.4720
   36POPC  H17S 4857   4.224   5.589   8.941 -1.7220  2.1242 -2.7543
   36POPC  C218 4858   4.208   5.398   8.837  0.4344  0.0522 -0.1051
   36POPC  H18R 4859   4.267   5.333   8.770  2.8234  2.6462 -0.7193
   36POPC  H18S 4860   4.118   5.434   8.782  2.0450 -0.7743 -3.5338
   36POPC  H18T 4861   4.174   5.351   8.931 -0.8622 -0.9325 -1.0276
   36POPC   C33 4862   4.825   5.259  10.096 -0.3957  0.5102 -0.2080
   36POPC   H3X 4863   4.720   5.222  10.095 -0.2925  0.2068  0.3318
   36POPC   H3Y 4864   4.892   5.176  10.127  0.0751  1.2267  0.7240
   36POPC   C34 4865   4.851   5.297   9.956  0.1658 -0.4446  0.7785
   36POPC   H4X 4866   4.957   5.327   9.940 -0.6364  1.6108 -1.0357
   36POPC   H4Y 4867   4.795   5.389   9.930  2.0063  0.2413 -1.0322
   36POPC   C35 4868   4.818   5.182   9.860  0.2882 -0.6402 -0.0690
   36POPC   H5X 4869   4.720   5.142   9.894 -0.3459  0.4033 -0.6216
   36POPC   H5Y 4870   4.897   5.105   9.851 -0.1277 -1.0449 -0.2448
   36POPC   C36 4871   4.792   5.253   9.725 -0.1559  0.2655 -0.0895
   36POPC   H6X 4872   4.879   5.316   9.699 -0.0260  0.9329  1.7740
   36POPC   H6Y 4873   4.699   5.314   9.719  1.2351  2.4019 -0.8957
   36POPC   C37 4874   4.792   5.139   9.616  0.2578 -0.2032 -0.1251
   36POPC   H7X 4875   4.716   5.060   9.633  1.1672 -1.1067 -0.2123
   36POPC   H7Y 4876   4.892   5.091   9.621  0.4628  0.1067 -1.0677
   36POPC   C38 4877   4.759   5.204   9.478 -0.1957 -0.3859  0.0356
   36POPC   H8X 4878   4.822   5.292   9.449 -1.1487  0.5711  0.7860
   36POPC   H8Y 4879   4.653   5.236   9.486  0.0184 -0.2100  3.1002
   36POPC   C39 4880   4.784   5.101   9.369 -0.2503 -0.2105 -0.4147
   36POPC   H9X 4881   4.706   5.022   9.371  0.6684 -1.1342 -0.5352
   36POPC   H9Y 4882   4.882   5.056   9.393 -0.2790 -0.2868 -0.4410
   36POPC  C310 4883   4.775   5.160   9.225 -0.4913 -0.2009 -0.0288
   36POPC  H10X 4884   4.864   5.219   9.196  0.1592 -1.5308 -0.7990
   36POPC  H10Y 4885   4.688   5.229   9.212 -0.4165 -0.2113 -0.6235
   36POPC  C311 4886   4.748   5.041   9.127 -0.2749 -0.4000 -0.5879
   36POPC  H11X 4887   4.657   4.986   9.159 -0.6438 -0.2147 -1.3021
   36POPC  H11Y 4888   4.849   4.995   9.125  0.7227  1.6430 -0.5039
   36POPC  C312 4889   4.724   5.082   8.986 -0.3422 -0.6713  0.4714
   36POPC  H12X 4890   4.807   5.152   8.961 -2.1653  1.4716  0.0533
   36POPC  H12Y 4891   4.624   5.130   8.981  0.4320  0.9490 -0.5451
   36POPC  C313 4892   4.728   4.972   8.882  0.1748 -0.2795  0.1869
   36POPC  H13X 4893   4.627   4.924   8.888  0.4464 -1.4077 -2.7309
   36POPC  H13Y 4894   4.801   4.892   8.905  1.2323  0.9040  1.0569
   36POPC  C314 4895   4.741   5.024   8.731  0.4856  0.4495 -0.7269
   36POPC  H14X 4896   4.847   5.050   8.709  1.2930 -0.2330  1.9059
   36POPC  H14Y 4897   4.685   5.119   8.729  2.2028  1.5493  0.4136
   36POPC  C315 4898   4.687   4.918   8.634 -0.2998 -0.0776 -0.2980
   36POPC  H15X 4899   4.604   4.860   8.680  1.3529 -1.1201  1.5356
   36POPC  H15Y 4900   4.773   4.851   8.615 -0.8483 -0.8831  0.0111
   36POPC  C316 4901   4.641   4.971   8.503  0.7704  0.4140  0.0098
   36POPC  H16X 4902   4.726   4.980   8.433  1.6462  1.5326  1.1625
   36POPC  H16Y 4903   4.595   5.070   8.521  2.2317  0.9731  0.8653
   36POPC  H16Z 4904   4.577   4.893   8.456  2.2340 -0.3483 -0.7866
   37POPC     N 4905   3.574   0.408   6.246  0.1816  0.8608 -0.1431
   37POPC   C12 4906   3.521   0.516   6.330  0.4107  0.5901  0.2385
   37POPC  H12A 4907   3.414   0.509   6.332  0.5123 -1.8457  0.0994
   37POPC  H12B 4908   3.537   0.612   6.282 -0.7422  1.1406  0.9371
   37POPC   C13 4909   3.717   0.432   6.214 -0.1576  0.3595 -0.6044
   37POPC  H13A 4910   3.768   0.348   6.168  0.8026 -0.1668  1.3042
   37POPC  H13B 4911   3.722   0.512   6.141  1.0076  1.4435  0.6044
   37POPC  H13C 4912   3.770   0.463   6.302 -1.5610 -0.0209  0.4024
   37POPC   C14 4913   3.552   0.282   6.310  0.3313  0.6854  0.3533
   37POPC  H14A 4914   3.612   0.277   6.400 -0.0175  0.5097  0.5779
   37POPC  H14B 4915   3.449   0.266   6.336 -0.6051  2.2345 -2.0887
   37POPC  H14C 4916   3.582   0.199   6.246  0.7607  1.3915 -0.3786
   37POPC   C15 4917   3.500   0.401   6.122 -0.0853 -0.6877  0.7832
   37POPC  H15A 4918   3.397   0.394   6.152 -0.0834  3.2661  2.2055
   37POPC  H15B 4919   3.544   0.325   6.058  2.0191  1.1890 -0.1247
   37POPC  H15C 4920   3.510   0.492   6.064  1.1378 -0.9942  0.4647
   37POPC   C11 4921   3.554   0.513   6.483  0.6058  0.1546  0.1848
   37POPC  H11A 4922   3.502   0.429   6.533 -0.4296  0.8072  0.2427
   37POPC  H11B 4923   3.504   0.600   6.531  0.9486 -0.2520  1.2977
   37POPC     P 4924   3.767   0.653   6.499  0.0520 -0.2290 -0.2880
   37POPC   O13 4925   3.676   0.762   6.462 -0.3223 -0.3073  0.3686
   37POPC   O14 4926   3.888   0.633   6.412 -0.4578  0.2508  0.2457
   37POPC   O12 4927   3.694   0.515   6.512  0.2561 -0.1040  0.2054
   37POPC   O11 4928   3.817   0.671   6.652  0.3289  0.0113  0.3631
   37POPC    C1 4929   3.873   0.570   6.734 -0.9390  0.0278  0.6322
   37POPC    HA 4930   3.979   0.591   6.758 -0.6830  0.4809 -0.7702
   37POPC    HB 4931   3.859   0.471   6.685  1.2761  0.9931 -2.2348
   37POPC    C2 4932   3.806   0.566   6.869  0.3071 -0.2735 -0.0434
   37POPC    HS 4933   3.699   0.595   6.861  0.1386  0.5642  3.5856
   37POPC   O21 4934   3.874   0.657   6.957 -0.3840  1.2671 -0.1986
   37POPC   C21 4935   3.800   0.739   7.020 -0.6758  0.4687 -0.6881
   37POPC   O22 4936   3.676   0.734   7.017  0.4866 -0.1624 -0.4177
   37POPC   C22 4937   3.882   0.837   7.102 -0.0017  0.1182  0.2808
   37POPC   H2R 4938   3.827   0.933   7.107  0.9135  0.7017 -0.4485
   37POPC   H2S 4939   3.984   0.850   7.060  0.3634 -1.0285  0.7881
   37POPC    C3 4940   3.804   0.427   6.934  0.3078 -0.5303 -0.3614
   37POPC    HX 4941   3.905   0.386   6.914  0.3690  0.3691 -2.1697
   37POPC    HY 4942   3.728   0.370   6.877 -2.5237  2.4008  0.1419
   37POPC   O31 4943   3.768   0.428   7.074  0.0256  0.3398 -0.1784
   37POPC   C31 4944   3.650   0.405   7.110  0.1703  0.5983 -0.9674
   37POPC   O32 4945   3.556   0.379   7.035  0.3249 -0.4327 -0.2491
   37POPC   C32 4946   3.632   0.424   7.258  0.1611  0.1161 -0.2350
   37POPC   H2X 4947   3.720   0.489   7.281  0.9584 -0.5203 -1.3463
   37POPC   H2Y 4948   3.644   0.328   7.312  0.4344  0.7426  0.8531
   37POPC   C23 4949   3.892   0.794   7.250 -0.2084 -0.1325  0.6969
   37POPC   H3R 4950   3.925   0.688   7.263 -2.0361 -0.9030 -0.6362
   37POPC   H3S 4951   3.797   0.802   7.306 -1.4465  1.9713 -1.5575
   37POPC   C24 4952   4.005   0.882   7.314  0.4028 -0.1650  0.0873
   37POPC   H4R 4953   3.965   0.985   7.324 -1.1207 -0.7647  0.4613
   37POPC   H4S 4954   4.101   0.890   7.257  1.4721  0.9903  1.9330
   37POPC   C25 4955   4.054   0.827   7.453  0.5885 -0.1993 -0.3487
   37POPC   H5R 4956   4.135   0.753   7.438  2.1412  1.3727 -0.0779
   37POPC   H5S 4957   3.980   0.772   7.515 -0.0782 -0.1620 -1.0888
   37POPC   C26 4958   4.112   0.949   7.523 -0.1833 -0.0519  0.1960
   37POPC   H6R 4959   4.040   1.030   7.548  1.9182  2.0803 -0.2231
   37POPC   H6S 4960   4.185   1.011   7.466 -0.2545  2.2244  2.3947
   37POPC   C27 4961   4.209   0.905   7.638  0.0101  0.4747 -0.0275
   37POPC   H7R 4962   4.278   0.836   7.586 -0.8265 -0.7391  0.4342
   37POPC   H7S 4963   4.158   0.846   7.717 -0.0247  1.1724  0.4826
   37POPC   C28 4964   4.279   1.021   7.701 -0.6398  0.3416  0.0482
   37POPC   H8R 4965   4.310   1.089   7.619 -2.2488  0.2806 -0.6464
   37POPC   H8S 4966   4.368   0.981   7.755 -1.5999 -1.6366  0.2672
   37POPC   C29 4967   4.195   1.111   7.793 -0.0941  0.7633  0.1937
   37POPC   H91 4968   4.155   1.197   7.737  4.2056  2.1735 -1.1599
   37POPC  C210 4969   4.205   1.106   7.923  0.4059  0.5300 -0.2427
   37POPC  H101 4970   4.150   1.177   7.985  1.5393  1.0413  0.2143
   37POPC  C211 4971   4.293   1.009   8.006  0.1161  0.2467  0.4761
   37POPC  H11R 4972   4.341   0.930   7.945  0.5735 -0.0285  1.1743
   37POPC  H11S 4973   4.237   0.948   8.080  2.1708 -1.1605  0.9707
   37POPC  C212 4974   4.402   1.091   8.082 -0.4064 -0.0963 -0.2371
   37POPC  H12R 4975   4.342   1.175   8.122  0.6103  0.5832 -0.1218
   37POPC  H12S 4976   4.482   1.130   8.016  2.6854 -0.6927  2.8777
   37POPC  C213 4977   4.472   1.001   8.183 -0.0445  0.0105 -0.2293
   37POPC  H13R 4978   4.399   0.960   8.256 -0.1787  1.1666  0.2975
   37POPC  H13S 4979   4.546   1.041   8.255  0.6713 -1.4478 -0.1121
   37POPC  C214 4980   4.564   0.892   8.122 -0.4681  0.1556 -0.1944
   37POPC  H14R 4981   4.654   0.929   8.068 -0.8278  0.6274 -0.4845
   37POPC  H14S 4982   4.506   0.832   8.048 -1.8664  2.3993 -1.0239
   37POPC  C215 4983   4.613   0.796   8.235 -0.5796  1.2115  0.3253
   37POPC  H15R 4984   4.621   0.845   8.334  0.3246  0.2941  0.7119
   37POPC  H15S 4985   4.714   0.760   8.206 -1.1428  0.6819 -1.0687
   37POPC  C216 4986   4.526   0.674   8.256 -0.1172 -0.6644  0.4445
   37POPC  H16R 4987   4.545   0.600   8.175  1.9156 -0.8224  1.0112
   37POPC  H16S 4988   4.426   0.719   8.241  1.3394  3.2470  1.2592
   37POPC  C217 4989   4.549   0.599   8.387 -0.4421  0.8100  0.3910
   37POPC  H17R 4990   4.657   0.603   8.409  0.4339  0.6684 -3.2372
   37POPC  H17S 4991   4.531   0.491   8.365  3.0580  0.2622 -0.3576
   37POPC  C218 4992   4.456   0.633   8.505  0.1640  0.1174 -0.1727
   37POPC  H18R 4993   4.359   0.580   8.498 -0.3485  1.1474 -1.2786
   37POPC  H18S 4994   4.428   0.740   8.517 -2.3062 -0.7184  2.7958
   37POPC  H18T 4995   4.507   0.618   8.602 -0.3123  1.4199  0.2992
   37POPC   C33 4996   3.499   0.496   7.292  0.4533 -0.0783  0.6145
   37POPC   H3X 4997   3.415   0.429   7.267  0.6543 -0.8683  1.9650
   37POPC   H3Y 4998   3.488   0.587   7.229 -2.7767 -1.3679 -0.9010
   37POPC   C34 4999   3.491   0.544   7.442 -0.2987 -0.1887  0.0725
   37POPC   H4X 5000   3.495   0.459   7.514 -1.0638  0.6422  1.1135
   37POPC   H4Y 5001   3.385   0.564   7.466 -0.9884 -1.3209 -1.7888
   37POPC   C35 5002   3.577   0.661   7.468  0.0213  0.3740 -0.2823
   37POPC   H5X 5003   3.568   0.714   7.371  0.0624 -2.3743 -1.8868
   37POPC   H5Y 5004   3.685   0.637   7.469 -0.0098  0.2272 -0.4675
   37POPC   C36 5005   3.538   0.742   7.594  0.0551 -0.1384 -0.0636
   37POPC   H6X 5006   3.518   0.685   7.687  0.0626  0.3771  0.2537
   37POPC   H6Y 5007   3.434   0.780   7.582 -0.0643 -0.9553 -1.9781
   37POPC   C37 5008   3.642   0.846   7.626 -0.4142 -0.0573 -0.7735
   37POPC   H7X 5009   3.653   0.923   7.546 -1.7079 -0.9162 -1.8298
   37POPC   H7Y 5010   3.738   0.790   7.626 -0.2102  0.2830  0.0724
   37POPC   C38 5011   3.614   0.913   7.758  0.3158 -0.3671  0.3113
   37POPC   H8X 5012   3.570   0.836   7.826  0.2008  0.4117  1.1304
   37POPC   H8Y 5013   3.529   0.982   7.742 -0.6299 -2.2292 -4.2400
   37POPC   C39 5014   3.731   0.985   7.820  0.7470 -0.2587 -0.5063
   37POPC   H9X 5015   3.757   1.065   7.747 -1.0116 -0.4932 -1.4608
   37POPC   H9Y 5016   3.811   0.909   7.827  0.4438 -0.6143 -0.8389
   37POPC  C310 5017   3.697   1.060   7.944 -0.4145  0.4535  0.0540
   37POPC  H10X 5018   3.599   1.112   7.946 -0.8532 -0.2537 -1.6092
   37POPC  H10Y 5019   3.776   1.138   7.955 -1.3659  1.4585 -0.1353
   37POPC  C311 5020   3.710   0.973   8.075 -0.1558 -0.1516  0.0014
   37POPC  H11X 5021   3.641   0.886   8.082  1.0146 -1.0330  1.2121
   37POPC  H11Y 5022   3.680   1.049   8.150 -0.3517  0.7018 -0.9170
   37POPC  C312 5023   3.855   0.926   8.104  0.6878 -0.1003 -0.5532
   37POPC  H12X 5024   3.904   1.025   8.119  1.5538 -0.5448 -0.4047
   37POPC  H12Y 5025   3.915   0.861   8.037 -1.1678  0.7561 -3.2171
   37POPC  C313 5026   3.880   0.870   8.245  0.1405 -0.2419 -0.8391
   37POPC  H13X 5027   3.814   0.781   8.256 -0.1183  0.1271  0.8162
   37POPC  H13Y 5028   3.846   0.933   8.330  1.9751  0.0702 -0.2922
   37POPC  C314 5029   4.028   0.837   8.273 -0.3486 -0.1474 -0.6643
   37POPC  H14X 5030   4.082   0.927   8.308  0.5133 -0.1982 -1.8357
   37POPC  H14Y 5031   4.075   0.815   8.175 -0.3071 -0.0877 -0.6567
   37POPC  C315 5032   4.043   0.723   8.371 -0.5166  0.2125  0.1433
   37POPC  H15X 5033   4.150   0.693   8.375 -0.0651  1.5283 -1.2850
   37POPC  H15Y 5034   3.985   0.634   8.337 -0.4779  0.8766 -1.7553
   37POPC  C316 5035   4.021   0.753   8.522 -0.5991  0.4098  0.3115
   37POPC  H16X 5036   4.107   0.814   8.558  0.0085  0.0254 -0.4745
   37POPC  H16Y 5037   4.010   0.663   8.587 -3.0565  1.2502  1.1675
   37POPC  H16Z 5038   3.921   0.799   8.538 -2.4927 -2.3088 -2.6280
   38POPC     N 5039   4.458   5.025   6.237  0.5621  0.1807 -0.1322
   38POPC   C12 5040   4.572   5.119   6.194 -0.0612 -0.4713 -0.3288
   38POPC  H12A 5041   4.527   5.185   6.121  2.1474 -0.2356 -1.5616
   38POPC  H12B 5042   4.649   5.064   6.143  0.3299 -0.0748 -0.1719
   38POPC   C13 5043   4.368   5.090   6.328  0.0931  0.4838 -0.3672
   38POPC  H13A 5044   4.270   5.044   6.330 -0.1000  0.8584 -0.9919
   38POPC  H13B 5045   4.407   5.099   6.428 -2.1156  1.3555  0.4762
   38POPC  H13C 5046   4.352   5.195   6.306  0.5848  0.3583 -1.3440
   38POPC   C14 5047   4.382   4.979   6.111 -0.7487  0.1073  0.3356
   38POPC  H14A 5048   4.310   4.905   6.143  0.7141 -1.8746 -0.7664
   38POPC  H14B 5049   4.339   5.060   6.054 -1.0346 -0.0410  0.3412
   38POPC  H14C 5050   4.448   4.934   6.038 -0.8816 -2.0525  1.4568
   38POPC   C15 5051   4.510   4.903   6.307  0.3249  0.3085 -0.3888
   38POPC  H15A 5052   4.579   4.854   6.240  0.8577  1.4188 -0.6666
   38POPC  H15B 5053   4.429   4.838   6.339  0.4778  0.1338 -0.3540
   38POPC  H15C 5054   4.561   4.945   6.393  1.3335 -1.2255 -0.1885
   38POPC   C11 5055   4.656   5.189   6.307 -0.3386 -0.0735  0.6675
   38POPC  H11A 5056   4.595   5.243   6.382 -1.6844 -0.1980 -0.3049
   38POPC  H11B 5057   4.739   5.252   6.267  1.0044 -1.6148  0.9028
   38POPC     P 5058   4.875   5.038   6.339  0.0435  0.1509 -0.0562
   38POPC   O13 5059   4.957   5.155   6.301 -0.0199 -0.6141  0.1266
   38POPC   O14 5060   4.869   4.919   6.251 -0.0567 -0.0866  0.1411
   38POPC   O12 5061   4.726   5.082   6.382 -0.0758 -0.0151  0.5621
   38POPC   O11 5062   4.922   4.994   6.481  0.0304  0.3175 -0.0242
   38POPC    C1 5063   4.848   4.901   6.561 -0.1835  0.0378 -0.2754
   38POPC    HA 5064   4.740   4.887   6.538 -0.2921  1.4913 -0.7725
   38POPC    HB 5065   4.847   4.956   6.657 -0.8672  2.5952 -1.6362
   38POPC    C2 5066   4.924   4.770   6.587  0.1355  0.4411 -0.0219
   38POPC    HS 5067   4.868   4.713   6.663 -1.0387 -0.2955 -1.3935
   38POPC   O21 5068   5.061   4.795   6.619 -0.0958 -0.1393  0.0152
   38POPC   C21 5069   5.084   4.820   6.750 -0.2962  0.2743 -0.9204
   38POPC   O22 5070   4.990   4.808   6.835  0.1898 -0.1173 -0.3765
   38POPC   C22 5071   5.228   4.859   6.770 -0.0329 -0.1297  0.3005
   38POPC   H2R 5072   5.256   4.943   6.703 -0.9385 -0.2531 -0.2322
   38POPC   H2S 5073   5.288   4.768   6.747 -2.2871 -1.5666 -0.2405
   38POPC    C3 5074   4.930   4.673   6.468 -0.2409  0.5850  0.1784
   38POPC    HX 5075   4.993   4.719   6.389 -0.3350  1.0285  0.3584
   38POPC    HY 5076   4.824   4.673   6.434 -1.0662  0.8774  2.5417
   38POPC   O31 5077   4.968   4.534   6.505  0.9937 -0.2730 -0.3723
   38POPC   C31 5078   5.094   4.495   6.483  0.2380 -0.5910 -0.6508
   38POPC   O32 5079   5.175   4.552   6.415 -0.2204 -0.1648  0.6326
   38POPC   C32 5080   5.114   4.354   6.541 -0.4906 -0.2076  0.1182
   38POPC   H2X 5081   5.098   4.280   6.459 -0.0359  0.9092 -1.0032
   38POPC   H2Y 5082   5.040   4.344   6.623  0.3380  1.6920  1.1382
   38POPC   C23 5083   5.261   4.899   6.914  0.3031 -0.1381 -0.8013
   38POPC   H3R 5084   5.371   4.896   6.921  0.3296  1.9207  0.4827
   38POPC   H3S 5085   5.221   4.817   6.978  2.6452 -0.7340 -0.0116
   38POPC   C24 5086   5.206   5.040   6.958  0.5937  0.1713  0.5100
   38POPC   H4R 5087   5.098   5.029   6.981  0.1308 -0.1161 -1.5701
   38POPC   H4S 5088   5.210   5.107   6.869 -0.7098  0.7581  0.8823
   38POPC   C25 5089   5.286   5.104   7.068  0.7564  0.0999  0.0166
   38POPC   H5R 5090   5.242   5.204   7.089  0.8639 -0.2382  2.0426
   38POPC   H5S 5091   5.390   5.130   7.037 -0.0649  1.5861 -1.7751
   38POPC   C26 5092   5.294   5.015   7.193 -0.5101  0.1774  0.2741
   38POPC   H6R 5093   5.357   4.929   7.164  0.3045  1.7555 -3.0707
   38POPC   H6S 5094   5.190   4.978   7.209 -0.4536 -0.9853 -1.7149
   38POPC   C27 5095   5.339   5.088   7.321 -0.2133  0.4878  0.4864
   38POPC   H7R 5096   5.262   5.162   7.351  0.0406 -0.0656  2.6925
   38POPC   H7S 5097   5.421   5.156   7.288 -1.0740  0.2150 -2.4679
   38POPC   C28 5098   5.364   4.997   7.443  0.0267 -0.5813 -0.2582
   38POPC   H8R 5099   5.390   5.074   7.518 -2.2012 -1.2966  1.3384
   38POPC   H8S 5100   5.443   4.922   7.422  1.5541  1.1678 -1.0908
   38POPC   C29 5101   5.241   4.933   7.498 -0.3356  0.1909 -0.8638
   38POPC   H91 5102   5.202   4.848   7.439 -0.0226  0.2252 -1.1207
   38POPC  C210 5103   5.157   4.999   7.583 -0.2423  0.1453 -0.4280
   38POPC  H101 5104   5.072   4.944   7.625 -0.6748 -0.0069 -1.4825
   38POPC  C211 5105   5.175   5.135   7.652  0.4982  0.2687  0.6813
   38POPC  H11R 5106   5.126   5.210   7.586  3.0274  0.0667 -1.5631
   38POPC  H11S 5107   5.282   5.162   7.662  0.5478  0.5553 -0.5210
   38POPC  C212 5108   5.114   5.135   7.793 -0.6895  0.4014 -0.1031
   38POPC  H12R 5109   5.005   5.115   7.792 -0.6049 -0.0656 -1.1594
   38POPC  H12S 5110   5.131   5.233   7.844 -1.1092  1.6165 -2.1540
   38POPC  C213 5111   5.172   5.021   7.889  0.3787 -0.7859 -0.1400
   38POPC  H13R 5112   5.282   5.029   7.878  0.2982 -0.0552 -0.5140
   38POPC  H13S 5113   5.141   4.921   7.851 -0.5878 -0.3241 -0.6059
   38POPC  C214 5114   5.139   5.046   8.039 -0.5234 -0.1234  0.0343
   38POPC  H14R 5115   5.128   5.155   8.060 -1.2425 -0.7577  3.3995
   38POPC  H14S 5116   5.229   5.020   8.098 -1.1541 -2.7369 -0.0468
   38POPC  C215 5117   5.020   4.978   8.089 -0.1892  1.3903  0.8223
   38POPC  H15R 5118   5.036   4.868   8.084 -2.7935  0.9159  1.1367
   38POPC  H15S 5119   4.927   5.000   8.032  0.3507 -1.7349 -1.5218
   38POPC  C216 5120   4.981   5.002   8.231  0.7216  0.1282 -0.2601
   38POPC  H16R 5121   5.065   5.002   8.303 -1.5828 -2.0869  2.6810
   38POPC  H16S 5122   4.911   4.917   8.250  0.3660  0.2282 -1.0812
   38POPC  C217 5123   4.899   5.135   8.246 -0.6032 -0.0738 -0.1895
   38POPC  H17R 5124   4.976   5.215   8.233  0.9048 -0.7410  3.4874
   38POPC  H17S 5125   4.881   5.139   8.355  1.3868 -2.0645  0.2841
   38POPC  C218 5126   4.772   5.154   8.166  0.2776 -0.6121  0.8861
   38POPC  H18R 5127   4.697   5.219   8.216 -0.9483 -0.8874 -0.5175
   38POPC  H18S 5128   4.725   5.055   8.152 -0.1838 -0.2897  0.0683
   38POPC  H18T 5129   4.793   5.189   8.063 -1.8716  0.8202  0.8629
   38POPC   C33 5130   5.259   4.343   6.595 -0.2228 -0.7645 -0.1483
   38POPC   H3X 5131   5.332   4.372   6.517 -1.1237 -1.4923 -1.2860
   38POPC   H3Y 5132   5.288   4.240   6.625  0.8530 -0.0571  1.3872
   38POPC   C34 5133   5.297   4.429   6.719  0.5142  0.1790 -0.3553
   38POPC   H4X 5134   5.304   4.539   6.708 -2.3104  0.8043  2.5782
   38POPC   H4Y 5135   5.399   4.402   6.753  1.6026  2.6992 -1.3872
   38POPC   C35 5136   5.196   4.406   6.834  0.3403  0.8614  0.1195
   38POPC   H5X 5137   5.181   4.296   6.836  0.1581  0.8952  0.8629
   38POPC   H5Y 5138   5.103   4.462   6.809 -1.2403 -1.5903  0.2380
   38POPC   C36 5139   5.244   4.472   6.957 -0.6186  0.5910 -0.2573
   38POPC   H6X 5140   5.250   4.582   6.951 -0.0580  0.6565  1.1515
   38POPC   H6Y 5141   5.346   4.432   6.979 -1.0173 -0.1153  0.3563
   38POPC   C37 5142   5.156   4.431   7.077  0.2880 -0.0290 -0.0846
   38POPC   H7X 5143   5.176   4.323   7.096 -0.1523  0.3266  2.8945
   38POPC   H7Y 5144   5.046   4.438   7.057  0.8570  0.2602 -3.7755
   38POPC   C38 5145   5.193   4.509   7.208 -0.0766 -0.3670 -0.0572
   38POPC   H8X 5146   5.130   4.600   7.194  2.8058  1.9566  1.1998
   38POPC   H8Y 5147   5.298   4.540   7.193 -0.3664  0.0854 -1.2657
   38POPC   C39 5148   5.173   4.435   7.337 -0.5155 -0.5922 -0.2318
   38POPC   H9X 5149   5.205   4.329   7.322 -0.6427 -0.5770 -0.5935
   38POPC   H9Y 5150   5.067   4.426   7.370 -0.5847  0.0934 -0.2618
   38POPC  C310 5151   5.251   4.491   7.456 -0.4652  0.2174  0.3975
   38POPC  H10X 5152   5.220   4.594   7.484  0.0025  0.5749 -0.3675
   38POPC  H10Y 5153   5.354   4.513   7.422 -0.9853  1.1620 -0.6618
   38POPC  C311 5154   5.247   4.409   7.575 -0.2645 -0.4252  0.4114
   38POPC  H11X 5155   5.294   4.309   7.571 -0.6724 -0.6379  0.7768
   38POPC  H11Y 5156   5.142   4.398   7.610  0.0507  0.9790  1.9171
   38POPC  C312 5157   5.312   4.493   7.694  0.2230  0.2985 -0.6298
   38POPC  H12X 5158   5.281   4.599   7.701  1.7376  0.6428  2.4077
   38POPC  H12Y 5159   5.422   4.483   7.689  0.3078 -0.8567  1.8763
   38POPC  C313 5160   5.264   4.437   7.825 -0.0537 -0.0493 -0.3030
   38POPC  H13X 5161   5.299   4.332   7.824 -1.0502 -0.4019 -0.0692
   38POPC  H13Y 5162   5.154   4.427   7.837  0.0892 -0.3597  0.8793
   38POPC  C314 5163   5.308   4.526   7.946 -0.4746  0.1767  0.6112
   38POPC  H14X 5164   5.258   4.625   7.944  2.7708  1.9538  0.9992
   38POPC  H14Y 5165   5.418   4.542   7.942 -0.1827 -1.5605  1.0011
   38POPC  C315 5166   5.292   4.449   8.079  0.2661 -0.8540 -0.1028
   38POPC  H15X 5167   5.334   4.349   8.060  0.1189 -0.9005 -0.1818
   38POPC  H15Y 5168   5.184   4.435   8.100  0.4977 -0.2508  1.7705
   38POPC  C316 5169   5.353   4.517   8.203 -0.0599 -0.5995 -0.2271
   38POPC  H16X 5170   5.335   4.627   8.210  1.4525 -0.3715  0.3570
   38POPC  H16Y 5171   5.463   4.503   8.212  0.1053  1.2031  1.0718
   38POPC  H16Z 5172   5.300   4.490   8.297  0.1495 -1.6260 -0.3917
   39POPC     N 5173   1.984   2.278   6.379  0.7075  0.0911 -0.2408
   39POPC   C12 5174   1.846   2.230   6.373  0.1499  0.0279 -0.0446
   39POPC  H12A 5175   1.787   2.277   6.450  0.4291  0.2515  0.0358
   39POPC  H12B 5176   1.849   2.125   6.399 -0.2036 -0.3670 -1.5227
   39POPC   C13 5177   2.030   2.239   6.517 -0.4228  0.0208 -0.0751
   39POPC  H13A 5178   1.971   2.296   6.587  2.2660  1.2164  1.3252
   39POPC  H13B 5179   2.034   2.132   6.527  0.6592 -0.2133 -2.4065
   39POPC  H13C 5180   2.132   2.270   6.531 -0.3507 -0.4154  0.3678
   39POPC   C14 5181   2.063   2.203   6.277  0.1040  0.3526 -0.0569
   39POPC  H14A 5182   2.030   2.100   6.275 -0.8710  0.4343  3.8074
   39POPC  H14B 5183   2.036   2.248   6.183 -2.4622  0.3005  0.5804
   39POPC  H14C 5184   2.167   2.225   6.296  0.6578  0.0759 -2.4172
   39POPC   C15 5185   2.004   2.422   6.364  0.0707  0.0013 -0.5558
   39POPC  H15A 5186   2.111   2.437   6.370  0.3331 -2.2004  1.5707
   39POPC  H15B 5187   1.957   2.468   6.449 -0.1903  0.6935 -1.0606
   39POPC  H15C 5188   1.965   2.460   6.270  0.1343 -0.6826 -0.8654
   39POPC   C11 5189   1.757   2.240   6.248 -0.4500 -0.8066  0.1936
   39POPC  H11A 5190   1.767   2.347   6.217 -0.4819 -1.3930 -1.9752
   39POPC  H11B 5191   1.655   2.218   6.285 -0.1411 -2.9008 -0.1064
   39POPC     P 5192   1.753   2.001   6.147  0.3536 -0.0881  0.0974
   39POPC   O13 5193   1.858   1.922   6.083  0.1698 -0.2081  0.3253
   39POPC   O14 5194   1.610   1.984   6.101  0.2612 -0.0693  0.1441
   39POPC   O12 5195   1.797   2.156   6.138 -0.8462  0.1184 -0.2001
   39POPC   O11 5196   1.751   1.971   6.302  0.1515  0.4340  0.7874
   39POPC    C1 5197   1.628   1.931   6.356  0.4233 -0.6180 -0.0981
   39POPC    HA 5198   1.614   1.822   6.341 -0.8399 -1.1091  3.5990
   39POPC    HB 5199   1.540   1.984   6.315  1.3410  0.6335 -0.5512
   39POPC    C2 5200   1.620   1.948   6.509 -0.4672  0.0982  0.1711
   39POPC    HS 5201   1.599   2.057   6.523 -1.0938  0.1962 -1.3624
   39POPC   O21 5202   1.739   1.906   6.579  0.1882 -0.3701 -0.2837
   39POPC   C21 5203   1.779   1.990   6.673 -0.6011  0.9941 -0.0926
   39POPC   O22 5204   1.728   2.096   6.708 -0.1806  0.3635 -0.3069
   39POPC   C22 5205   1.907   1.927   6.744  0.6447  0.2746  0.1396
   39POPC   H2R 5206   1.973   2.013   6.771  0.7430 -0.1331  1.2674
   39POPC   H2S 5207   1.948   1.862   6.664  0.4873 -0.3354  0.5511
   39POPC    C3 5208   1.497   1.873   6.567  0.3550  0.6560 -0.4753
   39POPC    HX 5209   1.505   1.772   6.521 -0.0804  0.7069 -0.6623
   39POPC    HY 5210   1.406   1.930   6.540  1.0170  1.6647 -0.6182
   39POPC   O31 5211   1.517   1.863   6.712 -0.1464 -0.7176 -0.4482
   39POPC   C31 5212   1.417   1.797   6.774  0.3498 -0.4508 -0.1404
   39POPC   O32 5213   1.316   1.753   6.720 -0.3916  0.0605 -0.2766
   39POPC   C32 5214   1.446   1.766   6.920  0.4085  0.9317 -0.1649
   39POPC   H2X 5215   1.555   1.769   6.940  0.2694 -0.7861  1.0740
   39POPC   H2Y 5216   1.409   1.850   6.983 -0.9798  0.5639 -0.4649
   39POPC   C23 5217   1.855   1.852   6.867  0.4423 -0.7521 -0.9260
   39POPC   H3R 5218   1.934   1.780   6.896  2.0742  1.6760  1.0434
   39POPC   H3S 5219   1.767   1.785   6.853  0.3655 -0.5985 -1.1829
   39POPC   C24 5220   1.833   1.954   6.988 -0.2297 -0.0636 -1.0461
   39POPC   H4R 5221   1.738   2.009   6.969 -0.6887 -0.3444  0.3288
   39POPC   H4S 5222   1.917   2.027   6.989  0.1516 -0.4689  0.7420
   39POPC   C25 5223   1.823   1.892   7.126 -0.4614  0.2833  0.3115
   39POPC   H5R 5224   1.905   1.819   7.141 -0.9873 -0.6839 -1.2671
   39POPC   H5S 5225   1.732   1.829   7.127 -2.2234  2.6383 -0.4902
   39POPC   C26 5226   1.812   1.996   7.244 -0.4340  0.1389 -0.0387
   39POPC   H6R 5227   1.765   1.942   7.329 -1.3482 -0.6502 -1.0126
   39POPC   H6S 5228   1.748   2.081   7.211 -1.8125 -0.3542  1.2109
   39POPC   C27 5229   1.940   2.066   7.279 -0.3428  0.0283 -0.3948
   39POPC   H7R 5230   1.957   2.149   7.207  4.3566 -0.3435  0.0102
   39POPC   H7S 5231   2.021   1.990   7.277 -0.9663 -0.6832  0.5976
   39POPC   C28 5232   1.938   2.118   7.431  0.3434  0.6324  0.0977
   39POPC   H8R 5233   1.913   2.033   7.498  0.9147  0.7237  0.4335
   39POPC   H8S 5234   1.857   2.193   7.443  1.3126  1.6912  0.2201
   39POPC   C29 5235   2.072   2.185   7.470 -0.1900 -0.3063 -0.4191
   39POPC   H91 5236   2.122   2.241   7.389 -2.1706  0.2831 -1.2883
   39POPC  C210 5237   2.142   2.157   7.581 -0.1034 -0.1349  0.1127
   39POPC  H101 5238   2.242   2.200   7.596  0.0305 -0.9504  1.7794
   39POPC  C211 5239   2.096   2.045   7.679 -0.5087 -0.3827  0.4471
   39POPC  H11R 5240   2.189   2.009   7.728 -1.0502 -0.5373  1.3729
   39POPC  H11S 5241   2.053   1.957   7.628  0.3796 -0.3166 -0.4595
   39POPC  C212 5242   1.986   2.094   7.775 -0.2112  0.2078  0.7115
   39POPC  H12R 5243   1.970   2.005   7.840  0.1220 -1.8171 -1.8001
   39POPC  H12S 5244   1.888   2.110   7.724 -0.7132 -1.9376  0.8774
   39POPC  C213 5245   2.029   2.221   7.846  0.2168  0.2248  0.3931
   39POPC  H13R 5246   2.014   2.316   7.790 -1.3630 -0.4430 -0.3751
   39POPC  H13S 5247   2.135   2.206   7.873  0.1583 -0.3587  0.3083
   39POPC  C214 5248   1.954   2.235   7.985  0.2002  0.1445  0.8008
   39POPC  H14R 5249   1.957   2.142   8.046 -1.3277  0.0501  0.7739
   39POPC  H14S 5250   1.848   2.249   7.954  0.7312 -0.3616 -1.4960
   39POPC  C215 5251   1.986   2.366   8.055 -0.5309  0.2864  0.3333
   39POPC  H15R 5252   1.948   2.451   7.994 -3.1944  0.3365  1.9115
   39POPC  H15S 5253   2.096   2.366   8.071 -0.1945 -0.7426 -1.6713
   39POPC  C216 5254   1.908   2.378   8.185 -0.3342 -0.3357 -0.0051
   39POPC  H16R 5255   1.960   2.331   8.271 -1.7141  2.6737  2.6597
   39POPC  H16S 5256   1.811   2.325   8.174 -0.6846  0.4078 -0.6424
   39POPC  C217 5257   1.894   2.522   8.234 -0.1934 -0.1483 -0.2418
   39POPC  H17R 5258   1.829   2.511   8.323 -0.5104 -0.9638 -0.5613
   39POPC  H17S 5259   1.844   2.577   8.151 -1.3207 -1.0913 -0.2070
   39POPC  C218 5260   2.023   2.593   8.276  0.4293 -0.0523 -0.2027
   39POPC  H18R 5261   2.015   2.701   8.300 -0.0070 -0.3199  0.9246
   39POPC  H18S 5262   2.102   2.602   8.199 -0.5974  0.5252 -1.2224
   39POPC  H18T 5263   2.076   2.540   8.358  1.7390  1.0628 -0.3012
   39POPC   C33 5264   1.369   1.640   6.982  0.3199  0.1898 -0.3615
   39POPC   H3X 5265   1.388   1.546   6.927 -1.7070  1.1546 -2.8838
   39POPC   H3Y 5266   1.261   1.662   6.968  0.1818 -1.1686 -1.5902
   39POPC   C34 5267   1.389   1.608   7.129 -0.1765 -0.2493 -0.4233
   39POPC   H4X 5268   1.329   1.522   7.166  0.0737  0.3748  1.5461
   39POPC   H4Y 5269   1.370   1.694   7.197 -2.1853  0.1400 -1.4104
   39POPC   C35 5270   1.542   1.572   7.169  0.6140  0.1040  0.2538
   39POPC   H5X 5271   1.600   1.661   7.136 -0.4510 -0.1575 -2.7288
   39POPC   H5Y 5272   1.584   1.483   7.118 -0.5630  0.9283 -2.3542
   39POPC   C36 5273   1.562   1.553   7.324  0.0127  0.4534 -0.3666
   39POPC   H6X 5274   1.468   1.506   7.360 -1.0689  1.0285 -2.2639
   39POPC   H6Y 5275   1.563   1.645   7.387 -0.7595  1.0557 -1.2028
   39POPC   C37 5276   1.685   1.467   7.344 -0.3388  0.0929 -0.1960
   39POPC   H7X 5277   1.777   1.505   7.293  0.4259  0.4618  1.4019
   39POPC   H7Y 5278   1.659   1.364   7.314 -0.5796 -0.2007  0.9835
   39POPC   C38 5279   1.718   1.459   7.492  0.0725  0.3517 -0.1211
   39POPC   H8X 5280   1.630   1.407   7.535 -1.2713  1.9455 -0.8173
   39POPC   H8Y 5281   1.705   1.555   7.545  0.0550  0.5357 -0.4521
   39POPC   C39 5282   1.850   1.393   7.521  0.6605  0.0038  0.2677
   39POPC   H9X 5283   1.941   1.445   7.483  0.4417  0.2599  0.0829
   39POPC   H9Y 5284   1.841   1.296   7.468  2.0793  0.6981 -1.3630
   39POPC  C310 5285   1.865   1.359   7.670  0.6777  0.4175 -0.0529
   39POPC  H10X 5286   1.774   1.301   7.696  0.9846  0.2398  0.6548
   39POPC  H10Y 5287   1.854   1.444   7.740 -0.1257  0.5484 -0.3280
   39POPC  C311 5288   1.995   1.287   7.703  0.2784 -0.1910 -1.2340
   39POPC  H11X 5289   2.087   1.348   7.689  1.4053 -1.8724 -1.4490
   39POPC  H11Y 5290   2.004   1.199   7.636  3.0774 -0.6582 -0.3620
   39POPC  C312 5291   1.993   1.240   7.849 -0.2079 -0.4379  0.3814
   39POPC  H12X 5292   2.086   1.188   7.878 -0.6620 -1.3151  0.2977
   39POPC  H12Y 5293   1.914   1.161   7.857  0.8122 -1.7278 -1.4728
   39POPC  C313 5294   1.967   1.357   7.945 -0.3413  0.4712  0.1732
   39POPC  H13X 5295   1.867   1.402   7.926 -0.1850  0.7934  0.1036
   39POPC  H13Y 5296   2.041   1.438   7.928  0.7194 -0.5325 -0.0797
   39POPC  C314 5297   1.982   1.311   8.090  0.7882 -0.0127  0.7878
   39POPC  H14X 5298   1.912   1.224   8.088 -0.3125  0.8349 -2.3176
   39POPC  H14Y 5299   1.947   1.395   8.154 -0.9852 -0.3865  0.3692
   39POPC  C315 5300   2.126   1.276   8.125 -0.2000  0.2819  0.0773
   39POPC  H15X 5301   2.189   1.292   8.035  0.7863  1.7506  0.9727
   39POPC  H15Y 5302   2.128   1.171   8.162 -1.8172  0.2417  0.1184
   39POPC  C316 5303   2.183   1.362   8.234 -0.6339  0.1756 -0.3171
   39POPC  H16X 5304   2.291   1.337   8.245 -1.1810 -1.5742  1.6508
   39POPC  H16Y 5305   2.128   1.332   8.325 -0.7019  2.4301  0.4585
   39POPC  H16Z 5306   2.155   1.468   8.215 -1.9024 -0.2372 -0.8142
   40POPC     N 5307   0.512   0.026   6.277 -0.3539  0.3490 -0.9290
   40POPC   C12 5308   0.611   0.131   6.332 -0.4868 -0.1699 -0.7135
   40POPC  H12A 5309   0.679   0.172   6.258  0.3413 -1.7678 -0.8719
   40POPC  H12B 5310   0.678   0.080   6.399  0.1708  0.3438 -0.9674
   40POPC   C13 5311   0.421   0.056   6.164  0.4733 -0.4300  0.3098
   40POPC  H13A 5312   0.372  -0.035   6.131 -2.2035  0.9150  0.3314
   40POPC  H13B 5313   0.345   0.126   6.194 -0.8845 -1.3375 -0.8741
   40POPC  H13C 5314   0.475   0.080   6.073 -1.6831 -1.5757 -1.3750
   40POPC   C14 5315   0.592  -0.085   6.219  0.4386 -0.6936 -0.1790
   40POPC  H14A 5316   0.536  -0.177   6.206 -0.4206 -0.3264  0.7811
   40POPC  H14B 5317   0.643  -0.057   6.128 -1.1924 -1.3735 -1.3626
   40POPC  H14C 5318   0.673  -0.108   6.287  1.3354  2.3907 -0.0726
   40POPC   C15 5319   0.439  -0.037   6.394  0.1500  0.0071  0.5754
   40POPC  H15A 5320   0.358   0.028   6.423  0.0625  0.7012 -1.1051
   40POPC  H15B 5321   0.497  -0.049   6.485 -2.1140 -1.9662  1.8822
   40POPC  H15C 5322   0.418  -0.139   6.366  1.2063  0.4224 -2.0406
   40POPC   C11 5323   0.546   0.256   6.396  0.2813  0.5464  0.2170
   40POPC  H11A 5324   0.622   0.317   6.449  0.0716  1.3349 -0.3574
   40POPC  H11B 5325   0.474   0.213   6.468 -2.2750  0.2375 -2.3122
   40POPC     P 5326   0.325   0.383   6.306 -0.3135  0.4472 -0.0441
   40POPC   O13 5327   0.227   0.276   6.275  0.0559 -0.0427  0.2023
   40POPC   O14 5328   0.321   0.498   6.221  0.1547  0.1880 -0.8173
   40POPC   O12 5329   0.473   0.331   6.293  0.3453 -0.0387  0.1839
   40POPC   O11 5330   0.300   0.434   6.453 -0.2878  0.4599  0.4583
   40POPC    C1 5331   0.388   0.515   6.529 -0.2380 -0.0489 -0.3699
   40POPC    HA 5332   0.388   0.620   6.492  0.5397  0.5963  1.3433
   40POPC    HB 5333   0.495   0.484   6.520  0.6875  2.5875  0.4351
   40POPC    C2 5334   0.344   0.514   6.687  0.0162  0.5843  0.5579
   40POPC    HS 5335   0.401   0.585   6.750  0.7571  1.6022 -1.1935
   40POPC   O21 5336   0.357   0.377   6.740  0.4321 -0.1613  0.2584
   40POPC   C21 5337   0.482   0.336   6.752 -0.0772  0.2102 -0.8196
   40POPC   O22 5338   0.581   0.406   6.732  0.7173 -0.5437 -1.0271
   40POPC   C22 5339   0.497   0.187   6.789 -0.1564 -0.6388 -0.4931
   40POPC   H2R 5340   0.457   0.134   6.701 -2.1604  1.7303 -1.1187
   40POPC   H2S 5341   0.425   0.164   6.871  1.7256 -1.2333  1.0557
   40POPC    C3 5342   0.200   0.551   6.695  0.0269  0.3668  0.0730
   40POPC    HX 5343   0.126   0.490   6.639 -1.0230  1.2009  0.5170
   40POPC    HY 5344   0.195   0.655   6.656 -0.5233  0.1303 -0.5125
   40POPC   O31 5345   0.167   0.571   6.832  0.0951 -0.0907 -0.2621
   40POPC   C31 5346   0.111   0.468   6.893  0.6352 -0.1547  0.2333
   40POPC   O32 5347   0.060   0.373   6.836 -0.5709 -0.8921 -0.7918
   40POPC   C32 5348   0.106   0.500   7.040  0.1539  1.1616  0.9332
   40POPC   H2X 5349   0.014   0.456   7.084 -1.0476  0.1025 -2.3330
   40POPC   H2Y 5350   0.105   0.611   7.044 -0.2292  1.3299 -2.0106
   40POPC   C23 5351   0.637   0.169   6.841  0.0237 -0.7187  0.7995
   40POPC   H3R 5352   0.647   0.225   6.937 -0.6328  0.6672  0.0830
   40POPC   H3S 5353   0.714   0.215   6.775 -0.7255  1.2131  1.2205
   40POPC   C24 5354   0.692   0.023   6.855  0.1636  0.1289 -0.0096
   40POPC   H4R 5355   0.666  -0.021   6.756 -2.3289  0.8032  0.2727
   40POPC   H4S 5356   0.627  -0.030   6.928  0.1895 -1.2797 -0.9800
   40POPC   C25 5357   0.837   0.020   6.905  1.0506 -0.1399  0.4140
   40POPC   H5R 5358   0.854   0.093   6.987  0.1286 -0.5165  0.9589
   40POPC   H5S 5359   0.902   0.049   6.819 -1.3703  1.0897 -1.1084
   40POPC   C26 5360   0.880  -0.121   6.953  0.0153  0.2350  0.9458
   40POPC   H6R 5361   0.796  -0.165   7.010 -3.5255  2.9424 -1.7301
   40POPC   H6S 5362   0.959  -0.116   7.031  0.1232 -0.7222  0.9145
   40POPC   C27 5363   0.945  -0.216   6.847  0.6273 -0.9412  0.0887
   40POPC   H7R 5364   1.019  -0.156   6.790  1.8192 -3.5892 -1.3141
   40POPC   H7S 5365   0.864  -0.248   6.778 -0.5252  2.0462 -0.1112
   40POPC   C28 5366   1.023  -0.331   6.916 -0.0098 -0.3082 -0.2701
   40POPC   H8R 5367   1.115  -0.295   6.967 -0.0430 -0.1506 -0.3211
   40POPC   H8S 5368   1.055  -0.400   6.835 -1.6816 -0.4914 -0.8168
   40POPC   C29 5369   0.949  -0.412   7.018 -0.1027  0.1293 -0.2154
   40POPC   H91 5370   0.865  -0.359   7.064 -0.9294  0.3736 -1.9250
   40POPC  C210 5371   0.945  -0.549   7.021  0.0654  0.1554 -0.1907
   40POPC  H101 5372   0.903  -0.602   7.108  0.9525 -1.2556 -0.5906
   40POPC  C211 5373   1.021  -0.639   6.927  0.2888  0.1452 -0.3295
   40POPC  H11R 5374   1.037  -0.597   6.825 -0.5245 -0.4041 -0.7006
   40POPC  H11S 5375   0.949  -0.722   6.906  0.7090  0.1917 -2.1552
   40POPC  C212 5376   1.148  -0.675   6.986  0.4947 -0.7888 -0.6774
   40POPC  H12R 5377   1.206  -0.583   7.007  2.0907 -1.4307 -2.0308
   40POPC  H12S 5378   1.200  -0.738   6.911 -0.5238 -1.2922 -0.9721
   40POPC  C213 5379   1.134  -0.767   7.111 -0.1195 -0.0132 -0.5844
   40POPC  H13R 5380   1.085  -0.857   7.070  0.4044 -0.3791 -0.4113
   40POPC  H13S 5381   1.072  -0.712   7.186  1.4938 -1.6421  2.1159
   40POPC  C214 5382   1.266  -0.787   7.183 -0.0403  0.3415 -0.9731
   40POPC  H14R 5383   1.312  -0.688   7.201 -1.6170  0.7273  1.2613
   40POPC  H14S 5384   1.333  -0.843   7.113  1.4404 -0.8114  1.2572
   40POPC  C215 5385   1.249  -0.863   7.312 -0.3740  0.0898  0.1183
   40POPC  H15R 5386   1.346  -0.848   7.365  0.7132 -0.9612 -1.4937
   40POPC  H15S 5387   1.246  -0.973   7.297 -1.5527  0.0744  0.4282
   40POPC  C216 5388   1.144  -0.813   7.407  0.6438 -0.1136 -0.7139
   40POPC  H16R 5389   1.045  -0.832   7.361 -0.3393  0.7014  0.9555
   40POPC  H16S 5390   1.149  -0.706   7.436 -2.8781 -0.3255  1.3182
   40POPC  C217 5391   1.142  -0.899   7.533  0.0672 -0.1412 -0.3849
   40POPC  H17R 5392   1.120  -0.832   7.618 -1.5195  1.7495 -2.1682
   40POPC  H17S 5393   1.240  -0.949   7.550 -0.0335  0.2897  1.6091
   40POPC  C218 5394   1.030  -1.009   7.544 -0.2633 -0.0569  0.2384
   40POPC  H18R 5395   1.039  -1.054   7.645 -1.2296  1.1863  0.9146
   40POPC  H18S 5396   1.038  -1.081   7.460 -2.2255 -0.1103  0.0389
   40POPC  H18T 5397   0.924  -0.977   7.535 -0.7152 -1.3614  0.7205
   40POPC   C33 5398   0.243   0.452   7.093 -0.7567  0.8649  0.3755
   40POPC   H3X 5399   0.267   0.503   7.189  0.5099  0.7901  0.1234
   40POPC   H3Y 5400   0.315   0.490   7.017  0.3557  0.8254  1.3660
   40POPC   C34 5401   0.255   0.299   7.119 -0.9521  0.5024  0.6059
   40POPC   H4X 5402   0.235   0.239   7.027  0.3695  0.2548  0.4684
   40POPC   H4Y 5403   0.178   0.277   7.197  0.4465  4.3508  3.3451
   40POPC   C35 5404   0.394   0.255   7.169 -0.2352 -0.6744  0.0637
   40POPC   H5X 5405   0.398   0.301   7.271 -3.2778 -0.5485  0.1941
   40POPC   H5Y 5406   0.466   0.310   7.105 -1.0841 -0.7684 -0.9878
   40POPC   C36 5407   0.412   0.109   7.173 -0.1417 -0.3437  0.0646
   40POPC   H6X 5408   0.410   0.061   7.073 -0.0178 -1.1212  0.4242
   40POPC   H6Y 5409   0.328   0.061   7.228  2.5907 -1.8477  3.2964
   40POPC   C37 5410   0.539   0.083   7.258  0.7711 -0.4013 -0.3195
   40POPC   H7X 5411   0.535   0.144   7.351 -2.5897  3.1870 -2.5034
   40POPC   H7Y 5412   0.614   0.129   7.191  0.5757  1.3599  0.5978
   40POPC   C38 5413   0.571  -0.067   7.287 -1.1851 -0.2734  0.6114
   40POPC   H8X 5414   0.681  -0.055   7.304 -0.5726 -1.5484 -1.9576
   40POPC   H8Y 5415   0.561  -0.138   7.202 -1.2283 -1.2146  1.3839
   40POPC   C39 5416   0.485  -0.122   7.399 -0.2033 -0.9010  0.0849
   40POPC   H9X 5417   0.455  -0.223   7.363 -1.5451 -1.0610  1.5297
   40POPC   H9Y 5418   0.396  -0.055   7.399 -0.0441 -0.6484 -1.5306
   40POPC  C310 5419   0.555  -0.132   7.537 -0.3952 -0.9914  1.0505
   40POPC  H10X 5420   0.651  -0.185   7.521 -1.0272 -1.7406 -0.3729
   40POPC  H10Y 5421   0.485  -0.188   7.603 -1.0421 -0.0245  1.2207
   40POPC  C311 5422   0.594   0.001   7.603 -0.0758 -0.3494 -0.0108
   40POPC  H11X 5423   0.502   0.054   7.636 -0.1291  0.2117 -1.0311
   40POPC  H11Y 5424   0.651   0.063   7.531 -1.2757 -0.1848 -0.8518
   40POPC  C312 5425   0.699  -0.033   7.715  0.0243 -0.0633  0.1672
   40POPC  H12X 5426   0.745   0.067   7.729  0.2200 -0.2483  0.8959
   40POPC  H12Y 5427   0.771  -0.108   7.675  0.5145 -0.5348  1.8331
   40POPC  C313 5428   0.622  -0.086   7.835  0.4321 -0.0351  0.0189
   40POPC  H13X 5429   0.579  -0.181   7.796  1.3163  0.7702 -3.2968
   40POPC  H13Y 5430   0.544  -0.017   7.872  1.9078  1.4088  0.5390
   40POPC  C314 5431   0.713  -0.112   7.960  0.7322 -0.5402  0.6505
   40POPC  H14X 5432   0.715  -0.016   8.016  0.5443  1.0731 -1.8883
   40POPC  H14Y 5433   0.818  -0.129   7.926  1.2181  2.5303  0.3153
   40POPC  C315 5434   0.670  -0.239   8.039  0.0108  0.1741  0.5912
   40POPC  H15X 5435   0.737  -0.267   8.124  1.5924 -0.3212 -0.7692
   40POPC  H15Y 5436   0.660  -0.326   7.970  0.7737  0.0541  0.6253
   40POPC  C316 5437   0.536  -0.226   8.107 -0.5011  0.3922  0.0993
   40POPC  H16X 5438   0.525  -0.302   8.187  2.6756  1.2066  1.5079
   40POPC  H16Y 5439   0.452  -0.227   8.035  1.0925  0.0577 -1.8261
   40POPC  H16Z 5440   0.535  -0.129   8.162 -1.0697  1.2872 -1.4314
   41CHL1    C3 5441   2.762   4.967   9.961 -0.3722 -0.2923  0.2814
   41CHL1    H3 5442   2.690   4.915   9.894  0.6511  1.7495 -2.6263
   41CHL1    O3 5443   2.725   4.954  10.094 -0.1636  0.1061  0.3976
   41CHL1   H3' 5444   2.797   4.990  10.145 -1.9687  1.7816  1.9434
   41CHL1    C4 5445   2.907   4.916   9.939  0.0903 -0.0504 -0.9883
   41CHL1   H4A 5446   2.979   4.980   9.994 -2.0254  0.1475  1.8055
   41CHL1   H4B 5447   2.918   4.818   9.990  3.0136  0.4071 -0.6030
   41CHL1    C5 5448   2.952   4.913   9.799 -0.1393  0.7219 -0.1115
   41CHL1    C6 5449   2.995   4.796   9.741  0.3582  0.1054 -0.2361
   41CHL1    H6 5450   2.979   4.700   9.793 -1.7486  0.1574 -0.7081
   41CHL1    C7 5451   3.035   4.764   9.600 -0.3177 -0.6259 -0.3868
   41CHL1   H7A 5452   3.135   4.716   9.602  0.5281  1.0669 -0.4860
   41CHL1   H7B 5453   2.967   4.696   9.544 -1.7695 -1.2462  1.9732
   41CHL1    C8 5454   3.046   4.892   9.517  0.3520 -0.0401  0.0702
   41CHL1    H8 5455   3.140   4.948   9.540 -1.9820  2.2000  6.3470
   41CHL1   C14 5456   3.030   4.853   9.372  0.2833  0.1956 -0.3072
   41CHL1   H14 5457   2.940   4.789   9.373  2.4708 -3.1181 -0.8989
   41CHL1   C15 5458   3.131   4.754   9.303  0.1432 -0.2280  0.3284
   41CHL1  H15A 5459   3.240   4.772   9.317 -0.2831  1.0833  2.4148
   41CHL1  H15B 5460   3.111   4.651   9.339 -0.1133 -0.6248 -0.9091
   41CHL1   C16 5461   3.110   4.776   9.149  0.5498  0.6143  0.0343
   41CHL1  H16A 5462   3.212   4.801   9.115 -0.6900  3.1264 -2.0956
   41CHL1  H16B 5463   3.079   4.683   9.096  2.2826  1.0221 -1.7894
   41CHL1   C17 5464   3.008   4.897   9.138  0.1221  0.3842 -0.0997
   41CHL1   H17 5465   2.911   4.843   9.139  0.0269  0.5479 -0.3441
   41CHL1   C13 5466   3.017   4.973   9.276  0.9104  0.2454 -0.2678
   41CHL1   C18 5467   3.138   5.066   9.274 -0.0108 -0.6225  0.1774
   41CHL1  H18A 5468   3.147   5.132   9.362  0.3570  3.1950 -2.4965
   41CHL1  H18B 5469   3.236   5.014   9.264  0.0001 -0.4448 -0.6962
   41CHL1  H18C 5470   3.117   5.143   9.197 -0.7785  0.8675  1.8013
   41CHL1   C12 5471   2.900   5.068   9.312 -0.2347  0.5615  0.1211
   41CHL1  H12A 5472   2.886   5.159   9.250 -0.6922  0.5363  0.1799
   41CHL1  H12B 5473   2.811   5.002   9.299 -1.2792  1.5085  2.0219
   41CHL1   C11 5474   2.895   5.101   9.459 -0.4746 -0.8172 -0.0828
   41CHL1  H11A 5475   2.963   5.186   9.481  0.7803 -1.2562 -2.0205
   41CHL1  H11B 5476   2.792   5.141   9.473  0.0464  0.3835  0.4766
   41CHL1    C9 5477   2.922   4.986   9.558 -0.1408  0.8035 -0.0275
   41CHL1    H9 5478   2.840   4.911   9.552 -0.4477  1.2531 -1.8203
   41CHL1   C10 5479   2.930   5.033   9.703  0.4476 -0.2233 -0.9731
   41CHL1   C19 5480   3.054   5.122   9.733  0.0884 -1.0538 -0.1166
   41CHL1  H19A 5481   3.047   5.204   9.659  0.6488  0.4165  1.3904
   41CHL1  H19B 5482   3.056   5.167   9.835 -0.5252  0.3672 -0.6993
   41CHL1  H19C 5483   3.152   5.073   9.712  1.4618  0.2592  2.6777
   41CHL1    C1 5484   2.797   5.118   9.758 -0.3802 -0.3126  0.8276
   41CHL1   H1A 5485   2.814   5.217   9.711  1.3845 -0.2700  1.4937
   41CHL1   H1B 5486   2.710   5.081   9.699  0.0386  1.6478 -1.1349
   41CHL1    C2 5487   2.769   5.119   9.910 -0.5098 -0.1900  0.0980
   41CHL1   H2A 5488   2.672   5.172   9.913  0.0593  0.9022 -0.3246
   41CHL1   H2B 5489   2.857   5.170   9.955  0.2724 -0.1903 -1.3832
   41CHL1   C20 5490   3.013   4.971   9.000 -0.4108  0.5439 -0.3474
   41CHL1   H20 5491   3.102   5.037   8.996  1.4233 -1.8020 -0.1039
   41CHL1   C21 5492   2.885   5.057   8.973 -0.6513  0.8057  0.3588
   41CHL1  H21A 5493   2.784   5.013   8.990 -0.9290  0.5945 -1.6846
   41CHL1  H21B 5494   2.890   5.100   8.871 -2.6812 -2.8750 -1.4883
   41CHL1  H21C 5495   2.886   5.146   9.040 -1.1317 -0.1869  1.7471
   41CHL1   C22 5496   3.044   4.875   8.880 -0.0465 -0.2210  0.2624
   41CHL1  H22A 5497   3.141   4.827   8.902 -0.3136 -1.2181 -0.6527
   41CHL1  H22B 5498   2.967   4.796   8.894  0.3422 -0.5997  0.2941
   41CHL1   C23 5499   3.046   4.932   8.737  0.1806  0.5906 -0.1054
   41CHL1  H23A 5500   3.046   4.841   8.673  2.4156  1.9410 -2.2120
   41CHL1  H23B 5501   2.960   4.994   8.704 -0.7676 -0.5177  0.2396
   41CHL1   C24 5502   3.173   5.012   8.702  0.1887 -0.2102 -0.1536
   41CHL1  H24A 5503   3.190   5.103   8.762 -2.2557 -0.6980  1.4178
   41CHL1  H24B 5504   3.256   4.949   8.741 -0.2709  0.0632  1.3404
   41CHL1   C25 5505   3.193   5.028   8.550  0.0011 -0.3054 -0.4459
   41CHL1   H25 5506   3.171   4.926   8.510  0.6843 -0.9821  0.8257
   41CHL1   C26 5507   3.099   5.128   8.476 -0.1667 -0.2584 -0.3576
   41CHL1  H26A 5508   3.119   5.118   8.367  1.3878  0.1434 -0.1349
   41CHL1  H26B 5509   2.994   5.118   8.510 -0.7497  0.0151 -1.9847
   41CHL1  H26C 5510   3.131   5.228   8.512  1.3085 -1.0195  0.5720
   41CHL1   C27 5511   3.339   5.066   8.517  0.2101 -0.6529  0.2178
   41CHL1  H27A 5512   3.372   5.145   8.587  1.3736 -0.4875 -0.4980
   41CHL1  H27B 5513   3.407   4.978   8.520  1.9838  0.5725 -1.6463
   41CHL1  H27C 5514   3.351   5.112   8.417  2.0764  1.9113  1.5071
   42CHL1    C3 5515   2.739   3.897   9.749  0.4575 -0.5832  0.1202
   42CHL1    H3 5516   2.629   3.902   9.767  0.4107 -0.3961 -0.2028
   42CHL1    O3 5517   2.807   3.874   9.870  0.2495  0.6627 -0.3462
   42CHL1   H3' 5518   2.824   3.779   9.872  0.0762  0.6261 -0.5686
   42CHL1    C4 5519   2.775   3.783   9.656  0.0897 -0.0642 -0.9188
   42CHL1   H4A 5520   2.884   3.797   9.644  0.2323 -0.1396  0.1938
   42CHL1   H4B 5521   2.756   3.681   9.695  0.0445 -0.4543 -1.9345
   42CHL1    C5 5522   2.708   3.800   9.518 -0.4411  0.4849 -0.2020
   42CHL1    C6 5523   2.627   3.701   9.466  0.3668 -0.9148 -0.3166
   42CHL1    H6 5524   2.598   3.614   9.527  0.1281 -1.7125 -1.5418
   42CHL1    C7 5525   2.555   3.710   9.331 -0.1042  0.2005  0.5758
   42CHL1   H7A 5526   2.559   3.620   9.267  1.8613  0.6853 -0.0742
   42CHL1   H7B 5527   2.450   3.742   9.347 -1.2035 -2.1174 -1.4850
   42CHL1    C8 5528   2.613   3.814   9.235  0.6260  0.5564 -0.4673
   42CHL1    H8 5529   2.713   3.788   9.193  0.6334  0.9130 -0.6716
   42CHL1   C14 5530   2.512   3.845   9.119  1.1959 -0.6776 -0.1339
   42CHL1   H14 5531   2.416   3.877   9.166  0.8332  0.8816 -1.8232
   42CHL1   C15 5532   2.477   3.730   9.026  0.2548  0.0333  0.1597
   42CHL1  H15A 5533   2.571   3.674   9.005  0.8185  1.0946 -0.2124
   42CHL1  H15B 5534   2.395   3.666   9.065  1.5043  0.9857  5.1235
   42CHL1   C16 5535   2.425   3.805   8.897 -0.3628 -0.2299  0.3052
   42CHL1  H16A 5536   2.491   3.767   8.817  1.4140  2.1739  0.5229
   42CHL1  H16B 5537   2.319   3.783   8.870  0.2735 -0.5494 -2.1161
   42CHL1   C17 5538   2.443   3.960   8.923  0.2377  0.7241  0.1714
   42CHL1   H17 5539   2.355   3.996   8.981 -0.4439  1.6435 -1.3544
   42CHL1   C13 5540   2.559   3.968   9.032  0.3874 -0.4501  0.1950
   42CHL1   C18 5541   2.698   3.940   8.960 -0.6505 -0.3872 -0.0354
   42CHL1  H18A 5542   2.705   3.837   8.920 -0.1388 -0.4491  0.2011
   42CHL1  H18B 5543   2.722   4.024   8.890 -0.0738  0.1464  0.7858
   42CHL1  H18C 5544   2.773   3.947   9.042 -0.0373 -0.3139 -0.5900
   42CHL1   C12 5545   2.553   4.094   9.125 -0.4657  0.4481  0.4834
   42CHL1  H12A 5546   2.587   4.180   9.063  0.7857  0.1512  0.7236
   42CHL1  H12B 5547   2.448   4.102   9.161 -0.1043  1.7120  1.3420
   42CHL1   C11 5548   2.652   4.075   9.237 -0.6395 -0.5407 -0.4472
   42CHL1  H11A 5549   2.754   4.067   9.194  1.2282 -0.3584  3.4854
   42CHL1  H11B 5550   2.646   4.168   9.299 -0.2591  0.3573 -1.7123
   42CHL1    C9 5551   2.637   3.944   9.325 -0.1344 -0.6188  0.4261
   42CHL1    H9 5552   2.539   3.955   9.377  0.4630  0.4682  1.3630
   42CHL1   C10 5553   2.732   3.933   9.447  0.5763 -0.5004  0.8906
   42CHL1   C19 5554   2.873   3.931   9.390  0.9416 -0.3227  0.0564
   42CHL1  H19A 5555   2.907   4.030   9.352 -0.2756  0.3337  0.6111
   42CHL1  H19B 5556   2.958   3.905   9.457  0.0304 -0.6770  1.0995
   42CHL1  H19C 5557   2.869   3.867   9.299 -0.6986  2.0833 -1.7081
   42CHL1    C1 5558   2.719   4.051   9.540  0.7971  0.3631 -0.9652
   42CHL1   H1A 5559   2.765   4.143   9.497  4.4185 -0.6651  0.3175
   42CHL1   H1B 5560   2.611   4.064   9.560  1.2182 -1.5233  4.0319
   42CHL1    C2 5561   2.776   4.031   9.678 -0.2928  0.2240 -0.5583
   42CHL1   H2A 5562   2.748   4.118   9.741  1.1605  2.8880 -3.3547
   42CHL1   H2B 5563   2.887   4.034   9.676 -0.1058 -2.7390  0.4646
   42CHL1   C20 5564   2.437   4.042   8.789 -0.2030  0.0751  0.7569
   42CHL1   H20 5565   2.521   3.999   8.730  0.2034  2.7891 -0.7686
   42CHL1   C21 5566   2.487   4.181   8.822 -0.0296  0.0800 -0.2805
   42CHL1  H21A 5567   2.435   4.220   8.911 -1.4351  0.7884 -1.3623
   42CHL1  H21B 5568   2.461   4.252   8.740  0.3051  0.3321 -0.1690
   42CHL1  H21C 5569   2.596   4.194   8.836  0.3056 -2.4883 -0.1104
   42CHL1   C22 5570   2.307   4.030   8.710 -0.2401 -0.4815 -0.4110
   42CHL1  H22A 5571   2.314   4.086   8.614  0.5661 -0.2153 -0.2080
   42CHL1  H22B 5572   2.294   3.925   8.677  0.6557 -0.2587 -1.5356
   42CHL1   C23 5573   2.194   4.069   8.798 -0.0695 -0.0009 -0.0625
   42CHL1  H23A 5574   2.196   3.994   8.879  2.6950  0.9837  0.8803
   42CHL1  H23B 5575   2.212   4.167   8.847  0.7777 -1.7154  3.2910
   42CHL1   C24 5576   2.059   4.078   8.716  0.5392 -0.7628 -0.4048
   42CHL1  H24A 5577   2.065   4.171   8.655  0.8844 -1.3604 -1.3123
   42CHL1  H24B 5578   2.053   3.996   8.641  0.3764  0.8812 -2.2834
   42CHL1   C25 5579   1.919   4.086   8.792 -0.5183  0.4674 -0.0902
   42CHL1   H25 5580   1.914   4.000   8.861  0.2894 -0.2209 -0.8565
   42CHL1   C26 5581   1.909   4.216   8.875  0.0877 -0.3442  0.0053
   42CHL1  H26A 5582   1.918   4.311   8.818  3.1639 -0.1488  0.6451
   42CHL1  H26B 5583   1.822   4.222   8.945 -0.0397 -0.4765 -0.1427
   42CHL1  H26C 5584   1.998   4.216   8.942  0.7622  0.2853 -0.8773
   42CHL1   C27 5585   1.805   4.081   8.690 -0.5410 -0.0194 -0.7363
   42CHL1  H27A 5586   1.807   3.987   8.631 -1.2053 -0.6112  0.1644
   42CHL1  H27B 5587   1.710   4.081   8.747 -0.7071 -1.5858 -0.9911
   42CHL1  H27C 5588   1.805   4.169   8.622 -1.5807  0.3006 -0.3461
   43CHL1    C3 5589   3.241   4.022  10.088  0.2873 -0.3382  0.1022
   43CHL1    H3 5590   3.175   4.096  10.038  0.3780 -1.6076 -2.0095
   43CHL1    O3 5591   3.185   4.018  10.212 -0.6476  0.8157 -0.1236
   43CHL1   H3' 5592   3.195   3.925  10.235 -2.3776  0.5762 -0.1690
   43CHL1    C4 5593   3.226   3.886  10.020  0.1664  0.0315 -0.4674
   43CHL1   H4A 5594   3.292   3.814  10.073  2.8322  2.0213 -0.8478
   43CHL1   H4B 5595   3.119   3.860  10.036  0.1339  0.8500  0.8134
   43CHL1    C5 5596   3.252   3.905   9.873  0.1001  0.8010 -0.0863
   43CHL1    C6 5597   3.165   3.869   9.779  0.0747 -0.0811  0.5281
   43CHL1    H6 5598   3.067   3.825   9.802 -2.0790  3.6835 -0.5911
   43CHL1    C7 5599   3.192   3.882   9.633 -0.4941  0.0108 -0.2878
   43CHL1   H7A 5600   3.162   3.787   9.584  0.1311  0.1912 -1.0595
   43CHL1   H7B 5601   3.132   3.967   9.595  2.7902  3.6270  1.8031
   43CHL1    C8 5602   3.336   3.921   9.590  0.5509 -0.1676  0.2646
   43CHL1    H8 5603   3.388   3.824   9.606 -0.7754 -1.0278 -0.4523
   43CHL1   C14 5604   3.353   3.969   9.448 -0.0973  0.3944  0.5017
   43CHL1   H14 5605   3.295   4.064   9.452 -1.1677 -0.0537 -2.2540
   43CHL1   C15 5606   3.284   3.881   9.345 -0.0561  0.3286 -0.3019
   43CHL1  H15A 5607   3.311   3.778   9.374 -2.2038  0.0345  0.8421
   43CHL1  H15B 5608   3.174   3.888   9.337  0.1061  0.9673 -2.9127
   43CHL1   C16 5609   3.347   3.929   9.218  0.1280 -0.0006  1.0243
   43CHL1  H16A 5610   3.375   3.845   9.151  1.5038  1.7574 -0.7097
   43CHL1  H16B 5611   3.285   4.004   9.164 -1.0030  1.2793  3.9114
   43CHL1   C17 5612   3.477   4.013   9.253 -0.5928 -0.3830  0.0282
   43CHL1   H17 5613   3.444   4.119   9.245 -1.5517 -0.7564 -1.3195
   43CHL1   C13 5614   3.501   3.992   9.405  1.5781 -0.0763 -0.2339
   43CHL1   C18 5615   3.580   3.856   9.413  0.6973 -0.6965  0.1407
   43CHL1  H18A 5616   3.538   3.784   9.341  1.7541  2.5609 -4.1268
   43CHL1  H18B 5617   3.682   3.874   9.371  0.0366 -0.0334 -1.2136
   43CHL1  H18C 5618   3.599   3.817   9.516  2.8069  0.7980  0.3870
   43CHL1   C12 5619   3.551   4.108   9.493  0.1574 -0.1063  0.3338
   43CHL1  H12A 5620   3.660   4.126   9.477  0.1401  1.2622  1.5546
   43CHL1  H12B 5621   3.491   4.200   9.477  1.8974  1.5059  2.4227
   43CHL1   C11 5622   3.544   4.053   9.642  0.5195  0.4780 -0.1552
   43CHL1  H11A 5623   3.604   3.963   9.664 -1.0444 -0.5960 -0.1599
   43CHL1  H11B 5624   3.587   4.137   9.701  0.5576  0.5867 -0.3368
   43CHL1    C9 5625   3.405   4.012   9.689  0.5654 -0.3525 -0.2766
   43CHL1    H9 5626   3.350   4.108   9.686  2.5184  0.7942 -2.8176
   43CHL1   C10 5627   3.390   3.966   9.840 -0.3180 -0.1991  0.0453
   43CHL1   C19 5628   3.489   3.847   9.867  0.4518 -0.1938  0.8306
   43CHL1  H19A 5629   3.592   3.875   9.836 -0.4397  3.0294  0.3748
   43CHL1  H19B 5630   3.487   3.824   9.976 -3.4562 -2.6560  0.4476
   43CHL1  H19C 5631   3.451   3.755   9.818 -0.6375  0.1739  0.9565
   43CHL1    C1 5632   3.421   4.089   9.930 -0.2653  0.0520  0.4177
   43CHL1   H1A 5633   3.527   4.117   9.910 -1.1077  2.3968 -1.2257
   43CHL1   H1B 5634   3.354   4.169   9.890  3.3721  2.8637 -0.6468
   43CHL1    C2 5635   3.388   4.072  10.080  0.1554 -0.6273 -0.4701
   43CHL1   H2A 5636   3.388   4.172  10.127  1.6815 -1.2059  0.8916
   43CHL1   H2B 5637   3.453   4.012  10.148 -0.5476  0.1501  0.9362
   43CHL1   C20 5638   3.591   3.983   9.151 -0.5171 -0.8725  0.4492
   43CHL1   H20 5639   3.614   3.874   9.151 -1.4102 -1.0840  1.8606
   43CHL1   C21 5640   3.716   4.072   9.188 -0.1446 -0.3102 -0.1662
   43CHL1  H21A 5641   3.785   4.076   9.102 -1.0984 -0.2522 -0.9475
   43CHL1  H21B 5642   3.769   4.033   9.278  4.9949  2.8210 -1.4337
   43CHL1  H21C 5643   3.685   4.175   9.214  1.0362 -0.3446  1.5555
   43CHL1   C22 5644   3.545   4.022   9.011  0.6053 -0.0838 -0.1748
   43CHL1  H22A 5645   3.454   3.963   8.985 -0.3789  0.8488  1.0067
   43CHL1  H22B 5646   3.504   4.125   9.021  1.4799  0.4999 -2.1113
   43CHL1   C23 5647   3.639   4.005   8.900 -0.2315 -0.1817 -0.1752
   43CHL1  H23A 5648   3.715   4.086   8.903 -0.0163 -0.3896  0.0517
   43CHL1  H23B 5649   3.683   3.904   8.915 -0.6295 -0.1452  1.2990
   43CHL1   C24 5650   3.572   4.003   8.763  0.3123  0.6668 -0.1765
   43CHL1  H24A 5651   3.647   3.966   8.690  0.5091 -0.0068  0.3573
   43CHL1  H24B 5652   3.491   3.926   8.754  0.3645  0.5160  0.6273
   43CHL1   C25 5653   3.515   4.134   8.714  0.2030 -0.4399 -0.4398
   43CHL1   H25 5654   3.432   4.161   8.782 -0.1016 -2.7412  0.1809
   43CHL1   C26 5655   3.621   4.244   8.708 -0.0745  0.7743  0.3476
   43CHL1  H26A 5656   3.669   4.283   8.801  0.3368 -1.2989  1.0645
   43CHL1  H26B 5657   3.695   4.203   8.636 -0.2165  1.8917 -0.4533
   43CHL1  H26C 5658   3.570   4.332   8.664  0.0983  0.4912 -0.4289
   43CHL1   C27 5659   3.459   4.116   8.575 -0.8123 -0.6279  0.0935
   43CHL1  H27A 5660   3.414   4.211   8.540  1.0453  0.5678  0.7687
   43CHL1  H27B 5661   3.548   4.087   8.515  0.2853 -0.5907  1.6574
   43CHL1  H27C 5662   3.386   4.032   8.570 -1.0960 -0.3741 -0.0002
   44CHL1    C3 5663   3.643   4.406  10.379 -0.5401  0.0323 -0.4600
   44CHL1    H3 5664   3.686   4.304  10.388  1.1519  0.7642  0.2546
   44CHL1    O3 5665   3.563   4.435  10.497  0.2300 -0.3093 -0.3201
   44CHL1   H3' 5666   3.474   4.447  10.463  0.5855 -0.7560 -1.4628
   44CHL1    C4 5667   3.757   4.505  10.347 -0.3606 -0.1017 -0.3395
   44CHL1   H4A 5668   3.710   4.606  10.345 -0.1231  0.0091 -0.4308
   44CHL1   H4B 5669   3.820   4.498  10.438 -0.4506  1.1755 -0.1655
   44CHL1    C5 5670   3.827   4.475  10.220 -0.9983 -0.2566 -0.0933
   44CHL1    C6 5671   3.958   4.452  10.221 -0.7551 -0.3757  0.4666
   44CHL1    H6 5672   4.013   4.470  10.315  0.9399 -2.7872  0.0208
   44CHL1    C7 5673   4.042   4.410  10.108  0.1470  0.0060 -0.3219
   44CHL1   H7A 5674   4.140   4.462  10.102 -0.1347  0.4101 -2.2376
   44CHL1   H7B 5675   4.071   4.304  10.123 -0.3657 -0.1366 -0.3306
   44CHL1    C8 5676   3.965   4.418   9.977  0.2149 -0.6092 -0.4062
   44CHL1    H8 5677   3.968   4.528   9.961 -2.1807 -0.3157  0.6749
   44CHL1   C14 5678   4.041   4.344   9.871  0.8466  0.1129  0.1472
   44CHL1   H14 5679   4.040   4.240   9.912  0.7871  0.2297  0.4445
   44CHL1   C15 5680   4.194   4.368   9.848 -0.1149  0.2025 -0.3808
   44CHL1  H15A 5681   4.207   4.476   9.826 -2.7439  0.7757  0.5695
   44CHL1  H15B 5682   4.259   4.335   9.933 -0.2023 -2.8469 -1.3654
   44CHL1   C16 5683   4.222   4.290   9.715  0.3165  0.5701  0.2424
   44CHL1  H16A 5684   4.287   4.329   9.634  0.6863 -0.3123  0.1009
   44CHL1  H16B 5685   4.271   4.196   9.748  0.0652  0.7877  1.2988
   44CHL1   C17 5686   4.075   4.251   9.663  0.2808 -0.0703  0.1858
   44CHL1   H17 5687   4.049   4.152   9.706 -3.0131  0.8000  0.4993
   44CHL1   C13 5688   3.968   4.339   9.735  0.6707 -0.0525 -0.1208
   44CHL1   C18 5689   3.965   4.483   9.676  0.3287 -0.1963 -0.3038
   44CHL1  H18A 5690   3.921   4.507   9.577 -1.8078 -0.3062  0.5760
   44CHL1  H18B 5691   3.897   4.532   9.749  0.6201 -0.4727  0.1594
   44CHL1  H18C 5692   4.065   4.531   9.687  1.0939 -0.7193 -3.8647
   44CHL1   C12 5693   3.823   4.289   9.751  0.0570 -0.1400  0.5310
   44CHL1  H12A 5694   3.776   4.303   9.651 -0.8499 -0.7212  0.8711
   44CHL1  H12B 5695   3.816   4.178   9.756  0.8637 -0.2954 -1.0235
   44CHL1   C11 5696   3.733   4.362   9.857  0.1586  0.0001 -0.0572
   44CHL1  H11A 5697   3.699   4.462   9.823 -1.4993 -0.6374 -0.3381
   44CHL1  H11B 5698   3.631   4.322   9.875 -0.1227  1.6004  2.2869
   44CHL1    C9 5699   3.811   4.376   9.995 -0.1008  0.6599  0.4815
   44CHL1    H9 5700   3.834   4.274  10.030  0.3478  1.1297  1.5930
   44CHL1   C10 5701   3.736   4.452  10.098  0.0304 -0.3646 -0.1350
   44CHL1   C19 5702   3.685   4.584  10.046  0.0362 -0.5256 -0.4399
   44CHL1  H19A 5703   3.604   4.580   9.970  0.9545  1.0890 -1.5756
   44CHL1  H19B 5704   3.644   4.661  10.114  0.0727  2.3670 -3.4051
   44CHL1  H19C 5705   3.772   4.636   9.999  0.1021  1.4659  1.7241
   44CHL1    C1 5706   3.611   4.358  10.134 -0.3405 -0.3335 -0.1228
   44CHL1   H1A 5707   3.540   4.365  10.048 -1.0019 -1.8408  0.2667
   44CHL1   H1B 5708   3.627   4.248  10.141  0.4632 -0.2433 -0.4025
   44CHL1    C2 5709   3.545   4.402  10.263 -0.1310 -0.6297 -1.0656
   44CHL1   H2A 5710   3.459   4.342  10.299 -1.5809  0.8452 -1.9526
   44CHL1   H2B 5711   3.500   4.502  10.249 -1.3515 -1.0708 -0.4643
   44CHL1   C20 5712   4.080   4.242   9.510  0.3698  0.3873 -0.7138
   44CHL1   H20 5713   4.130   4.336   9.476  0.4128  0.4245 -0.5487
   44CHL1   C21 5714   3.936   4.229   9.441 -1.2630  0.0292 -0.0964
   44CHL1  H21A 5715   3.890   4.137   9.483  0.2275 -0.7002  0.0347
   44CHL1  H21B 5716   3.949   4.208   9.333  0.0055 -2.5503  0.4718
   44CHL1  H21C 5717   3.887   4.325   9.468  0.5192  0.4278  2.0848
   44CHL1   C22 5718   4.174   4.118   9.475 -0.5659  0.0735  0.6224
   44CHL1  H22A 5719   4.278   4.128   9.513  0.2803 -0.4623 -1.3826
   44CHL1  H22B 5720   4.133   4.028   9.526  0.2440 -1.8035 -1.7894
   44CHL1   C23 5721   4.162   4.078   9.322 -0.1590 -0.3843 -0.3075
   44CHL1  H23A 5722   4.219   3.984   9.308  1.5556  0.5963 -0.1647
   44CHL1  H23B 5723   4.057   4.051   9.297 -1.0506  3.3265 -1.1730
   44CHL1   C24 5724   4.223   4.186   9.238  0.2123  0.2946  0.2049
   44CHL1  H24A 5725   4.179   4.286   9.260  3.3942  1.3131  2.7698
   44CHL1  H24B 5726   4.330   4.202   9.265  0.6838 -0.1669 -1.2734
   44CHL1   C25 5727   4.221   4.167   9.087 -0.4736 -0.1158 -0.2201
   44CHL1   H25 5728   4.255   4.063   9.066 -0.4999 -0.3443  0.8270
   44CHL1   C26 5729   4.082   4.171   9.018 -0.0555  0.0431 -0.2361
   44CHL1  H26A 5730   4.086   4.164   8.907 -1.1826  0.1297 -0.2938
   44CHL1  H26B 5731   4.015   4.088   9.050  0.4084 -0.4050 -0.4080
   44CHL1  H26C 5732   4.029   4.263   9.051 -0.2674 -0.3735  0.6439
   44CHL1   C27 5733   4.326   4.257   9.019 -0.4014  1.0724  0.1674
   44CHL1  H27A 5734   4.425   4.242   9.065 -0.0520 -1.2865 -1.1571
   44CHL1  H27B 5735   4.346   4.222   8.915 -1.7395 -0.1953  0.3130
   44CHL1  H27C 5736   4.294   4.363   9.005 -2.1541  0.2646 -3.1036
   45CHL1    C3 5737   6.142   1.328  10.163 -0.6061  0.5253  0.2270
   45CHL1    H3 5738   6.104   1.224  10.171  0.4709  0.0351 -0.7246
   45CHL1    O3 5739   6.158   1.381  10.294  0.0514  0.0679 -0.7480
   45CHL1   H3' 5740   6.162   1.476  10.278  1.1804  0.0961 -0.3815
   45CHL1    C4 5741   6.283   1.333  10.097 -0.1046 -0.5911  0.0156
   45CHL1   H4A 5742   6.325   1.435  10.097 -0.3635 -0.4425  2.1627
   45CHL1   H4B 5743   6.355   1.283  10.165 -0.4124 -0.0760  0.7245
   45CHL1    C5 5744   6.279   1.274   9.953  0.7285  0.0418  0.1371
   45CHL1    C6 5745   6.358   1.169   9.919 -0.0531 -0.3408  0.4645
   45CHL1    H6 5746   6.415   1.114   9.996  0.3350 -1.3644 -0.5179
   45CHL1    C7 5747   6.356   1.115   9.777 -0.3473  0.3252 -0.0486
   45CHL1   H7A 5748   6.459   1.105   9.737  0.1523  0.6665  1.1287
   45CHL1   H7B 5749   6.330   1.007   9.778  1.5720 -0.1602 -0.0348
   45CHL1    C8 5750   6.272   1.182   9.673 -0.1462 -0.5376 -0.2896
   45CHL1    H8 5751   6.232   1.101   9.608 -0.5445 -1.2188  0.7851
   45CHL1   C14 5752   6.351   1.268   9.567  0.0087 -0.0570 -0.4646
   45CHL1   H14 5753   6.409   1.339   9.629 -0.6334 -0.2455  0.3654
   45CHL1   C15 5754   6.454   1.175   9.493  0.3264 -0.5259 -0.3566
   45CHL1  H15A 5755   6.549   1.203   9.544 -0.9329  2.2715  0.6281
   45CHL1  H15B 5756   6.447   1.064   9.493  0.2715 -0.5747  1.9761
   45CHL1   C16 5757   6.463   1.235   9.352 -0.7260  0.1952 -0.7178
   45CHL1  H16A 5758   6.532   1.322   9.352  0.8122 -0.9059  1.4874
   45CHL1  H16B 5759   6.498   1.163   9.276 -0.6359  0.8052 -1.2635
   45CHL1   C17 5760   6.318   1.289   9.323  0.2926 -0.2176 -0.0846
   45CHL1   H17 5761   6.262   1.193   9.317  0.4229 -0.4810  2.0434
   45CHL1   C13 5762   6.272   1.345   9.463  0.1522  0.2153 -0.0998
   45CHL1   C18 5763   6.316   1.490   9.481 -0.1153  0.1246  0.2620
   45CHL1  H18A 5764   6.427   1.501   9.470 -0.0868  0.8118  1.2065
   45CHL1  H18B 5765   6.280   1.554   9.398  1.0976 -0.9460 -1.1598
   45CHL1  H18C 5766   6.297   1.520   9.586  1.2553 -0.0555  0.5823
   45CHL1   C12 5767   6.119   1.318   9.477 -0.2510  0.1461 -0.5477
   45CHL1  H12A 5768   6.064   1.388   9.411  0.2148  1.4362  0.3723
   45CHL1  H12B 5769   6.093   1.217   9.440 -1.9767  0.6756 -0.8692
   45CHL1   C11 5770   6.064   1.332   9.624  0.1777  0.0227 -0.7486
   45CHL1  H11A 5771   6.065   1.442   9.640  1.9832  0.3137 -2.5030
   45CHL1  H11B 5772   5.960   1.292   9.624  0.5184 -1.0018 -2.6263
   45CHL1    C9 5773   6.150   1.261   9.733 -0.4510 -0.4826 -0.3255
   45CHL1    H9 5774   6.086   1.180   9.775 -0.8998  0.7636  1.4747
   45CHL1   C10 5775   6.175   1.346   9.864 -0.0034 -0.8327 -0.2608
   45CHL1   C19 5776   6.227   1.492   9.838  0.2385  0.0052 -0.0861
   45CHL1  H19A 5777   6.162   1.565   9.785 -0.4012  0.6908  1.5761
   45CHL1  H19B 5778   6.250   1.536   9.938 -1.0414 -0.1879  0.3094
   45CHL1  H19C 5779   6.323   1.493   9.783  0.4077 -1.2344  0.1524
   45CHL1    C1 5780   6.040   1.363   9.935  0.0783 -0.1978 -0.6119
   45CHL1   H1A 5781   5.977   1.431   9.875  0.4218 -0.2738 -1.0584
   45CHL1   H1B 5782   5.985   1.267   9.927 -0.2111  0.1210 -3.2095
   45CHL1    C2 5783   6.041   1.411  10.081 -0.3896  0.0044 -0.1651
   45CHL1   H2A 5784   5.936   1.386  10.108 -0.7016  0.9828 -0.4579
   45CHL1   H2B 5785   6.060   1.520  10.089  0.1431 -0.0519 -0.6161
   45CHL1   C20 5786   6.305   1.377   9.201 -0.0865  0.5323  0.7856
   45CHL1   H20 5787   6.227   1.453   9.222  0.5578  1.1963  0.8199
   45CHL1   C21 5788   6.247   1.294   9.087  0.5342  0.4432 -0.0474
   45CHL1  H21A 5789   6.313   1.210   9.055 -0.9580 -0.8672  0.1769
   45CHL1  H21B 5790   6.217   1.359   9.002 -1.8456 -1.4182 -0.7725
   45CHL1  H21C 5791   6.149   1.262   9.128  0.6419  2.8445  2.3758
   45CHL1   C22 5792   6.437   1.446   9.157 -0.3118  0.0724  0.2578
   45CHL1  H22A 5793   6.486   1.498   9.243 -2.2050  1.9165  0.3123
   45CHL1  H22B 5794   6.516   1.376   9.122 -0.9377 -0.4373 -0.1638
   45CHL1   C23 5795   6.410   1.555   9.049  0.3696  0.2846 -0.7108
   45CHL1  H23A 5796   6.344   1.514   8.969 -1.4141  2.3106 -0.3533
   45CHL1  H23B 5797   6.356   1.636   9.103  0.3444 -0.5540  0.5530
   45CHL1   C24 5798   6.541   1.604   8.984  0.1424  0.7004  0.5020
   45CHL1  H24A 5799   6.613   1.637   9.063 -0.4241 -0.0263  1.3447
   45CHL1  H24B 5800   6.586   1.522   8.925  1.0982  0.9424  0.8749
   45CHL1   C25 5801   6.512   1.721   8.875  1.3069  0.3765  0.0681
   45CHL1   H25 5802   6.438   1.783   8.931 -1.0098  0.0856 -2.4784
   45CHL1   C26 5803   6.641   1.796   8.825  0.5920 -0.3579  0.3641
   45CHL1  H26A 5804   6.720   1.738   8.772 -0.8474 -2.3275  0.2742
   45CHL1  H26B 5805   6.599   1.870   8.754  1.6147 -1.4527 -1.4645
   45CHL1  H26C 5806   6.691   1.852   8.908 -1.5230 -0.4788  1.7955
   45CHL1   C27 5807   6.433   1.669   8.753 -0.0737 -0.4119  0.4747
   45CHL1  H27A 5808   6.500   1.603   8.694 -0.9751  0.0118 -1.1033
   45CHL1  H27B 5809   6.346   1.621   8.802 -0.7871  0.7472  0.3863
   45CHL1  H27C 5810   6.402   1.763   8.702 -0.1525 -0.5481  0.2697
   46CHL1    C3 5811   0.837   5.913   9.772 -0.5114  0.0148 -0.2056
   46CHL1    H3 5812   0.877   6.011   9.805  2.3570 -1.6827  1.8041
   46CHL1    O3 5813   0.862   5.830   9.887  0.1076 -0.2461  0.3092
   46CHL1   H3' 5814   0.954   5.803   9.878  0.3914  1.0909 -1.5891
   46CHL1    C4 5815   0.690   5.907   9.725 -0.3182  0.9575 -0.9037
   46CHL1   H4A 5816   0.666   5.799   9.714 -1.0310  0.8990  0.8391
   46CHL1   H4B 5817   0.624   5.941   9.808  2.1803  1.0872  1.1607
   46CHL1    C5 5818   0.678   5.989   9.599 -0.4990 -0.7890  0.7998
   46CHL1    C6 5819   0.596   6.099   9.591 -0.4161  0.1955  0.1067
   46CHL1    H6 5820   0.531   6.127   9.675 -3.3002 -0.6633 -1.6832
   46CHL1    C7 5821   0.583   6.168   9.459 -0.3069 -0.6138  0.3505
   46CHL1   H7A 5822   0.475   6.193   9.447 -0.4821  0.5221  3.4051
   46CHL1   H7B 5823   0.636   6.265   9.469 -0.8391 -0.3192  0.3284
   46CHL1    C8 5824   0.642   6.107   9.329 -0.5249  0.1590  0.1370
   46CHL1    H8 5825   0.568   6.031   9.295  0.3196 -1.2252  1.2728
   46CHL1   C14 5826   0.646   6.206   9.214 -0.5868  0.2594  0.0053
   46CHL1   H14 5827   0.724   6.282   9.234 -1.4069  0.7254  1.6460
   46CHL1   C15 5828   0.519   6.283   9.172  0.8826 -0.0129  0.0010
   46CHL1  H15A 5829   0.435   6.212   9.189  0.0756  1.3731  2.0805
   46CHL1  H15B 5830   0.511   6.374   9.234 -0.2880 -0.5887  0.7357
   46CHL1   C16 5831   0.547   6.314   9.027  0.8089  0.8369 -1.0614
   46CHL1  H16A 5832   0.476   6.279   8.948  1.9214 -1.0653 -1.3015
   46CHL1  H16B 5833   0.548   6.424   9.016  0.6855  0.7681 -1.8370
   46CHL1   C17 5834   0.680   6.260   8.985 -0.1125 -0.0990  0.3953
   46CHL1   H17 5835   0.759   6.328   9.021 -0.2684 -0.2786  1.0848
   46CHL1   C13 5836   0.700   6.141   9.083  0.3295  0.2446  0.0105
   46CHL1   C18 5837   0.613   6.023   9.044  0.2313  0.0430 -0.0341
   46CHL1  H18A 5838   0.661   5.968   8.960  0.6260  1.5909 -0.8504
   46CHL1  H18B 5839   0.606   5.941   9.119 -0.3184  0.0012 -0.1225
   46CHL1  H18C 5840   0.509   6.052   9.019  0.6449  1.1006 -0.5715
   46CHL1   C12 5841   0.848   6.092   9.114  0.2674 -0.5728  1.3177
   46CHL1  H12A 5842   0.891   6.041   9.025 -0.4864 -1.5581  1.4961
   46CHL1  H12B 5843   0.917   6.175   9.137  1.1468 -1.0021  0.2927
   46CHL1   C11 5844   0.854   5.991   9.229 -0.5001 -0.0528 -0.1915
   46CHL1  H11A 5845   0.800   5.901   9.194  0.9038 -1.0279  0.0754
   46CHL1  H11B 5846   0.959   5.973   9.260  0.2727  1.8865 -1.4667
   46CHL1    C9 5847   0.779   6.047   9.355 -0.2796  0.0821 -0.1925
   46CHL1    H9 5848   0.844   6.126   9.399 -0.0667  0.5660 -1.3564
   46CHL1   C10 5849   0.769   5.951   9.479 -0.1201  0.2893 -0.2257
   46CHL1   C19 5850   0.734   5.809   9.425 -0.2753  0.2872 -0.3018
   46CHL1  H19A 5851   0.653   5.821   9.350 -0.8239  1.9843  0.4963
   46CHL1  H19B 5852   0.817   5.757   9.373 -0.7187 -1.0609  0.3055
   46CHL1  H19C 5853   0.693   5.745   9.506 -1.1770  2.3795  0.9866
   46CHL1    C1 5854   0.914   5.951   9.540  0.2839  0.2023  0.6987
   46CHL1   H1A 5855   0.984   5.913   9.463  0.8478  2.3286  0.1027
   46CHL1   H1B 5856   0.950   6.054   9.561  2.7262 -0.5164  0.2732
   46CHL1    C2 5857   0.928   5.858   9.664 -0.5047 -0.5153  0.0419
   46CHL1   H2A 5858   1.034   5.854   9.697  0.2139  0.8092 -1.9052
   46CHL1   H2B 5859   0.904   5.752   9.640  0.5871 -0.6911 -0.3203
   46CHL1   C20 5860   0.710   6.236   8.832  0.3360  0.4912 -0.8931
   46CHL1   H20 5861   0.624   6.175   8.797  0.7211  0.4763 -1.8546
   46CHL1   C21 5862   0.839   6.155   8.801  0.3150  0.5408 -0.7357
   46CHL1  H21A 5863   0.866   6.160   8.693 -1.1939  1.6082 -1.1025
   46CHL1  H21B 5864   0.842   6.049   8.833  0.6930  0.9202  0.5179
   46CHL1  H21C 5865   0.913   6.217   8.856  1.0755 -0.0838 -1.0537
   46CHL1   C22 5866   0.708   6.371   8.766 -1.0338 -0.2223  0.3210
   46CHL1  H22A 5867   0.618   6.428   8.798 -0.6322  0.0130  1.0464
   46CHL1  H22B 5868   0.790   6.438   8.798 -1.4024 -0.1063  1.0372
   46CHL1   C23 5869   0.700   6.371   8.609 -0.8674  0.2019 -0.3322
   46CHL1  H23A 5870   0.699   6.476   8.573  2.1089  0.6270  0.5698
   46CHL1  H23B 5871   0.797   6.330   8.574  0.3464  3.7981 -1.6730
   46CHL1   C24 5872   0.573   6.299   8.565 -0.6399 -0.0969 -0.1445
   46CHL1  H24A 5873   0.559   6.198   8.610  0.9920  0.7552  2.4514
   46CHL1  H24B 5874   0.487   6.361   8.597 -2.0094 -1.8840 -0.1607
   46CHL1   C25 5875   0.557   6.295   8.408 -0.3116 -0.0321  0.0942
   46CHL1   H25 5876   0.564   6.401   8.373  1.2660 -0.6352 -1.5462
   46CHL1   C26 5877   0.677   6.227   8.325 -0.2191 -0.2619 -0.5090
   46CHL1  H26A 5878   0.768   6.288   8.344 -0.5487 -0.3320  1.5560
   46CHL1  H26B 5879   0.698   6.122   8.355  1.3284  0.2658  0.3922
   46CHL1  H26C 5880   0.659   6.225   8.216  0.6023 -1.3904 -0.6508
   46CHL1   C27 5881   0.431   6.233   8.354 -0.3314  0.5887 -0.5307
   46CHL1  H27A 5882   0.339   6.290   8.381  0.5354  1.7305  0.0917
   46CHL1  H27B 5883   0.439   6.235   8.243  1.9798  0.4443 -0.4116
   46CHL1  H27C 5884   0.417   6.127   8.386 -0.0802  0.5560 -0.5290
   47CHL1    C3 5885   3.180   3.441  10.047 -0.0595 -0.2236 -0.1360
   47CHL1    H3 5886   3.117   3.532  10.057  0.9067  0.4647 -0.1733
   47CHL1    O3 5887   3.224   3.417  10.178  0.1504 -0.2979 -0.5934
   47CHL1   H3' 5888   3.277   3.338  10.168  0.5329  0.2280 -3.5732
   47CHL1    C4 5889   3.102   3.325   9.986  0.4636 -0.2959 -0.3619
   47CHL1   H4A 5890   3.171   3.238   9.989  1.0424  0.1276 -1.0503
   47CHL1   H4B 5891   3.017   3.297  10.052 -0.4955  0.8999 -1.0461
   47CHL1    C5 5892   3.065   3.336   9.838 -0.1777  0.5838 -0.4069
   47CHL1    C6 5893   2.945   3.313   9.790 -0.2055  0.1537 -0.0946
   47CHL1    H6 5894   2.870   3.283   9.865 -1.1551  1.2764 -0.5718
   47CHL1    C7 5895   2.894   3.326   9.648  0.1215  0.3440  0.2638
   47CHL1   H7A 5896   2.857   3.232   9.602  2.0268  1.1353 -3.2755
   47CHL1   H7B 5897   2.812   3.400   9.637 -2.5742 -2.2010  1.7373
   47CHL1    C8 5898   3.011   3.358   9.546  0.2418  0.1241 -0.4872
   47CHL1    H8 5899   3.062   3.265   9.511  0.2461  1.0818 -3.3027
   47CHL1   C14 5900   2.953   3.438   9.431 -0.0440 -0.3321  0.4561
   47CHL1   H14 5901   2.925   3.537   9.471  1.2956 -0.5909  2.2157
   47CHL1   C15 5902   2.838   3.373   9.349 -0.5574  0.4253  0.3670
   47CHL1  H15A 5903   2.862   3.265   9.336 -1.1373 -0.0951  2.9404
   47CHL1  H15B 5904   2.740   3.376   9.400  0.1491 -0.7793  1.9089
   47CHL1   C16 5905   2.829   3.440   9.215 -0.1246  0.0187 -0.4235
   47CHL1  H16A 5906   2.839   3.375   9.125  2.1529  1.8543 -1.5990
   47CHL1  H16B 5907   2.741   3.507   9.212  0.5414  0.9034 -0.5450
   47CHL1   C17 5908   2.963   3.525   9.203  0.1306  0.1406 -0.4158
   47CHL1   H17 5909   2.934   3.622   9.249 -3.5554 -1.9555  2.2560
   47CHL1   C13 5910   3.051   3.460   9.314 -0.1008 -0.4889 -0.6990
   47CHL1   C18 5911   3.106   3.328   9.253  0.6018  0.1415 -0.3387
   47CHL1  H18A 5912   3.034   3.268   9.193  0.7969  0.0937 -0.5279
   47CHL1  H18B 5913   3.193   3.349   9.186  0.5108  1.0357 -0.1896
   47CHL1  H18C 5914   3.152   3.269   9.335  1.0367 -0.2229 -0.8300
   47CHL1   C12 5915   3.161   3.538   9.383  1.3060  0.5603 -0.0436
   47CHL1  H12A 5916   3.238   3.558   9.306  1.8997 -0.7714  0.1840
   47CHL1  H12B 5917   3.109   3.636   9.396 -1.4190 -0.4642 -2.3093
   47CHL1   C11 5918   3.228   3.479   9.511  0.3342 -0.1623 -0.4830
   47CHL1  H11A 5919   3.284   3.387   9.484  3.7284  0.8993  2.0579
   47CHL1  H11B 5920   3.306   3.552   9.545  0.4978 -0.6078  0.1295
   47CHL1    C9 5921   3.120   3.446   9.616  0.5689 -0.1098  0.6482
   47CHL1    H9 5922   3.068   3.540   9.644 -0.0868 -0.7052  1.4995
   47CHL1   C10 5923   3.177   3.392   9.751 -0.2375 -0.3019  0.2744
   47CHL1   C19 5924   3.271   3.269   9.725 -0.4971 -0.0005  0.2818
   47CHL1  H19A 5925   3.295   3.207   9.815 -0.6761 -0.2842  0.1364
   47CHL1  H19B 5926   3.225   3.209   9.644  1.4780  1.5841 -2.1397
   47CHL1  H19C 5927   3.372   3.308   9.702 -0.0274 -1.0544  0.4737
   47CHL1    C1 5928   3.258   3.505   9.827  0.0226 -0.2515  0.6066
   47CHL1   H1A 5929   3.349   3.517   9.765  0.8670 -1.4632  1.5515
   47CHL1   H1B 5930   3.198   3.599   9.825  0.5516  0.0810 -0.9339
   47CHL1    C2 5931   3.300   3.467   9.968 -0.3929  0.4187 -0.3326
   47CHL1   H2A 5932   3.351   3.556  10.010 -1.6127  0.6648  0.6821
   47CHL1   H2B 5933   3.376   3.387   9.977 -1.1139 -0.1873  0.5957
   47CHL1   C20 5934   3.007   3.534   9.056 -0.3942  0.4412 -0.1797
   47CHL1   H20 5935   3.034   3.431   9.023 -1.6380  0.1045 -0.1808
   47CHL1   C21 5936   3.136   3.615   9.035 -0.0055  0.4192 -0.3857
   47CHL1  H21A 5937   3.174   3.602   8.932 -1.5399 -0.6132 -0.8549
   47CHL1  H21B 5938   3.213   3.579   9.107  0.4383  2.0003 -0.0439
   47CHL1  H21C 5939   3.121   3.718   9.074  0.9578  0.2843  0.3946
   47CHL1   C22 5940   2.904   3.579   8.946 -0.9998 -0.4979  0.0351
   47CHL1  H22A 5941   2.807   3.526   8.955 -1.2518 -1.1592 -4.5548
   47CHL1  H22B 5942   2.890   3.689   8.960  0.0592 -0.4639  0.9926
   47CHL1   C23 5943   2.951   3.579   8.801 -1.0093  0.0474 -0.0345
   47CHL1  H23A 5944   3.004   3.676   8.788 -1.5045  0.4076  0.5766
   47CHL1  H23B 5945   3.028   3.499   8.795  2.2319  2.5786  3.4550
   47CHL1   C24 5946   2.839   3.552   8.695 -0.1949  0.0606  0.2328
   47CHL1  H24A 5947   2.886   3.552   8.595 -0.9943 -1.4174 -0.1669
   47CHL1  H24B 5948   2.803   3.449   8.714 -1.8512  0.2478 -1.5521
   47CHL1   C25 5949   2.722   3.655   8.687 -0.3931  0.6150  0.9888
   47CHL1   H25 5950   2.707   3.680   8.795 -1.4865 -0.0881  1.0235
   47CHL1   C26 5951   2.761   3.771   8.604 -0.1917  0.6090 -0.3139
   47CHL1  H26A 5952   2.680   3.847   8.603  1.2502  2.1927 -0.9636
   47CHL1  H26B 5953   2.792   3.732   8.505  0.4906 -1.8208  0.7681
   47CHL1  H26C 5954   2.837   3.826   8.664  0.6540  0.2585 -1.0311
   47CHL1   C27 5955   2.600   3.577   8.639  0.8545  0.1759 -0.2689
   47CHL1  H27A 5956   2.593   3.475   8.683 -1.0183  0.0581 -0.7350
   47CHL1  H27B 5957   2.507   3.630   8.668  1.9618  1.3264  1.3349
   47CHL1  H27C 5958   2.594   3.577   8.528  2.1918 -1.8164 -0.3796
   48CHL1    C3 5959   4.494   2.652   9.968 -0.1853  0.0719  0.2149
   48CHL1    H3 5960   4.392   2.651   9.923 -0.0900  0.3905 -0.0155
   48CHL1    O3 5961   4.501   2.591  10.090  0.2020  0.0413 -0.1667
   48CHL1   H3' 5962   4.450   2.641  10.154  0.5623 -1.6138  1.4952
   48CHL1    C4 5963   4.600   2.600   9.871 -0.2033  0.3794  0.8357
   48CHL1   H4A 5964   4.699   2.574   9.913  0.9139  0.8241 -1.3221
   48CHL1   H4B 5965   4.559   2.502   9.838 -1.0386  0.9694  0.0413
   48CHL1    C5 5966   4.618   2.695   9.752  0.0163 -0.2406  0.1163
   48CHL1    C6 5967   4.599   2.659   9.618 -0.4780 -0.4115 -0.1778
   48CHL1    H6 5968   4.577   2.555   9.590  0.4631  0.0148 -2.7499
   48CHL1    C7 5969   4.627   2.749   9.504  0.3509 -0.8016 -0.0370
   48CHL1   H7A 5970   4.667   2.682   9.425 -0.7090  0.1416 -1.4214
   48CHL1   H7B 5971   4.535   2.790   9.457  1.7144  0.0902 -2.0449
   48CHL1    C8 5972   4.720   2.864   9.541  0.6806 -0.8294  0.2247
   48CHL1    H8 5973   4.821   2.824   9.567  0.7086  0.1811  1.7501
   48CHL1   C14 5974   4.735   2.960   9.424  0.5867  1.4236 -0.2507
   48CHL1   H14 5975   4.633   2.998   9.403  0.3994  0.8287 -0.4118
   48CHL1   C15 5976   4.791   2.912   9.285  0.2456 -0.2760  0.0877
   48CHL1  H15A 5977   4.885   2.856   9.305  0.8495  0.7421  0.1852
   48CHL1  H15B 5978   4.704   2.862   9.240  0.5670  1.1386 -2.2589
   48CHL1   C16 5979   4.830   3.041   9.210  0.2075 -0.1930 -0.5415
   48CHL1  H16A 5980   4.935   3.048   9.174  1.4744  2.1629  3.0688
   48CHL1  H16B 5981   4.770   3.058   9.117 -1.1356  0.2684  0.3818
   48CHL1   C17 5982   4.812   3.161   9.309 -0.3604 -0.6283  0.5554
   48CHL1   H17 5983   4.709   3.200   9.297  0.5912  1.4137 -1.6698
   48CHL1   C13 5984   4.817   3.092   9.449 -0.5504  0.1829  0.6657
   48CHL1   C18 5985   4.959   3.056   9.495  0.6100 -0.0382  0.5068
   48CHL1  H18A 5986   4.963   2.992   9.586  0.6063 -1.5542 -0.5355
   48CHL1  H18B 5987   5.023   3.012   9.416  2.9676  0.5313  1.9950
   48CHL1  H18C 5988   5.021   3.144   9.523  1.8955 -1.2128  1.4818
   48CHL1   C12 5989   4.744   3.168   9.564 -0.1295 -0.5098  0.0712
   48CHL1  H12A 5990   4.807   3.246   9.611 -1.3680  1.0119 -0.7102
   48CHL1  H12B 5991   4.661   3.234   9.530  0.9954  0.3691 -1.0407
   48CHL1   C11 5992   4.728   3.083   9.688  0.3025 -0.0535  0.0184
   48CHL1  H11A 5993   4.828   3.065   9.732  1.4492  2.3099 -1.4089
   48CHL1  H11B 5994   4.674   3.139   9.767  3.6021 -0.1461  2.5464
   48CHL1    C9 5995   4.668   2.939   9.661 -0.3809  0.6862 -0.2381
   48CHL1    H9 5996   4.561   2.957   9.635 -0.4503 -0.4477 -0.8281
   48CHL1   C10 5997   4.659   2.838   9.785 -0.0357 -0.3770 -0.0004
   48CHL1   C19 5998   4.797   2.847   9.850  0.4191 -0.3853  0.7555
   48CHL1  H19A 5999   4.880   2.848   9.776  1.3017 -0.6383  1.7217
   48CHL1  H19B 6000   4.802   2.941   9.909 -0.4059  0.4290 -0.4418
   48CHL1  H19C 6001   4.818   2.767   9.924 -2.8507 -0.4961  1.7085
   48CHL1    C1 6002   4.541   2.884   9.884 -0.5241  0.1652 -0.0722
   48CHL1   H1A 6003   4.574   2.988   9.902  0.2822  0.0918 -1.0477
   48CHL1   H1B 6004   4.442   2.888   9.833  0.0282 -1.6838 -1.4071
   48CHL1    C2 6005   4.526   2.794  10.016  0.3912 -0.0757  0.0281
   48CHL1   H2A 6006   4.435   2.825  10.071 -0.6177  1.6596 -2.4303
   48CHL1   H2B 6007   4.618   2.802  10.078 -0.0391  0.9773  0.5521
   48CHL1   C20 6008   4.918   3.272   9.276  0.0656  0.7915  0.1215
   48CHL1   H20 6009   5.020   3.229   9.286  0.3692  1.6151  0.6502
   48CHL1   C21 6010   4.905   3.379   9.382 -0.2503 -0.6048 -0.2969
   48CHL1  H21A 6011   4.924   3.349   9.487 -1.0479 -1.3669 -0.3604
   48CHL1  H21B 6012   4.806   3.429   9.378 -0.2048 -0.3851  0.9510
   48CHL1  H21C 6013   4.967   3.465   9.349  0.5717 -1.4082 -0.8799
   48CHL1   C22 6014   4.898   3.328   9.127 -0.2411 -0.3851  0.0187
   48CHL1  H22A 6015   4.906   3.242   9.056 -1.5174  0.1633 -0.8348
   48CHL1  H22B 6016   4.794   3.354   9.099 -0.7545 -1.7110  0.6010
   48CHL1   C23 6017   5.002   3.423   9.082 -0.2675 -0.1445 -0.0800
   48CHL1  H23A 6018   5.006   3.518   9.141  0.4077  0.0124 -0.3701
   48CHL1  H23B 6019   5.096   3.365   9.094 -0.1194 -0.1331 -1.0862
   48CHL1   C24 6020   4.979   3.480   8.948 -0.2871 -0.6071 -0.1159
   48CHL1  H24A 6021   5.003   3.408   8.866  0.9354  2.0246 -2.2449
   48CHL1  H24B 6022   4.873   3.509   8.934  0.3255  1.6708 -0.3764
   48CHL1   C25 6023   5.065   3.608   8.901 -0.0062 -0.5171 -0.7556
   48CHL1   H25 6024   5.055   3.685   8.980  0.8778  1.8562 -2.8151
   48CHL1   C26 6025   5.213   3.584   8.887 -0.2050  0.6486  0.9539
   48CHL1  H26A 6026   5.260   3.672   8.838 -2.3540  1.7617  0.7601
   48CHL1  H26B 6027   5.261   3.551   8.982 -0.5215 -1.4027  0.4369
   48CHL1  H26C 6028   5.236   3.497   8.822 -0.7599  1.3718 -0.2471
   48CHL1   C27 6029   4.998   3.669   8.771 -0.0869  0.0705 -0.4184
   48CHL1  H27A 6030   4.888   3.685   8.780 -0.2676 -0.8092 -0.9348
   48CHL1  H27B 6031   5.056   3.761   8.745  2.4554 -0.8300  1.6982
   48CHL1  H27C 6032   5.008   3.592   8.691 -2.0907  0.0672 -0.7237
   49CHL1    C3 6033   0.872   6.726   9.983 -0.0297 -0.6916 -0.6587
   49CHL1    H3 6034   0.765   6.712   9.960 -0.0643 -0.1687 -0.8299
   49CHL1    O3 6035   0.913   6.723  10.122  0.5094  0.0283  0.0614
   49CHL1   H3' 6036   1.000   6.683  10.113  0.9816  0.5834  1.8216
   49CHL1    C4 6037   0.942   6.612   9.903 -0.0613 -0.5431  0.3551
   49CHL1   H4A 6038   1.050   6.624   9.927 -0.3603  2.6413  0.5219
   49CHL1   H4B 6039   0.901   6.519   9.946 -2.7871  1.5248  2.6306
   49CHL1    C5 6040   0.938   6.630   9.749  0.2865 -0.0827  0.8071
   49CHL1    C6 6041   0.885   6.535   9.674  0.3900 -0.5378 -0.4136
   49CHL1    H6 6042   0.868   6.436   9.719  0.1762 -1.5539 -2.5876
   49CHL1    C7 6043   0.870   6.553   9.528 -0.1965  0.0739  0.2117
   49CHL1   H7A 6044   0.896   6.458   9.476  0.8263  0.2156  0.4491
   49CHL1   H7B 6045   0.760   6.557   9.513 -0.2318  1.8467  0.7863
   49CHL1    C8 6046   0.921   6.674   9.461 -0.3663 -0.0151  0.5856
   49CHL1    H8 6047   1.028   6.660   9.436 -0.6761  2.4333 -2.8506
   49CHL1   C14 6048   0.854   6.692   9.323  1.1438  0.4468 -0.9899
   49CHL1   H14 6049   0.749   6.719   9.350  0.5219 -1.5938 -1.2177
   49CHL1   C15 6050   0.845   6.576   9.223 -0.1832  0.2036  0.0884
   49CHL1  H15A 6051   0.941   6.520   9.226 -0.1101  0.2108 -1.4989
   49CHL1  H15B 6052   0.770   6.502   9.261  2.2259 -2.7691 -0.5516
   49CHL1   C16 6053   0.818   6.639   9.085  0.5332  0.0370  0.8909
   49CHL1  H16A 6054   0.900   6.597   9.023 -0.3006  2.0213 -1.7500
   49CHL1  H16B 6055   0.713   6.617   9.057  0.4737 -0.2437  1.3265
   49CHL1   C17 6056   0.830   6.791   9.111  0.2791  0.8384  0.2507
   49CHL1   H17 6057   0.727   6.825   9.136 -0.8085 -1.1788 -1.2172
   49CHL1   C13 6058   0.915   6.806   9.244  0.9662 -0.7827  0.3971
   49CHL1   C18 6059   1.063   6.780   9.212 -0.1012 -0.3064 -0.3737
   49CHL1  H18A 6060   1.102   6.840   9.128  1.8238  1.9198  1.9417
   49CHL1  H18B 6061   1.130   6.802   9.298 -1.9713 -2.5971  1.8440
   49CHL1  H18C 6062   1.075   6.671   9.191 -1.3044 -0.4114 -0.5982
   49CHL1   C12 6063   0.886   6.931   9.321  0.3816 -0.6317 -1.0726
   49CHL1  H12A 6064   0.942   7.017   9.279  0.0379  0.5152  0.7098
   49CHL1  H12B 6065   0.781   6.964   9.332  1.7229  3.5781  1.3679
   49CHL1   C11 6066   0.936   6.923   9.471  0.1171  0.0270  0.1228
   49CHL1  H11A 6067   1.046   6.933   9.459 -0.0994  0.6071 -1.4991
   49CHL1  H11B 6068   0.903   7.012   9.528  2.5113  0.8473  0.3239
   49CHL1    C9 6069   0.901   6.793   9.542 -0.1626  0.3314 -0.7705
   49CHL1    H9 6070   0.792   6.798   9.562  0.4135  0.8094  3.0100
   49CHL1   C10 6071   0.962   6.773   9.689 -1.3447 -0.9214  0.2015
   49CHL1   C19 6072   1.113   6.791   9.673 -0.3797 -0.6839 -0.0851
   49CHL1  H19A 6073   1.147   6.893   9.645 -0.5284 -0.3807  0.7844
   49CHL1  H19B 6074   1.154   6.772   9.775 -2.0246  0.7523  0.9077
   49CHL1  H19C 6075   1.154   6.711   9.608  0.3153 -0.4936  0.1040
   49CHL1    C1 6076   0.902   6.880   9.780 -0.7988  0.5634  0.1620
   49CHL1   H1A 6077   0.943   6.982   9.765 -1.0048  0.4322 -1.4251
   49CHL1   H1B 6078   0.794   6.892   9.757 -1.4815  2.6238  3.6845
   49CHL1    C2 6079   0.916   6.859   9.932 -0.8845 -0.3790  0.5561
   49CHL1   H2A 6080   0.864   6.943   9.983 -2.6122 -1.0028 -0.1046
   49CHL1   H2B 6081   1.025   6.875   9.947 -0.4812  0.3140 -2.5689
   49CHL1   C20 6082   0.869   6.854   8.984 -0.5196  0.4932 -0.7666
   49CHL1   H20 6083   0.976   6.834   8.964 -0.5012 -1.1307  0.7052
   49CHL1   C21 6084   0.860   7.004   9.015 -0.6340  0.3877  0.4854
   49CHL1  H21A 6085   0.766   7.031   9.066  1.1054  1.3883  3.3740
   49CHL1  H21B 6086   0.858   7.067   8.924 -0.5822 -1.2297 -0.6946
   49CHL1  H21C 6087   0.941   7.049   9.076  1.8319  0.5957 -2.6895
   49CHL1   C22 6088   0.792   6.808   8.859  0.7209  0.1236  0.4926
   49CHL1  H22A 6089   0.823   6.861   8.766 -3.4714 -1.0308 -1.8322
   49CHL1  H22B 6090   0.807   6.700   8.838  1.4239 -0.2035  2.4348
   49CHL1   C23 6091   0.636   6.827   8.867  0.3106 -0.2910  0.1603
   49CHL1  H23A 6092   0.596   6.791   8.964 -0.3578 -0.6660 -0.2450
   49CHL1  H23B 6093   0.603   6.933   8.858 -0.9642 -0.8346 -2.8687
   49CHL1   C24 6094   0.551   6.742   8.775 -1.0661  0.2261 -0.4388
   49CHL1  H24A 6095   0.567   6.635   8.800 -2.4032 -0.0493 -0.6602
   49CHL1  H24B 6096   0.446   6.770   8.798 -1.3490  0.8740 -2.3269
   49CHL1   C25 6097   0.578   6.780   8.626  0.3149 -0.0806  0.1641
   49CHL1   H25 6098   0.688   6.773   8.608  0.7733 -0.4752  2.7812
   49CHL1   C26 6099   0.513   6.673   8.533  0.1871 -0.1189 -0.1509
   49CHL1  H26A 6100   0.402   6.680   8.531 -0.1724 -3.6202  0.6180
   49CHL1  H26B 6101   0.564   6.678   8.435 -0.8528 -2.5878 -0.8949
   49CHL1  H26C 6102   0.510   6.571   8.578 -2.3115 -0.4339 -0.8705
   49CHL1   C27 6103   0.534   6.921   8.586 -0.3383  0.9793 -0.0422
   49CHL1  H27A 6104   0.585   7.003   8.642 -0.1256  1.9098 -1.5340
   49CHL1  H27B 6105   0.556   6.937   8.479 -2.2634 -0.9980 -0.7984
   49CHL1  H27C 6106   0.426   6.930   8.609 -0.2228  0.3890  0.8027
   50CHL1    C3 6107   4.009   0.052   9.992 -0.4429 -0.5112 -0.2104
   50CHL1    H3 6108   3.976  -0.045   9.951  2.6304 -1.8896  0.2957
   50CHL1    O3 6109   4.070   0.025  10.114 -0.0987  0.1854 -0.2946
   50CHL1   H3' 6110   4.012  -0.043  10.151  0.0781 -1.0252 -2.1107
   50CHL1    C4 6111   4.111   0.107   9.890  0.2125 -0.3976  0.0176
   50CHL1   H4A 6112   4.152   0.191   9.951 -3.2835 -0.3562  2.5975
   50CHL1   H4B 6113   4.188   0.032   9.860 -0.7558 -0.5354 -2.3221
   50CHL1    C5 6114   4.045   0.145   9.757 -0.8567  0.5360  0.1827
   50CHL1    C6 6115   4.093   0.103   9.640 -0.3334 -0.7881  0.0577
   50CHL1    H6 6116   4.181   0.038   9.635  0.3418  0.1024  0.2399
   50CHL1    C7 6117   4.029   0.136   9.504  0.5279 -0.5549  0.2410
   50CHL1   H7A 6118   4.107   0.191   9.447  0.1743 -2.0911 -1.8117
   50CHL1   H7B 6119   3.994   0.049   9.445 -1.9650  0.2166  0.4283
   50CHL1    C8 6120   3.907   0.237   9.513  0.0016 -0.0004  0.8655
   50CHL1    H8 6121   3.958   0.336   9.512 -1.9285  1.0188 -0.1522
   50CHL1   C14 6122   3.812   0.216   9.392  0.4903 -0.1334 -0.2970
   50CHL1   H14 6123   3.758   0.121   9.412 -1.4259  1.2507  1.5741
   50CHL1   C15 6124   3.890   0.206   9.263  0.2888 -0.6618  0.1995
   50CHL1  H15A 6125   3.971   0.283   9.266 -0.6319  0.3458 -0.0955
   50CHL1  H15B 6126   3.927   0.105   9.235 -1.0526 -0.3398 -3.0955
   50CHL1   C16 6127   3.790   0.263   9.163 -0.3780  0.6708 -0.9323
   50CHL1  H16A 6128   3.829   0.363   9.134  0.2635  1.5865  2.6797
   50CHL1  H16B 6129   3.779   0.196   9.074  2.2637 -0.7442 -0.2725
   50CHL1   C17 6130   3.659   0.284   9.240  0.2223 -0.6131  0.1881
   50CHL1   H17 6131   3.609   0.186   9.253 -0.5685 -0.3672 -0.8941
   50CHL1   C13 6132   3.707   0.322   9.384 -0.1211  0.3245 -0.0813
   50CHL1   C18 6133   3.765   0.468   9.382  0.0675  0.5307  0.5537
   50CHL1  H18A 6134   3.833   0.487   9.468 -0.1141 -0.3627  0.8992
   50CHL1  H18B 6135   3.829   0.490   9.294 -0.2260 -2.9301 -0.6473
   50CHL1  H18C 6136   3.676   0.534   9.392 -0.7928 -0.7024  1.2246
   50CHL1   C12 6137   3.617   0.303   9.507 -0.6418 -0.3766 -0.5954
   50CHL1  H12A 6138   3.533   0.376   9.514 -0.7897 -0.4553 -1.4576
   50CHL1  H12B 6139   3.572   0.202   9.496 -1.3966  0.0562 -1.6361
   50CHL1   C11 6140   3.705   0.305   9.641  0.0275  0.2697 -0.0420
   50CHL1  H11A 6141   3.738   0.408   9.665  2.3978 -0.7244  1.4155
   50CHL1  H11B 6142   3.638   0.269   9.722 -0.0124  0.3485 -0.0403
   50CHL1    C9 6143   3.830   0.215   9.646  0.5838  0.0131  0.6500
   50CHL1    H9 6144   3.797   0.113   9.618 -1.0761  0.3217  1.4070
   50CHL1   C10 6145   3.916   0.226   9.768 -0.0962  0.6278 -0.0211
   50CHL1   C19 6146   3.960   0.377   9.793 -0.3008  0.3067  0.1866
   50CHL1  H19A 6147   4.004   0.428   9.705 -0.5247 -0.4572 -0.3810
   50CHL1  H19B 6148   3.865   0.425   9.823 -0.0924  1.8849 -1.5098
   50CHL1  H19C 6149   4.027   0.390   9.881  0.7694  3.3281 -0.9734
   50CHL1    C1 6150   3.828   0.188   9.891  0.3779  0.6123  0.1495
   50CHL1   H1A 6151   3.757   0.271   9.913  0.2403  1.1358 -2.0587
   50CHL1   H1B 6152   3.775   0.095   9.859  0.9580 -0.2811  1.6792
   50CHL1    C2 6153   3.903   0.149  10.024  0.1762  0.6360 -0.0815
   50CHL1   H2A 6154   3.834   0.113  10.103  0.2843 -0.6570 -0.5548
   50CHL1   H2B 6155   3.959   0.240  10.053  2.1875 -1.1786  2.1056
   50CHL1   C20 6156   3.548   0.374   9.181  0.0138 -0.0673  0.2292
   50CHL1   H20 6157   3.565   0.484   9.182 -1.5320  0.2156 -0.6651
   50CHL1   C21 6158   3.415   0.349   9.257 -0.1221  0.1355  0.8343
   50CHL1  H21A 6159   3.402   0.239   9.264  0.1232 -0.2175 -2.6491
   50CHL1  H21B 6160   3.318   0.375   9.209 -1.1611 -1.4899  1.9259
   50CHL1  H21C 6161   3.413   0.394   9.358 -2.5285 -2.1009  1.9170
   50CHL1   C22 6162   3.524   0.370   9.024 -0.4192  0.4260  0.6464
   50CHL1  H22A 6163   3.435   0.436   9.017 -0.3414  0.6038  1.2199
   50CHL1  H22B 6164   3.611   0.407   8.966 -0.8889 -1.3514 -1.3166
   50CHL1   C23 6165   3.498   0.232   8.967  0.2337  0.3238 -0.1020
   50CHL1  H23A 6166   3.582   0.159   8.973 -0.2145 -0.0965  1.7680
   50CHL1  H23B 6167   3.417   0.184   9.026 -0.8430  2.6339  0.4231
   50CHL1   C24 6168   3.446   0.235   8.821 -0.4564  1.0448  0.5860
   50CHL1  H24A 6169   3.348   0.287   8.814 -0.8443  0.1519 -1.1647
   50CHL1  H24B 6170   3.521   0.291   8.761 -0.0139 -0.0574  0.0803
   50CHL1   C25 6171   3.427   0.099   8.752  0.5831 -0.3885 -0.0830
   50CHL1   H25 6172   3.385   0.108   8.650  3.4478  0.2825 -1.3102
   50CHL1   C26 6173   3.551   0.021   8.734 -0.0288 -0.0974  0.6491
   50CHL1  H26A 6174   3.631   0.082   8.686 -0.6349  0.3939  0.2574
   50CHL1  H26B 6175   3.599  -0.010   8.830  0.4646  1.7215  1.0238
   50CHL1  H26C 6176   3.539  -0.073   8.676 -0.2025 -0.8623  1.8717
   50CHL1   C27 6177   3.312   0.022   8.836 -0.3441 -0.4460 -0.3760
   50CHL1  H27A 6178   3.271  -0.047   8.759 -1.1210  0.5608 -0.8928
   50CHL1  H27B 6179   3.349  -0.037   8.923 -2.2445  0.5447  1.1846
   50CHL1  H27C 6180   3.234   0.096   8.862  0.6783  0.8554 -0.8712
   51CHL1    C3 6181   6.255   3.095  10.189 -0.0455 -0.3841 -0.6953
   51CHL1    H3 6182   6.146   3.107  10.172 -0.0166  0.8851 -0.1367
   51CHL1    O3 6183   6.267   3.075  10.330  0.0106 -0.1554  0.0736
   51CHL1   H3' 6184   6.361   3.077  10.348 -0.0073 -0.9413  0.2905
   51CHL1    C4 6185   6.308   2.978  10.103  0.0322  0.7285 -0.0920
   51CHL1   H4A 6186   6.412   2.958  10.139  0.3339 -1.6206 -1.9913
   51CHL1   H4B 6187   6.241   2.894  10.127  0.6209 -0.1272 -1.3069
   51CHL1    C5 6188   6.319   2.989   9.957 -0.3764 -0.3242  0.8162
   51CHL1    C6 6189   6.270   2.897   9.870 -0.5644 -0.4673  0.6165
   51CHL1    H6 6190   6.219   2.809   9.911  0.7538 -1.3722  0.3439
   51CHL1    C7 6191   6.284   2.911   9.718 -0.1342  0.6213  0.3327
   51CHL1   H7A 6192   6.312   2.813   9.673 -1.6662  0.8774 -1.2964
   51CHL1   H7B 6193   6.181   2.934   9.683 -2.1142 -5.6486  0.6578
   51CHL1    C8 6194   6.387   3.012   9.674 -0.1426 -0.5966 -0.1471
   51CHL1    H8 6195   6.489   2.968   9.673  0.0626 -0.1183 -1.4517
   51CHL1   C14 6196   6.358   3.048   9.526 -0.5965 -0.4531 -0.9240
   51CHL1   H14 6197   6.264   3.105   9.534 -0.1402  0.0942  0.9575
   51CHL1   C15 6198   6.340   2.943   9.424 -0.3090  0.2528  0.1901
   51CHL1  H15A 6199   6.414   2.863   9.443  1.9432  1.8514 -1.2508
   51CHL1  H15B 6200   6.235   2.908   9.431 -0.8492  1.9034  1.1602
   51CHL1   C16 6201   6.360   3.010   9.289  0.2528  0.0259 -0.3287
   51CHL1  H16A 6202   6.437   2.954   9.233 -1.1659 -1.1700 -1.1519
   51CHL1  H16B 6203   6.271   3.023   9.223 -0.0842 -0.3418  0.0429
   51CHL1   C17 6204   6.409   3.159   9.317 -0.7857  0.0525 -0.3114
   51CHL1   H17 6205   6.321   3.226   9.327 -0.0173  0.9566  0.6143
   51CHL1   C13 6206   6.458   3.148   9.469  0.0409  0.1637 -0.0977
   51CHL1   C18 6207   6.600   3.082   9.468  0.0952  0.2340 -0.5010
   51CHL1  H18A 6208   6.604   2.984   9.417 -1.0879  0.1048 -0.3938
   51CHL1  H18B 6209   6.668   3.149   9.411  0.8552 -0.0764  0.0320
   51CHL1  H18C 6210   6.635   3.064   9.572 -0.1378  3.3385  0.2330
   51CHL1   C12 6211   6.453   3.279   9.545  0.2445 -0.0028  0.8633
   51CHL1  H12A 6212   6.531   3.352   9.515  0.8685 -1.6977 -1.9814
   51CHL1  H12B 6213   6.353   3.319   9.517  0.5021  0.1438  0.1307
   51CHL1   C11 6214   6.458   3.259   9.699 -0.4964  0.0160  0.2147
   51CHL1  H11A 6215   6.566   3.238   9.711 -0.2657 -0.2030 -1.9113
   51CHL1  H11B 6216   6.438   3.360   9.741  1.0409  0.5567 -0.2728
   51CHL1    C9 6217   6.375   3.137   9.759 -0.1885 -0.3557  0.5963
   51CHL1    H9 6218   6.272   3.173   9.736  0.6377  1.1810 -0.8907
   51CHL1   C10 6219   6.392   3.121   9.911  0.3703  0.0918 -0.0477
   51CHL1   C19 6220   6.543   3.102   9.941 -0.2653  0.8211 -0.1332
   51CHL1  H19A 6221   6.612   3.174   9.893 -1.0402  0.9183 -1.1287
   51CHL1  H19B 6222   6.554   3.100  10.051  0.7322  0.5597 -0.2301
   51CHL1  H19C 6223   6.563   3.003   9.895 -1.8823  1.1073 -1.5744
   51CHL1    C1 6224   6.328   3.239   9.989  0.1575 -0.4035 -0.1140
   51CHL1   H1A 6225   6.388   3.329   9.963  3.2402 -2.6124 -1.1933
   51CHL1   H1B 6226   6.223   3.235   9.953 -0.2913  4.7139 -0.0649
   51CHL1    C2 6227   6.317   3.227  10.143  0.0687  0.9664 -0.4760
   51CHL1   H2A 6228   6.252   3.309  10.181 -0.2467  0.4956  0.0178
   51CHL1   H2B 6229   6.421   3.247  10.178  0.8004  0.3130 -2.1803
   51CHL1   C20 6230   6.501   3.222   9.207 -0.6909  0.8643 -0.6520
   51CHL1   H20 6231   6.601   3.179   9.228 -0.9096  0.9031  0.5085
   51CHL1   C21 6232   6.513   3.373   9.228  0.2263  0.4570 -0.4334
   51CHL1  H21A 6233   6.444   3.423   9.157 -0.7084 -1.4044 -0.8981
   51CHL1  H21B 6234   6.612   3.404   9.188 -0.0808  0.3583 -1.2953
   51CHL1  H21C 6235   6.494   3.399   9.334  1.1150  3.4370 -0.9032
   51CHL1   C22 6236   6.458   3.179   9.061 -0.3994  0.0838 -0.3806
   51CHL1  H22A 6237   6.419   3.075   9.063 -0.3547  0.0752  0.0404
   51CHL1  H22B 6238   6.361   3.231   9.049 -0.6979 -0.7718 -1.9314
   51CHL1   C23 6239   6.562   3.203   8.952 -0.3223 -0.2537  0.4312
   51CHL1  H23A 6240   6.606   3.303   8.975 -2.0980  0.4452  0.9655
   51CHL1  H23B 6241   6.657   3.147   8.962 -0.4135 -0.2887  1.1189
   51CHL1   C24 6242   6.499   3.183   8.815  0.2445 -0.1294  0.3085
   51CHL1  H24A 6243   6.467   3.077   8.805  1.3284 -0.5138  0.7061
   51CHL1  H24B 6244   6.410   3.250   8.813 -1.4833 -2.1372  2.8378
   51CHL1   C25 6245   6.593   3.220   8.695 -0.5422 -0.3669 -0.4413
   51CHL1   H25 6246   6.662   3.133   8.692 -1.9058 -1.4612 -1.2200
   51CHL1   C26 6247   6.507   3.223   8.570 -0.6982 -0.1658 -0.3391
   51CHL1  H26A 6248   6.421   3.294   8.576  0.1710  0.8668  0.0638
   51CHL1  H26B 6249   6.573   3.243   8.482  2.1623 -0.0299  1.7210
   51CHL1  H26C 6250   6.474   3.118   8.551 -2.4349 -0.2185  2.4174
   51CHL1   C27 6251   6.657   3.358   8.711 -0.2090 -0.4588 -0.9503
   51CHL1  H27A 6252   6.707   3.386   8.616  0.7294  0.2466 -0.2686
   51CHL1  H27B 6253   6.590   3.438   8.749 -1.4757 -1.3884 -1.1925
   51CHL1  H27C 6254   6.735   3.359   8.790 -1.4271  1.1026  0.2971
   52CHL1    C3 6255   1.229   1.182  10.064  0.0792  0.4133  0.3391
   52CHL1    H3 6256   1.297   1.109  10.015  0.1265  0.3045  0.5634
   52CHL1    O3 6257   1.182   1.140  10.192 -0.7201  0.5262 -0.2365
   52CHL1   H3' 6258   1.233   1.064  10.222 -0.7592  1.0036  1.1516
   52CHL1    C4 6259   1.303   1.320  10.088  0.4561  0.5318  0.7654
   52CHL1   H4A 6260   1.244   1.396  10.142  0.3882  0.7741  0.3546
   52CHL1   H4B 6261   1.400   1.304  10.140  1.1401  0.1031 -0.5886
   52CHL1    C5 6262   1.337   1.378   9.952 -0.0496  1.1226 -0.3103
   52CHL1    C6 6263   1.464   1.412   9.930  0.1169 -0.5763  0.2360
   52CHL1    H6 6264   1.535   1.404  10.014  0.7735  0.1108 -0.2415
   52CHL1    C7 6265   1.501   1.486   9.811 -0.7153 -0.3522  0.4575
   52CHL1   H7A 6266   1.568   1.573   9.831 -1.5155  0.2744  0.4340
   52CHL1   H7B 6267   1.568   1.420   9.751 -0.1194  0.2720  0.4229
   52CHL1    C8 6268   1.389   1.547   9.725 -0.8731 -0.4583  0.0608
   52CHL1    H8 6269   1.344   1.634   9.778  0.9348 -0.5603  1.8832
   52CHL1   C14 6270   1.449   1.586   9.588 -0.4213  0.4611 -0.4298
   52CHL1   H14 6271   1.485   1.489   9.547 -3.2302 -0.8067 -0.1194
   52CHL1   C15 6272   1.576   1.676   9.584  1.1365  1.1280  0.2874
   52CHL1  H15A 6273   1.551   1.772   9.635 -1.1589  1.2887 -1.0167
   52CHL1  H15B 6274   1.675   1.645   9.623  0.8483 -0.1902  0.0137
   52CHL1   C16 6275   1.579   1.701   9.425  0.2990 -0.5285 -0.0261
   52CHL1  H16A 6276   1.598   1.810   9.413  1.8945 -0.6493  1.1054
   52CHL1  H16B 6277   1.659   1.636   9.384 -0.3630 -2.1171  1.0712
   52CHL1   C17 6278   1.443   1.647   9.359  0.3483 -0.4442  0.3078
   52CHL1   H17 6279   1.457   1.546   9.317 -1.9607 -1.9814  2.9070
   52CHL1   C13 6280   1.353   1.627   9.475 -0.2266 -0.5560 -0.3744
   52CHL1   C18 6281   1.279   1.757   9.520 -0.1167 -0.1114 -0.2558
   52CHL1  H18A 6282   1.225   1.739   9.615 -0.3472  0.4834 -0.2705
   52CHL1  H18B 6283   1.351   1.838   9.544  0.3023  0.0197 -1.8511
   52CHL1  H18C 6284   1.212   1.803   9.445 -0.1008  3.5661  1.7783
   52CHL1   C12 6285   1.246   1.510   9.459  0.7831 -0.2419  0.0137
   52CHL1  H12A 6286   1.160   1.538   9.395  0.5860  0.6111  0.6222
   52CHL1  H12B 6287   1.304   1.422   9.424 -0.7040 -2.0429  1.8596
   52CHL1   C11 6288   1.179   1.471   9.597  0.8377  0.6705 -0.3314
   52CHL1  H11A 6289   1.112   1.550   9.635  0.5545 -0.0039  0.6015
   52CHL1  H11B 6290   1.114   1.382   9.587 -1.0992  1.6255  2.6764
   52CHL1    C9 6291   1.285   1.435   9.706 -0.2702  0.2425  0.0558
   52CHL1    H9 6292   1.331   1.344   9.661 -0.2483  0.8213 -1.1247
   52CHL1   C10 6293   1.230   1.385   9.845  0.3585 -0.3661  0.0558
   52CHL1   C19 6294   1.137   1.497   9.891  0.3875  0.1222 -0.2661
   52CHL1  H19A 6295   1.047   1.497   9.827  0.5794 -0.0270 -0.5361
   52CHL1  H19B 6296   1.118   1.473   9.998  2.2124 -0.3967 -0.0269
   52CHL1  H19C 6297   1.181   1.599   9.893 -0.8251  0.6588  1.2023
   52CHL1    C1 6298   1.158   1.253   9.830 -0.3025 -0.4665 -0.1215
   52CHL1   H1A 6299   1.067   1.264   9.767 -0.4055 -1.4247 -0.1569
   52CHL1   H1B 6300   1.225   1.180   9.779  0.1713 -0.8224  0.9777
   52CHL1    C2 6301   1.106   1.193   9.964  0.5559 -0.7546 -1.0176
   52CHL1   H2A 6302   1.053   1.098   9.942  0.7511 -0.8189 -1.2211
   52CHL1   H2B 6303   1.042   1.273  10.007  1.5637  0.3302 -1.4388
   52CHL1   C20 6304   1.391   1.741   9.245 -0.7359  0.3664 -0.3814
   52CHL1   H20 6305   1.358   1.835   9.294  1.4506  2.0034 -1.8420
   52CHL1   C21 6306   1.258   1.678   9.177  0.1357  0.1565  0.0642
   52CHL1  H21A 6307   1.279   1.573   9.147  1.1091  0.5125 -0.5509
   52CHL1  H21B 6308   1.238   1.756   9.101  2.4731  0.5326 -0.2292
   52CHL1  H21C 6309   1.174   1.679   9.250  0.0652  0.7065 -0.0210
   52CHL1   C22 6310   1.499   1.775   9.140  0.2115 -0.5256  0.2373
   52CHL1  H22A 6311   1.454   1.844   9.066  1.8291  1.7730  1.2829
   52CHL1  H22B 6312   1.581   1.836   9.183  0.2124 -1.1579  1.1637
   52CHL1   C23 6313   1.567   1.657   9.062  0.7938 -0.3383 -0.3330
   52CHL1  H23A 6314   1.632   1.609   9.138  0.1312  0.7064  0.9313
   52CHL1  H23B 6315   1.497   1.581   9.021  1.0702 -0.7038 -0.1302
   52CHL1   C24 6316   1.664   1.693   8.942 -0.3822  0.8070 -0.2370
   52CHL1  H24A 6317   1.770   1.718   8.965 -0.0853 -0.6760  0.1068
   52CHL1  H24B 6318   1.666   1.598   8.885 -1.5646 -0.0705  1.1315
   52CHL1   C25 6319   1.607   1.800   8.844 -0.0189  0.5340 -0.9972
   52CHL1   H25 6320   1.595   1.898   8.896 -0.8887  1.3897 -2.7177
   52CHL1   C26 6321   1.697   1.827   8.713  0.5007  0.8083 -0.6508
   52CHL1  H26A 6322   1.716   1.727   8.668 -0.0471  0.4138 -0.0153
   52CHL1  H26B 6323   1.635   1.880   8.638 -0.6676 -3.2481 -2.8968
   52CHL1  H26C 6324   1.792   1.880   8.734  1.9568 -0.1269 -4.1309
   52CHL1   C27 6325   1.465   1.761   8.796  0.3160  0.0887 -0.1360
   52CHL1  H27A 6326   1.480   1.665   8.742 -1.1568  0.2116 -0.8059
   52CHL1  H27B 6327   1.388   1.741   8.874  0.6509  2.8235  1.0336
   52CHL1  H27C 6328   1.432   1.833   8.718  0.8401 -1.3751 -1.7474
   53CHL1    C3 6329   3.961   1.427  10.073 -0.1878 -0.4199 -0.9968
   53CHL1    H3 6330   3.909   1.524  10.061  0.4291  0.6150  3.1732
   53CHL1    O3 6331   3.949   1.383  10.211 -0.2758  0.4041 -0.4537
   53CHL1   H3' 6332   3.991   1.297  10.210  1.0872  1.0417 -1.0472
   53CHL1    C4 6333   3.901   1.308   9.996  0.2848  0.5639 -0.1297
   53CHL1   H4A 6334   3.950   1.213  10.028 -0.4294  0.3142  0.2476
   53CHL1   H4B 6335   3.797   1.296  10.034  0.5531 -0.2324  0.3908
   53CHL1    C5 6336   3.918   1.328   9.850  0.3837  0.5723  0.0269
   53CHL1    C6 6337   3.813   1.331   9.770  0.8667  0.0095 -0.0702
   53CHL1    H6 6338   3.714   1.308   9.814  1.5330 -1.3242  0.7714
   53CHL1    C7 6339   3.831   1.339   9.619 -0.1631 -0.3467 -0.1313
   53CHL1   H7A 6340   3.762   1.259   9.584 -1.4639 -0.0092  1.4862
   53CHL1   H7B 6341   3.815   1.442   9.582  1.9234 -0.6103 -1.9818
   53CHL1    C8 6342   3.965   1.301   9.568 -0.1404  0.4890  0.0637
   53CHL1    H8 6343   3.986   1.192   9.577 -0.9575  0.0397 -2.6007
   53CHL1   C14 6344   3.979   1.329   9.419 -0.1387  0.6820 -1.4781
   53CHL1   H14 6345   3.946   1.434   9.405 -1.7936  0.3158 -0.5399
   53CHL1   C15 6346   3.888   1.250   9.324  0.0768  0.7619 -0.5587
   53CHL1  H15A 6347   3.875   1.150   9.370 -1.0411  0.7470 -0.8811
   53CHL1  H15B 6348   3.786   1.296   9.323 -0.8925 -1.2906 -1.7758
   53CHL1   C16 6349   3.964   1.251   9.194  0.0131  0.3911 -0.6168
   53CHL1  H16A 6350   3.982   1.147   9.159  0.9475  0.7795 -1.3566
   53CHL1  H16B 6351   3.901   1.306   9.120 -0.5444  0.7540  0.1123
   53CHL1   C17 6352   4.099   1.325   9.217  0.3052 -0.5323  1.0803
   53CHL1   H17 6353   4.085   1.433   9.192 -1.8284 -1.5771 -3.0550
   53CHL1   C13 6354   4.122   1.309   9.366 -0.6337  0.1232  0.2382
   53CHL1   C18 6355   4.171   1.166   9.381 -0.0560 -0.2209 -0.0965
   53CHL1  H18A 6356   4.175   1.149   9.491 -2.9064  1.3835  0.3646
   53CHL1  H18B 6357   4.094   1.098   9.340 -1.0390  0.9552 -0.2845
   53CHL1  H18C 6358   4.266   1.135   9.334 -0.5490  0.8429 -1.8884
   53CHL1   C12 6359   4.217   1.412   9.433  0.6040 -0.2776 -0.8594
   53CHL1  H12A 6360   4.324   1.400   9.404  1.7977  1.3522  2.4130
   53CHL1  H12B 6361   4.176   1.515   9.441  0.3067 -0.5016  0.7014
   53CHL1   C11 6362   4.218   1.381   9.587 -0.2794  0.1460 -0.0830
   53CHL1  H11A 6363   4.289   1.297   9.605  0.1586  0.8134  1.4920
   53CHL1  H11B 6364   4.265   1.468   9.639 -2.1472 -0.2807  2.4776
   53CHL1    C9 6365   4.072   1.375   9.647  0.0463 -0.0258 -0.5433
   53CHL1    H9 6366   4.038   1.479   9.631 -0.7623 -0.6425 -3.5601
   53CHL1   C10 6367   4.071   1.337   9.800  0.0292  0.3660  0.7300
   53CHL1   C19 6368   4.149   1.201   9.815  0.5953 -0.5494  0.4135
   53CHL1  H19A 6369   4.100   1.129   9.746  0.2585 -2.1725  2.2629
   53CHL1  H19B 6370   4.258   1.211   9.796  0.2106  0.7486 -1.2744
   53CHL1  H19C 6371   4.145   1.164   9.920 -0.1328 -0.8191  0.2986
   53CHL1    C1 6372   4.120   1.454   9.886 -0.6677  0.0018 -0.2401
   53CHL1   H1A 6373   4.228   1.464   9.860 -0.1774  1.7144  2.1347
   53CHL1   H1B 6374   4.063   1.544   9.854 -2.5493 -1.0183  0.1064
   53CHL1    C2 6375   4.114   1.438  10.042 -0.1747  0.6329 -0.0319
   53CHL1   H2A 6376   4.148   1.525  10.102  0.0907  0.3785  0.1869
   53CHL1   H2B 6377   4.165   1.346  10.076 -2.6501 -0.3569  1.2348
   53CHL1   C20 6378   4.205   1.274   9.107  0.1356 -0.0091  0.1522
   53CHL1   H20 6379   4.209   1.164   9.125 -1.6782  0.1718  1.9555
   53CHL1   C21 6380   4.331   1.352   9.131  0.0465 -0.2881  1.2064
   53CHL1  H21A 6381   4.376   1.334   9.231  1.4332  0.7041  0.8045
   53CHL1  H21B 6382   4.316   1.462   9.126  0.0166 -0.3257  0.3547
   53CHL1  H21C 6383   4.404   1.321   9.054 -2.6100 -0.7147 -1.3079
   53CHL1   C22 6384   4.154   1.287   8.961  0.1793  0.2070  0.2513
   53CHL1  H22A 6385   4.064   1.226   8.939  1.5967 -1.5154 -1.0767
   53CHL1  H22B 6386   4.141   1.394   8.936  1.3759 -0.0545 -1.6668
   53CHL1   C23 6387   4.260   1.244   8.852  0.7964  0.2602 -0.7497
   53CHL1  H23A 6388   4.334   1.327   8.844  1.0260  0.2286  0.7710
   53CHL1  H23B 6389   4.310   1.157   8.900 -0.3458  0.4793  0.9173
   53CHL1   C24 6390   4.186   1.212   8.715  0.3841 -0.0300 -0.8344
   53CHL1  H24A 6391   4.113   1.130   8.733  1.8806 -1.7651 -2.2039
   53CHL1  H24B 6392   4.132   1.302   8.679  2.9386  0.9694 -2.4811
   53CHL1   C25 6393   4.284   1.179   8.606 -0.7484 -0.2292 -0.2632
   53CHL1   H25 6394   4.355   1.264   8.617 -0.5005 -0.6972  2.3354
   53CHL1   C26 6395   4.373   1.053   8.628  0.1475  0.1277  0.1161
   53CHL1  H26A 6396   4.310   0.966   8.657 -0.3348  0.5193  0.2592
   53CHL1  H26B 6397   4.426   1.021   8.536 -1.4199 -0.5516 -0.5921
   53CHL1  H26C 6398   4.450   1.067   8.707  1.4836  0.8932 -1.2815
   53CHL1   C27 6399   4.212   1.165   8.466  0.2178  0.3191  0.3521
   53CHL1  H27A 6400   4.144   1.077   8.464 -1.6366  1.7112 -0.0176
   53CHL1  H27B 6401   4.144   1.250   8.448  1.5190  1.1508 -0.8406
   53CHL1  H27C 6402   4.280   1.150   8.379 -3.9522 -0.7928 -3.0431
   54CHL1    C3 6403   3.420   2.967  10.298  0.1712  0.0993  0.6413
   54CHL1    H3 6404   3.313   2.947  10.273  0.6323  0.1457 -1.5323
   54CHL1    O3 6405   3.431   2.991  10.438 -0.2330  0.5106 -0.0169
   54CHL1   H3' 6406   3.496   3.062  10.435  2.2029 -1.5525  0.6669
   54CHL1    C4 6407   3.507   2.851  10.260 -1.1622  0.9063 -0.2595
   54CHL1   H4A 6408   3.613   2.865  10.288 -0.8095  0.4898 -1.3481
   54CHL1   H4B 6409   3.484   2.763  10.323  1.6583 -0.8921 -1.5665
   54CHL1    C5 6410   3.503   2.826  10.113  1.0117 -0.1987 -0.0348
   54CHL1    C6 6411   3.477   2.701  10.067  0.9820 -0.4152 -0.6453
   54CHL1    H6 6412   3.453   2.627  10.144  0.2449  0.0473 -0.4240
   54CHL1    C7 6413   3.477   2.665   9.925 -0.0245 -0.4147  0.1654
   54CHL1   H7A 6414   3.530   2.570   9.903 -1.3632 -1.2348  0.3816
   54CHL1   H7B 6415   3.372   2.648   9.893 -0.4062  2.8509 -0.7435
   54CHL1    C8 6416   3.539   2.784   9.843 -0.1164  0.2223  0.4433
   54CHL1    H8 6417   3.649   2.772   9.839  0.0305  1.5935 -0.0817
   54CHL1   C14 6418   3.503   2.756   9.697 -0.1540 -0.4004 -0.4015
   54CHL1   H14 6419   3.395   2.781   9.690 -0.1200  0.1812  0.9409
   54CHL1   C15 6420   3.515   2.622   9.631  0.6574  0.5956  0.3239
   54CHL1  H15A 6421   3.612   2.576   9.660  2.2344  1.7454 -2.7004
   54CHL1  H15B 6422   3.431   2.553   9.652 -0.9418  2.3734  0.0522
   54CHL1   C16 6423   3.513   2.646   9.483  0.3069 -0.6662  0.3964
   54CHL1  H16A 6424   3.602   2.602   9.433  1.4125  1.8958 -0.0454
   54CHL1  H16B 6425   3.424   2.602   9.432  1.7812 -1.6969 -1.4367
   54CHL1   C17 6426   3.524   2.798   9.462  0.2219 -0.2424  0.6077
   54CHL1   H17 6427   3.417   2.828   9.455  0.0424 -1.1390 -1.5055
   54CHL1   C13 6428   3.575   2.859   9.595  0.3533 -0.4409  0.0899
   54CHL1   C18 6429   3.732   2.829   9.609  0.1187  0.4007  0.9372
   54CHL1  H18A 6430   3.794   2.881   9.532  0.7247 -0.7312  0.6331
   54CHL1  H18B 6431   3.772   2.859   9.708 -0.1305  1.8013  0.6375
   54CHL1  H18C 6432   3.758   2.721   9.600 -0.2356  0.4551 -1.4507
   54CHL1   C12 6433   3.539   3.004   9.638  0.7278 -0.4148 -0.4015
   54CHL1  H12A 6434   3.585   3.079   9.569 -0.3213 -0.5590 -1.2954
   54CHL1  H12B 6435   3.428   3.012   9.630  0.2000 -3.5929  1.8481
   54CHL1   C11 6436   3.570   3.030   9.784  0.1900 -0.1250  0.1101
   54CHL1  H11A 6437   3.681   3.037   9.785  0.2106 -0.2595  1.8286
   54CHL1  H11B 6438   3.536   3.134   9.805  1.8874  0.2135  1.3547
   54CHL1    C9 6439   3.508   2.927   9.884  0.0892 -0.3176 -0.6712
   54CHL1    H9 6440   3.399   2.936   9.868  0.0834  0.8491 -0.1303
   54CHL1   C10 6441   3.534   2.949  10.028  0.2446  0.6848 -1.0519
   54CHL1   C19 6442   3.682   2.989  10.046 -0.7143  0.6535 -1.0123
   54CHL1  H19A 6443   3.692   2.993  10.157 -0.5670 -1.6799 -0.8878
   54CHL1  H19B 6444   3.753   2.910  10.016 -2.0446 -0.1559 -2.1470
   54CHL1  H19C 6445   3.707   3.086   9.997  0.7642  1.1270  0.5988
   54CHL1    C1 6446   3.449   3.075  10.077  0.8913  0.2075  0.6645
   54CHL1   H1A 6447   3.493   3.158  10.019  0.6770 -0.7898 -1.0074
   54CHL1   H1B 6448   3.342   3.058  10.054  0.9149 -0.8137  1.2256
   54CHL1    C2 6449   3.452   3.099  10.227 -0.0934 -0.5650 -0.2089
   54CHL1   H2A 6450   3.382   3.181  10.251  0.2816 -0.6311  1.2471
   54CHL1   H2B 6451   3.558   3.126  10.250  0.6961 -0.7864 -3.2004
   54CHL1   C20 6452   3.609   2.829   9.337 -0.2734  0.4535  0.0509
   54CHL1   H20 6453   3.709   2.783   9.346 -0.5731  0.0803  1.8760
   54CHL1   C21 6454   3.634   2.980   9.318  0.0524  0.1877 -0.3301
   54CHL1  H21A 6455   3.700   3.028   9.393  0.5190 -0.7721 -0.1169
   54CHL1  H21B 6456   3.535   3.030   9.329 -0.2154 -0.4289  0.1533
   54CHL1  H21C 6457   3.683   3.002   9.221  2.4550 -0.6823  0.6322
   54CHL1   C22 6458   3.545   2.774   9.206 -0.4670  0.4059 -0.4295
   54CHL1  H22A 6459   3.477   2.690   9.228  1.6135 -1.0333  0.8498
   54CHL1  H22B 6460   3.500   2.860   9.152 -0.5912 -0.6032 -1.9993
   54CHL1   C23 6461   3.657   2.728   9.109  0.0967 -0.2981 -0.4472
   54CHL1  H23A 6462   3.699   2.819   9.061 -1.4664  0.1044 -1.1203
   54CHL1  H23B 6463   3.742   2.682   9.163  0.9560 -0.7429 -2.0893
   54CHL1   C24 6464   3.610   2.635   9.001  0.0371  0.2090  0.2859
   54CHL1  H24A 6465   3.575   2.534   9.033  0.5171  0.3695  1.3471
   54CHL1  H24B 6466   3.511   2.673   8.969 -0.1755 -0.7305 -0.2370
   54CHL1   C25 6467   3.707   2.624   8.886  0.1115 -0.3642  0.4301
   54CHL1   H25 6468   3.746   2.725   8.858  0.6962 -0.6899  0.0548
   54CHL1   C26 6469   3.836   2.546   8.926  0.7208 -0.0619 -0.8393
   54CHL1  H26A 6470   3.815   2.437   8.938 -2.6031  0.7021  2.0678
   54CHL1  H26B 6471   3.921   2.552   8.856  3.5305  0.1956  2.3262
   54CHL1  H26C 6472   3.882   2.592   9.017  0.4210  1.6505 -1.5198
   54CHL1   C27 6473   3.636   2.555   8.772  1.0544  0.0764 -0.8832
   54CHL1  H27A 6474   3.684   2.532   8.675 -1.1414 -0.0577 -2.0065
   54CHL1  H27B 6475   3.586   2.460   8.798 -0.2037  0.3821 -2.0702
   54CHL1  H27C 6476   3.552   2.625   8.752  0.3007  0.5369  3.0455
   55CHL1    C3 6477   2.816   1.963  10.206  0.2668  0.2140 -0.2130
   55CHL1    H3 6478   2.718   1.992  10.164  0.6299  1.3325 -0.3063
   55CHL1    O3 6479   2.790   1.952  10.341 -0.8248  0.0434 -0.1020
   55CHL1   H3' 6480   2.735   1.874  10.337 -0.1716 -0.3721 -1.7731
   55CHL1    C4 6481   2.866   1.829  10.153 -0.4461 -0.1429 -0.5847
   55CHL1   H4A 6482   2.961   1.802  10.205  0.2433 -0.4004 -1.9146
   55CHL1   H4B 6483   2.795   1.751  10.190  0.9296 -1.1831 -0.0238
   55CHL1    C5 6484   2.895   1.826  10.006  0.1131 -0.3778  0.2539
   55CHL1    C6 6485   2.827   1.742   9.927  0.0771  0.3841  0.1673
   55CHL1    H6 6486   2.767   1.665   9.977 -0.8203  1.0153  0.0759
   55CHL1    C7 6487   2.846   1.738   9.779 -0.6030 -0.7483 -0.2847
   55CHL1   H7A 6488   2.867   1.643   9.726 -1.3650  0.3292 -2.6268
   55CHL1   H7B 6489   2.754   1.789   9.742 -1.2409 -0.3078  1.7586
   55CHL1    C8 6490   2.968   1.827   9.733 -0.3666  0.4516 -0.1131
   55CHL1    H8 6491   3.061   1.767   9.741 -1.9486 -2.4939 -2.2189
   55CHL1   C14 6492   2.955   1.858   9.582  0.9457 -0.5940  0.4709
   55CHL1   H14 6493   2.861   1.917   9.578  0.2724 -1.3479  3.1220
   55CHL1   C15 6494   2.925   1.741   9.484 -0.3855  0.0543 -0.2464
   55CHL1  H15A 6495   2.999   1.659   9.501 -0.8779 -0.0622  1.5124
   55CHL1  H15B 6496   2.823   1.701   9.502  0.2428 -1.6986 -0.3459
   55CHL1   C16 6497   2.955   1.805   9.345 -0.2335  0.2540  0.1262
   55CHL1  H16A 6498   3.037   1.753   9.292  0.9444  0.5528  1.6070
   55CHL1  H16B 6499   2.869   1.805   9.274 -1.3063 -0.5367  1.3738
   55CHL1   C17 6500   3.010   1.946   9.373  0.6315  0.3790 -0.8742
   55CHL1   H17 6501   2.927   2.020   9.373 -0.0652 -0.3786 -0.4653
   55CHL1   C13 6502   3.056   1.947   9.520  0.2037 -0.2724  1.0333
   55CHL1   C18 6503   3.189   1.882   9.519  0.2686  0.1389  0.3201
   55CHL1  H18A 6504   3.190   1.800   9.444  0.5035  0.3110  0.1342
   55CHL1  H18B 6505   3.267   1.958   9.496 -0.6735  0.3257 -2.7268
   55CHL1  H18C 6506   3.213   1.836   9.618  0.2394 -0.1425  0.1962
   55CHL1   C12 6507   3.059   2.086   9.596 -0.1374  1.1922 -0.5108
   55CHL1  H12A 6508   3.143   2.149   9.560  1.0282  0.6545  1.1419
   55CHL1  H12B 6509   2.959   2.132   9.584 -0.9762 -0.0265  1.3254
   55CHL1   C11 6510   3.091   2.056   9.745 -0.0212 -0.1392  0.7151
   55CHL1  H11A 6511   3.186   2.004   9.767 -0.8000 -1.2009  1.7044
   55CHL1  H11B 6512   3.085   2.155   9.794  0.4563  1.3668 -2.0416
   55CHL1    C9 6513   2.978   1.963   9.808 -0.4936  0.0149 -0.3945
   55CHL1    H9 6514   2.880   2.010   9.788 -1.6819 -1.5850  1.2721
   55CHL1   C10 6515   2.991   1.939   9.956 -0.0524 -0.2727  0.0415
   55CHL1   C19 6516   3.127   1.890   9.999 -0.0559 -0.8666  0.7079
   55CHL1  H19A 6517   3.135   1.877  10.109  0.5929  0.7951  0.8876
   55CHL1  H19B 6518   3.159   1.810   9.928 -0.9872  0.1307 -0.8903
   55CHL1  H19C 6519   3.194   1.978   9.990 -0.5241 -0.5892 -0.2075
   55CHL1    C1 6520   2.955   2.079  10.027  0.7131 -0.0253  0.1026
   55CHL1   H1A 6521   3.026   2.158   9.996  1.1683 -0.1135  0.8793
   55CHL1   H1B 6522   2.861   2.101   9.971  1.0004  0.7334 -0.0907
   55CHL1    C2 6523   2.922   2.075  10.182  0.1666 -0.2179  0.5240
   55CHL1   H2A 6524   2.885   2.175  10.215 -0.7566 -0.7827  1.2300
   55CHL1   H2B 6525   3.020   2.059  10.233  1.1296 -0.3586 -1.2899
   55CHL1   C20 6526   3.100   1.993   9.259  0.4530 -0.2760  0.0762
   55CHL1   H20 6527   3.185   1.922   9.265 -0.0913 -0.9317  0.2276
   55CHL1   C21 6528   3.160   2.129   9.284 -0.6546 -0.0117 -0.2226
   55CHL1  H21A 6529   3.223   2.115   9.374 -0.5605 -0.6403 -0.3769
   55CHL1  H21B 6530   3.079   2.204   9.294  0.6780  1.6434 -1.2539
   55CHL1  H21C 6531   3.225   2.161   9.199 -0.3425  1.4953  0.5652
   55CHL1   C22 6532   3.041   1.989   9.114  0.7932  0.4184  0.8740
   55CHL1  H22A 6533   3.119   2.019   9.041 -0.2269 -0.6469 -0.7069
   55CHL1  H22B 6534   3.021   1.883   9.087 -2.9506  1.2790 -0.3493
   55CHL1   C23 6535   2.915   2.070   9.084  0.1513 -0.2938 -0.2492
   55CHL1  H23A 6536   2.834   2.046   9.157 -0.6829  2.4139 -0.1747
   55CHL1  H23B 6537   2.948   2.175   9.100  2.3601 -0.9042 -0.4366
   55CHL1   C24 6538   2.860   2.061   8.938  0.5579  0.1687  0.2722
   55CHL1  H24A 6539   2.915   2.139   8.881 -0.9868  2.1780  1.3652
   55CHL1  H24B 6540   2.895   1.962   8.901  0.8834 -0.0731  1.2100
   55CHL1   C25 6541   2.714   2.092   8.924 -0.2430  0.1780 -0.6135
   55CHL1   H25 6542   2.658   2.051   9.011  0.6732  0.6048  0.1975
   55CHL1   C26 6543   2.680   2.243   8.930  0.2521 -0.3299 -0.2904
   55CHL1  H26A 6544   2.708   2.292   8.834  0.2227  0.1613 -0.0485
   55CHL1  H26B 6545   2.571   2.252   8.949  0.1899 -1.9945  0.3633
   55CHL1  H26C 6546   2.739   2.283   9.016 -0.0576 -2.7494  1.1469
   55CHL1   C27 6547   2.668   2.022   8.795 -0.2723 -0.6119 -0.6125
   55CHL1  H27A 6548   2.702   1.916   8.791  3.8320  0.5988 -1.6120
   55CHL1  H27B 6549   2.557   2.023   8.785 -0.6408  3.3448  1.7785
   55CHL1  H27C 6550   2.711   2.065   8.702 -0.9643 -0.6734 -0.9749
   56CHL1    C3 6551   1.382   6.215  10.120  0.2891 -0.3878 -0.4548
   56CHL1    H3 6552   1.407   6.107  10.107  1.2670  0.0024 -2.0434
   56CHL1    O3 6553   1.390   6.261  10.257  0.7550 -0.1944  0.2391
   56CHL1   H3' 6554   1.305   6.226  10.285 -0.0136 -0.2221 -1.9087
   56CHL1    C4 6555   1.485   6.309  10.050 -0.3289  0.1157  0.0599
   56CHL1   H4A 6556   1.468   6.411  10.090 -3.1605  1.3154 -3.6347
   56CHL1   H4B 6557   1.581   6.267  10.085 -0.2022 -0.6642 -1.1737
   56CHL1    C5 6558   1.479   6.325   9.904 -0.1015  0.0040  0.2466
   56CHL1    C6 6559   1.588   6.313   9.831 -0.2283 -0.1680  0.1173
   56CHL1    H6 6560   1.687   6.309   9.878 -0.1290  1.0372  0.0241
   56CHL1    C7 6561   1.580   6.315   9.680 -0.1854 -0.3485 -0.3119
   56CHL1   H7A 6562   1.643   6.388   9.625 -1.0196 -1.3692 -2.7826
   56CHL1   H7B 6563   1.605   6.212   9.646  1.8570 -0.4194  1.2132
   56CHL1    C8 6564   1.441   6.359   9.624  0.2047  0.3496 -0.6742
   56CHL1    H8 6565   1.424   6.469   9.624  0.1176  0.3430 -1.2937
   56CHL1   C14 6566   1.430   6.307   9.477 -0.1285  0.5637 -0.8938
   56CHL1   H14 6567   1.436   6.197   9.485  0.8987  0.6387 -0.5505
   56CHL1   C15 6568   1.544   6.344   9.377  0.6174 -0.1855  0.6987
   56CHL1  H15A 6569   1.574   6.451   9.383 -0.7260  0.3082 -0.6232
   56CHL1  H15B 6570   1.627   6.272   9.391 -0.5882 -1.5373  1.0067
   56CHL1   C16 6571   1.480   6.326   9.239  0.6554 -0.2256 -0.5553
   56CHL1  H16A 6572   1.505   6.412   9.172  0.5730 -0.6971 -1.1946
   56CHL1  H16B 6573   1.520   6.231   9.200 -2.2337 -2.3265  1.2028
   56CHL1   C17 6574   1.331   6.293   9.271  0.6843 -0.9692 -0.0275
   56CHL1   H17 6575   1.338   6.186   9.301  1.4772 -0.6596  0.9176
   56CHL1   C13 6576   1.306   6.348   9.407 -0.3953  1.0494  0.1329
   56CHL1   C18 6577   1.299   6.494   9.389 -0.8113  0.6258 -0.2025
   56CHL1  H18A 6578   1.292   6.541   9.489 -1.2664  0.5792 -0.2125
   56CHL1  H18B 6579   1.382   6.545   9.335 -1.1032  0.4684 -0.8103
   56CHL1  H18C 6580   1.209   6.511   9.325  0.1042  0.5403 -1.5713
   56CHL1   C12 6581   1.178   6.297   9.478  0.7077 -0.1472 -0.0691
   56CHL1  H12A 6582   1.086   6.339   9.431  1.8396 -0.0778 -2.3756
   56CHL1  H12B 6583   1.181   6.186   9.475  2.4194 -0.1624  0.9236
   56CHL1   C11 6584   1.192   6.335   9.626  1.2015  0.3903  0.3073
   56CHL1  H11A 6585   1.174   6.445   9.632  0.9008  0.3254  0.5977
   56CHL1  H11B 6586   1.106   6.295   9.683 -0.0823  2.1308 -0.3239
   56CHL1    C9 6587   1.326   6.299   9.696 -0.5831 -0.0353 -0.2222
   56CHL1    H9 6588   1.338   6.189   9.690  0.4667  0.1218 -1.6120
   56CHL1   C10 6589   1.338   6.333   9.849  0.4687  0.0339 -0.7311
   56CHL1   C19 6590   1.294   6.482   9.866 -0.4890  0.2418  0.1988
   56CHL1  H19A 6591   1.184   6.484   9.850 -0.4090  0.8658 -0.3392
   56CHL1  H19B 6592   1.318   6.520   9.967  0.2450  3.7669 -1.1398
   56CHL1  H19C 6593   1.347   6.550   9.795  1.3976 -0.2750  1.0541
   56CHL1    C1 6594   1.246   6.235   9.922  0.5291  0.0730  0.3239
   56CHL1   H1A 6595   1.139   6.244   9.892  0.7205 -1.9822 -1.2005
   56CHL1   H1B 6596   1.276   6.132   9.893  2.0792  0.6767 -0.2989
   56CHL1    C2 6597   1.249   6.249  10.072 -0.6007 -0.4143  0.0589
   56CHL1   H2A 6598   1.170   6.186  10.119 -2.7861  2.1042  0.0160
   56CHL1   H2B 6599   1.221   6.354  10.095  0.0509 -0.2051 -0.1021
   56CHL1   C20 6600   1.230   6.311   9.153 -0.0066  0.0525 -0.3157
   56CHL1   H20 6601   1.132   6.352   9.185 -0.3716 -0.3649 -0.8761
   56CHL1   C21 6602   1.201   6.169   9.096 -0.2634 -0.2538  0.1180
   56CHL1  H21A 6603   1.124   6.174   9.016 -0.5408  1.8116  0.4635
   56CHL1  H21B 6604   1.166   6.103   9.177 -1.9651 -0.8028 -1.0178
   56CHL1  H21C 6605   1.294   6.129   9.049 -0.8493 -0.0856 -1.2438
   56CHL1   C22 6606   1.275   6.414   9.045  0.5540  0.3556 -0.0689
   56CHL1  H22A 6607   1.298   6.512   9.092 -1.5344 -0.3825  2.7845
   56CHL1  H22B 6608   1.360   6.374   8.985 -1.3795 -1.5565 -1.7268
   56CHL1   C23 6609   1.176   6.438   8.935 -0.3593  0.4550 -0.2269
   56CHL1  H23A 6610   1.125   6.348   8.895  0.4629  0.8146 -2.1824
   56CHL1  H23B 6611   1.095   6.500   8.978  0.7131  1.7876 -0.0836
   56CHL1   C24 6612   1.227   6.532   8.826 -0.9399  0.0484 -0.2361
   56CHL1  H24A 6613   1.271   6.628   8.860 -1.5892  0.2323  0.1100
   56CHL1  H24B 6614   1.312   6.489   8.769 -1.4743 -0.3212 -0.7637
   56CHL1   C25 6615   1.121   6.578   8.731  0.0621 -0.4079  0.5052
   56CHL1   H25 6616   1.049   6.635   8.794 -0.6048 -2.1881  1.4191
   56CHL1   C26 6617   1.169   6.695   8.634  0.2597 -0.0343  0.0479
   56CHL1  H26A 6618   1.251   6.663   8.566  0.6736  1.1647 -0.0280
   56CHL1  H26B 6619   1.079   6.724   8.576 -0.3564  1.3086  1.6154
   56CHL1  H26C 6620   1.207   6.783   8.689  0.9571  0.4338 -1.1460
   56CHL1   C27 6621   1.053   6.472   8.645 -0.3626 -0.2689  0.0273
   56CHL1  H27A 6622   1.018   6.384   8.704 -0.9124 -0.8459 -1.1235
   56CHL1  H27B 6623   0.971   6.508   8.581 -1.8701 -0.3873  1.8091
   56CHL1  H27C 6624   1.130   6.422   8.582  2.3501  1.1859  1.9842
   57CHL1    C3 6625   4.997   1.191  10.308  0.9147  0.0803  0.4307
   57CHL1    H3 6626   4.888   1.201  10.288  0.9921  1.8936  0.7684
   57CHL1    O3 6627   5.017   1.182  10.447 -0.6263  0.2980 -0.6306
   57CHL1   H3' 6628   5.111   1.161  10.452 -0.4032  1.1430 -1.0248
   57CHL1    C4 6629   5.033   1.056  10.248  0.2087  0.5606  0.3282
   57CHL1   H4A 6630   5.141   1.037  10.269  0.5158  2.4662  0.6511
   57CHL1   H4B 6631   4.972   0.972  10.288 -1.5120  0.0032 -3.0970
   57CHL1    C5 6632   5.008   1.066  10.092 -0.2313 -0.8779  0.0713
   57CHL1    C6 6633   4.924   0.989  10.029  0.7340  0.2799  0.3234
   57CHL1    H6 6634   4.860   0.917  10.081  1.4934 -0.0002  0.8938
   57CHL1    C7 6635   4.918   0.987   9.882 -0.3490 -0.1434 -0.3222
   57CHL1   H7A 6636   4.914   0.878   9.862  0.1323 -0.4518  1.1096
   57CHL1   H7B 6637   4.824   1.034   9.847 -0.5043  0.9587  1.4407
   57CHL1    C8 6638   5.041   1.054   9.811 -0.0762  0.1220 -0.1297
   57CHL1    H8 6639   5.128   0.986   9.822 -1.4702 -1.8714 -0.8391
   57CHL1   C14 6640   5.025   1.064   9.662 -0.4919 -0.2386  0.1762
   57CHL1   H14 6641   4.937   1.132   9.658  0.7940  1.5494  1.1495
   57CHL1   C15 6642   4.993   0.933   9.582  0.1893 -0.5487 -0.0880
   57CHL1  H15A 6643   5.054   0.848   9.620 -0.3838 -2.0171 -2.2541
   57CHL1  H15B 6644   4.888   0.898   9.584  0.8801 -2.7282  0.6087
   57CHL1   C16 6645   5.034   0.958   9.437 -0.9392 -0.1323 -0.6488
   57CHL1  H16A 6646   5.126   0.899   9.416  1.9887  3.9262 -0.5134
   57CHL1  H16B 6647   4.948   0.935   9.371 -1.3331  0.4328 -0.3384
   57CHL1   C17 6648   5.083   1.105   9.435 -0.1474  0.0438  0.0551
   57CHL1   H17 6649   4.999   1.175   9.414 -0.8887 -1.0628 -0.8476
   57CHL1   C13 6650   5.135   1.129   9.578 -0.8948 -0.0368 -0.2361
   57CHL1   C18 6651   5.272   1.051   9.587 -0.3627 -0.1171 -0.7131
   57CHL1  H18A 6652   5.339   1.110   9.521 -2.7942 -0.7124 -3.9700
   57CHL1  H18B 6653   5.324   1.064   9.684  0.0432  0.2342 -0.9722
   57CHL1  H18C 6654   5.273   0.944   9.558  0.4630 -0.2430 -0.2509
   57CHL1   C12 6655   5.142   1.273   9.644 -0.1106  0.5180  0.6105
   57CHL1  H12A 6656   5.221   1.329   9.590 -0.4327 -0.6998 -1.1950
   57CHL1  H12B 6657   5.043   1.322   9.637  0.7200  2.1878  0.1551
   57CHL1   C11 6658   5.165   1.274   9.800 -0.1802  0.4862  0.2838
   57CHL1  H11A 6659   5.270   1.241   9.816 -0.6681 -0.0392  2.9050
   57CHL1  H11B 6660   5.159   1.380   9.833  1.6759  0.7764 -0.2115
   57CHL1    C9 6661   5.070   1.186   9.872  0.5786 -0.3030 -0.1653
   57CHL1    H9 6662   4.975   1.243   9.870  1.0270  0.4586 -0.2973
   57CHL1   C10 6663   5.098   1.171  10.026 -0.6803 -0.3541  0.0057
   57CHL1   C19 6664   5.248   1.124  10.046 -0.7606 -0.8186 -0.2029
   57CHL1  H19A 6665   5.264   1.025  10.000 -0.9509 -0.4438 -1.0812
   57CHL1  H19B 6666   5.324   1.179   9.986 -0.1447 -1.6239 -0.1809
   57CHL1  H19C 6667   5.281   1.123  10.153  0.0387 -0.4554 -0.4386
   57CHL1    C1 6668   5.071   1.312  10.095  0.0996  0.3591  0.0220
   57CHL1   H1A 6669   5.132   1.393  10.050  1.3442 -1.9385 -2.7587
   57CHL1   H1B 6670   4.965   1.336  10.074 -0.5984 -2.0088  0.5694
   57CHL1    C2 6671   5.073   1.314  10.253  0.1678  0.2698  0.1211
   57CHL1   H2A 6672   5.033   1.414  10.281  1.6058  1.0492 -0.4888
   57CHL1   H2B 6673   5.180   1.310  10.283 -0.2356 -2.3006  1.5181
   57CHL1   C20 6674   5.178   1.131   9.312 -0.1683  0.5254  1.0876
   57CHL1   H20 6675   5.275   1.078   9.328 -1.4366 -2.9497 -1.4579
   57CHL1   C21 6676   5.203   1.283   9.298 -0.1006 -0.4430  0.6474
   57CHL1  H21A 6677   5.262   1.331   9.380  1.1590  0.4898 -0.7488
   57CHL1  H21B 6678   5.104   1.328   9.279 -1.2656 -3.2699 -0.5218
   57CHL1  H21C 6679   5.268   1.290   9.208 -0.2925  0.7270  0.5870
   57CHL1   C22 6680   5.121   1.073   9.176 -0.3123  0.1743  0.1046
   57CHL1  H22A 6681   5.098   0.967   9.197 -1.5237  0.7457  1.8644
   57CHL1  H22B 6682   5.023   1.119   9.152 -1.3699 -0.8316  2.3432
   57CHL1   C23 6683   5.217   1.093   9.056 -0.0394 -0.7425  0.3064
   57CHL1  H23A 6684   5.201   1.195   9.015  0.8521 -0.3827  0.8254
   57CHL1  H23B 6685   5.322   1.092   9.093  0.0643  1.4498  0.1514
   57CHL1   C24 6686   5.201   0.988   8.946 -0.4519 -0.4171  0.4578
   57CHL1  H24A 6687   5.218   0.888   8.991  3.1860 -0.1657 -0.0343
   57CHL1  H24B 6688   5.095   1.000   8.918 -0.7723  0.1037  1.8175
   57CHL1   C25 6689   5.284   1.007   8.821  0.5735 -0.0396 -0.3562
   57CHL1   H25 6690   5.391   1.015   8.849  0.3583 -0.3628  0.5802
   57CHL1   C26 6691   5.266   0.880   8.734 -0.2732 -0.8106  0.5183
   57CHL1  H26A 6692   5.320   0.894   8.638  0.2392  0.5810  0.9873
   57CHL1  H26B 6693   5.307   0.798   8.795  1.2536  1.3153  2.5436
   57CHL1  H26C 6694   5.156   0.873   8.716 -0.0467  0.5489 -1.8427
   57CHL1   C27 6695   5.246   1.138   8.746  0.1211  0.4506  0.8507
   57CHL1  H27A 6696   5.138   1.141   8.718  0.2244  0.2286  0.4131
   57CHL1  H27B 6697   5.272   1.227   8.807  0.8479  1.1781 -0.4867
   57CHL1  H27C 6698   5.312   1.140   8.657  1.1367 -1.7949  1.4879
   58CHL1    C3 6699   4.956   6.564  10.066 -0.5707 -0.2409 -0.3416
   58CHL1    H3 6700   4.972   6.458  10.038 -0.7285 -0.2930 -0.2358
   58CHL1    O3 6701   4.953   6.558  10.212  0.1418  0.2638  0.2030
   58CHL1   H3' 6702   4.934   6.650  10.235  2.3930  1.1171 -1.0178
   58CHL1    C4 6703   5.076   6.647  10.030 -0.1758  0.1034 -0.3460
   58CHL1   H4A 6704   5.066   6.747  10.079  2.3014  0.2578 -0.0295
   58CHL1   H4B 6705   5.154   6.587  10.080 -0.5651  1.7087  2.4332
   58CHL1    C5 6706   5.085   6.659   9.882  0.6479  0.0787  0.0905
   58CHL1    C6 6707   5.196   6.621   9.816  0.4191  0.7663 -0.6242
   58CHL1    H6 6708   5.279   6.585   9.878  0.7383  0.0017 -1.4787
   58CHL1    C7 6709   5.226   6.645   9.673  0.0478  0.4417 -0.2221
   58CHL1   H7A 6710   5.312   6.714   9.661 -2.0888  3.6403  1.3418
   58CHL1   H7B 6711   5.233   6.544   9.629  0.0430  0.2174  0.2825
   58CHL1    C8 6712   5.107   6.722   9.602 -0.5032  0.1558 -0.4363
   58CHL1    H8 6713   5.128   6.829   9.622  0.5801  0.3924 -2.6150
   58CHL1   C14 6714   5.106   6.685   9.458 -0.9076 -0.7491 -0.5238
   58CHL1   H14 6715   5.079   6.578   9.444 -0.8688 -0.6761 -1.2053
   58CHL1   C15 6716   5.244   6.699   9.381 -0.0399  0.3525  0.3257
   58CHL1  H15A 6717   5.311   6.774   9.429 -0.3573 -0.4226  2.0602
   58CHL1  H15B 6718   5.291   6.600   9.363 -0.7823  0.4678 -2.7796
   58CHL1   C16 6719   5.191   6.746   9.241  0.3351 -0.0791  0.1100
   58CHL1  H16A 6720   5.216   6.854   9.240 -0.9635  0.2333 -0.9879
   58CHL1  H16B 6721   5.252   6.699   9.161 -0.0261 -1.4310  0.5951
   58CHL1   C17 6722   5.042   6.720   9.235 -0.3198 -0.2610  0.6382
   58CHL1   H17 6723   5.033   6.610   9.219 -0.6487 -0.1677  0.1652
   58CHL1   C13 6724   4.997   6.758   9.378 -0.2731 -0.0213  0.4755
   58CHL1   C18 6725   5.010   6.912   9.395  0.3006  0.1703 -0.4204
   58CHL1  H18A 6726   4.922   6.961   9.348  0.6865  0.5405 -0.7706
   58CHL1  H18B 6727   5.000   6.938   9.502 -0.2853 -0.6876 -0.2512
   58CHL1  H18C 6728   5.104   6.959   9.359  0.7479  1.2306  1.9670
   58CHL1   C12 6729   4.856   6.710   9.432  0.1004  0.1282  0.2009
   58CHL1  H12A 6730   4.776   6.768   9.383  0.2175 -0.0589 -0.2168
   58CHL1  H12B 6731   4.844   6.602   9.410  0.9656  0.1349 -0.3932
   58CHL1   C11 6732   4.855   6.735   9.581  0.6648 -0.0597 -0.4433
   58CHL1  H11A 6733   4.840   6.844   9.593  0.2971 -0.0508 -0.9653
   58CHL1  H11B 6734   4.758   6.697   9.619  0.8766 -0.7553 -0.5862
   58CHL1    C9 6735   4.973   6.677   9.660  0.4172  0.4973  0.3753
   58CHL1    H9 6736   4.969   6.566   9.647 -0.4507  0.3932  1.3238
   58CHL1   C10 6737   4.959   6.706   9.812 -0.0333  0.8215 -0.1108
   58CHL1   C19 6738   4.946   6.853   9.837 -0.0852  0.3291 -0.3315
   58CHL1  H19A 6739   4.846   6.888   9.806  1.2021  3.0854 -1.7038
   58CHL1  H19B 6740   4.946   6.873   9.946  0.1474 -2.7703  0.3261
   58CHL1  H19C 6741   5.025   6.912   9.785  0.1424  0.9646  0.7108
   58CHL1    C1 6742   4.834   6.625   9.858  0.2942 -0.5050  0.1178
   58CHL1   H1A 6743   4.746   6.680   9.816 -0.1910 -2.2231 -1.2227
   58CHL1   H1B 6744   4.845   6.521   9.822  3.5317 -0.4902  0.7420
   58CHL1    C2 6745   4.821   6.630  10.011 -0.2780 -0.1160  0.1338
   58CHL1   H2A 6746   4.732   6.568  10.039  0.4565 -0.4815  1.7954
   58CHL1   H2B 6747   4.808   6.732  10.053 -2.4841  0.8387 -2.5463
   58CHL1   C20 6748   4.973   6.779   9.112  0.5330  0.4370  0.6626
   58CHL1   H20 6749   4.979   6.890   9.107  1.1570  0.3586 -0.8356
   58CHL1   C21 6750   4.819   6.751   9.111  0.5108  0.3379  0.1518
   58CHL1  H21A 6751   4.789   6.647   9.135 -2.1403  0.8789 -0.5390
   58CHL1  H21B 6752   4.774   6.769   9.011 -1.5279 -0.3795  0.8832
   58CHL1  H21C 6753   4.757   6.810   9.182 -1.1796 -1.2660  0.0666
   58CHL1   C22 6754   5.030   6.730   8.974 -0.2917 -0.2921  0.0743
   58CHL1  H22A 6755   4.968   6.771   8.891 -0.7335 -2.0580 -0.4974
   58CHL1  H22B 6756   5.132   6.765   8.948 -0.7753  0.6465 -0.6495
   58CHL1   C23 6757   5.028   6.583   8.952  0.8464 -0.9090 -0.3184
   58CHL1  H23A 6758   5.105   6.539   9.019  0.7680 -1.3061 -0.4897
   58CHL1  H23B 6759   4.936   6.534   8.990 -0.2518 -0.2770 -2.0802
   58CHL1   C24 6760   5.061   6.542   8.806 -0.2811 -0.1621 -0.8515
   58CHL1  H24A 6761   4.990   6.579   8.729  0.0188  1.4764 -0.3885
   58CHL1  H24B 6762   5.163   6.585   8.796 -0.0017  0.8170  3.9713
   58CHL1   C25 6763   5.078   6.389   8.793  0.2897  0.0519  0.1689
   58CHL1   H25 6764   5.096   6.375   8.684  0.3646  3.1687 -0.3117
   58CHL1   C26 6765   5.204   6.341   8.866 -0.3858 -0.1514 -1.0886
   58CHL1  H26A 6766   5.285   6.412   8.839 -3.4202  3.2825 -1.9120
   58CHL1  H26B 6767   5.190   6.344   8.977 -3.1703 -1.9015 -1.2974
   58CHL1  H26C 6768   5.231   6.239   8.829  0.2738 -0.6995  0.7756
   58CHL1   C27 6769   4.950   6.317   8.824  0.9578 -0.6052  0.5406
   58CHL1  H27A 6770   4.958   6.209   8.800 -1.0209  0.0040 -3.7973
   58CHL1  H27B 6771   4.921   6.320   8.932 -0.6253 -1.3003  0.1669
   58CHL1  H27C 6772   4.864   6.361   8.769  0.9938 -1.5112 -0.2655
   59CHL1    C3 6773   6.253   6.783  10.278  0.3479 -0.4135  0.7024
   59CHL1    H3 6774   6.335   6.711  10.296 -0.0967 -1.4438 -1.2099
   59CHL1    O3 6775   6.228   6.850  10.399 -0.4796 -0.2850 -0.3805
   59CHL1   H3' 6776   6.310   6.897  10.411 -1.1234  0.7092  0.3627
   59CHL1    C4 6777   6.293   6.893  10.171 -0.2936  0.6366 -0.4604
   59CHL1   H4A 6778   6.221   6.976  10.183 -2.2474 -0.8992 -1.0350
   59CHL1   H4B 6779   6.391   6.933  10.205  0.4778 -1.3689 -0.1832
   59CHL1    C5 6780   6.304   6.835  10.037  0.6362 -0.7016  0.3093
   59CHL1    C6 6781   6.420   6.839   9.964 -0.6455 -1.1285 -1.1091
   59CHL1    H6 6782   6.503   6.887  10.018 -3.1007  1.2336  0.8689
   59CHL1    C7 6783   6.430   6.798   9.819  0.8640 -0.0895  0.3713
   59CHL1   H7A 6784   6.491   6.875   9.766 -1.0735  2.1433  1.1814
   59CHL1   H7B 6785   6.463   6.692   9.814  2.2267  0.3647 -1.0207
   59CHL1    C8 6786   6.287   6.797   9.759  0.3378  0.5957  0.0344
   59CHL1    H8 6787   6.249   6.901   9.752  1.2453  0.9062 -0.3857
   59CHL1   C14 6788   6.298   6.745   9.613  0.8824 -0.9044 -0.7379
   59CHL1   H14 6789   6.352   6.650   9.630  0.8775 -0.5766  1.4152
   59CHL1   C15 6790   6.387   6.825   9.518 -0.4047 -0.5733  0.5370
   59CHL1  H15A 6791   6.367   6.933   9.533  0.3310 -0.5205  1.2384
   59CHL1  H15B 6792   6.496   6.821   9.543  0.1056  1.6935 -1.0441
   59CHL1   C16 6793   6.346   6.782   9.378 -0.3802  0.4030 -0.1307
   59CHL1  H16A 6794   6.301   6.869   9.325  1.5894 -0.4753 -3.5262
   59CHL1  H16B 6795   6.429   6.739   9.317 -0.5771 -0.1008 -0.0444
   59CHL1   C17 6796   6.223   6.685   9.397 -0.5545 -0.0643  0.0508
   59CHL1   H17 6797   6.268   6.585   9.413 -1.2585 -0.3426  0.3438
   59CHL1   C13 6798   6.170   6.728   9.539 -0.8519  0.6084 -0.1332
   59CHL1   C18 6799   6.090   6.857   9.541 -0.6862  0.7297  0.1483
   59CHL1  H18A 6800   6.071   6.907   9.638 -0.5297 -0.3211  0.7369
   59CHL1  H18B 6801   6.131   6.932   9.470  0.8983  0.1220  0.3701
   59CHL1  H18C 6802   5.993   6.826   9.497 -0.5724 -0.3852  0.6484
   59CHL1   C12 6803   6.086   6.619   9.616 -0.4878  0.2352 -0.6722
   59CHL1  H12A 6804   5.982   6.623   9.576 -0.6646  0.8657 -0.1562
   59CHL1  H12B 6805   6.128   6.516   9.609  0.2443  0.4485  0.4828
   59CHL1   C11 6806   6.066   6.660   9.768  0.4144  0.6110 -0.1164
   59CHL1  H11A 6807   6.007   6.755   9.763 -1.2922 -0.4518 -1.2706
   59CHL1  H11B 6808   6.018   6.576   9.822 -1.3233  2.1128  0.7941
   59CHL1    C9 6809   6.193   6.703   9.844 -0.3887 -0.8465  0.5990
   59CHL1    H9 6810   6.254   6.612   9.860 -0.2198 -0.6218  1.2374
   59CHL1   C10 6811   6.170   6.773   9.979 -0.1063  0.5926  0.1301
   59CHL1   C19 6812   6.067   6.892   9.964 -0.0146  0.5590  0.0176
   59CHL1  H19A 6813   6.092   6.945   9.870  2.0679  0.3551  0.4215
   59CHL1  H19B 6814   5.975   6.831   9.952  1.4847 -1.2376 -4.0481
   59CHL1  H19C 6815   6.063   6.959  10.052 -1.1065 -1.5445  1.6681
   59CHL1    C1 6816   6.115   6.668  10.094  0.4564 -0.1650  0.5215
   59CHL1   H1A 6817   6.014   6.644  10.054  0.3520  1.0487  0.0129
   59CHL1   H1B 6818   6.177   6.576  10.095  0.3159 -0.2919 -0.8206
   59CHL1    C2 6819   6.116   6.720  10.234 -0.4318  0.0918  0.0403
   59CHL1   H2A 6820   6.079   6.651  10.313 -1.1046  1.8555  1.3524
   59CHL1   H2B 6821   6.036   6.798  10.242 -0.6765 -0.1917  0.4151
   59CHL1   C20 6822   6.125   6.678   9.283 -0.4686 -0.0077  0.1433
   59CHL1   H20 6823   6.053   6.763   9.280  0.4718  0.7643 -1.1674
   59CHL1   C21 6824   6.054   6.547   9.290 -0.0233  0.0304  0.0737
   59CHL1  H21A 6825   5.992   6.515   9.203  0.5019 -0.7938 -0.0149
   59CHL1  H21B 6826   5.997   6.552   9.384  1.4580  0.6428  0.9785
   59CHL1  H21C 6827   6.125   6.464   9.310 -0.5155 -0.3681  0.1821
   59CHL1   C22 6828   6.198   6.682   9.151 -0.5461 -0.2604 -0.3918
   59CHL1  H22A 6829   6.262   6.772   9.140  0.4594 -0.9711 -0.4793
   59CHL1  H22B 6830   6.274   6.602   9.135  0.4648  0.5157  0.3972
   59CHL1   C23 6831   6.105   6.660   9.032 -0.8611  0.2057  0.6013
   59CHL1  H23A 6832   6.085   6.552   9.013  3.8451 -0.3849 -2.5614
   59CHL1  H23B 6833   6.011   6.716   9.050  0.4553  2.1810  1.7971
   59CHL1   C24 6834   6.152   6.725   8.903 -0.4210 -0.3987 -0.4994
   59CHL1  H24A 6835   6.154   6.836   8.898  3.2187 -0.3163 -0.4599
   59CHL1  H24B 6836   6.254   6.686   8.881 -0.9602 -0.1734 -3.9759
   59CHL1   C25 6837   6.076   6.678   8.774  0.4971  0.4706 -0.0152
   59CHL1   H25 6838   6.053   6.571   8.794  0.3344  0.3755 -0.6755
   59CHL1   C26 6839   5.945   6.744   8.740 -0.6615 -0.0846 -0.3947
   59CHL1  H26A 6840   5.951   6.854   8.753  0.1471 -0.0775 -0.7582
   59CHL1  H26B 6841   5.915   6.718   8.637 -3.1663  0.8823  0.0317
   59CHL1  H26C 6842   5.868   6.695   8.803  0.2578 -1.5498 -0.3580
   59CHL1   C27 6843   6.170   6.683   8.655  0.1496  0.5382 -0.0872
   59CHL1  H27A 6844   6.182   6.786   8.614 -2.5127  0.2462 -1.8623
   59CHL1  H27B 6845   6.265   6.631   8.680 -0.7617 -2.3899 -2.2271
   59CHL1  H27C 6846   6.136   6.616   8.573  1.9425  0.7368 -1.0403
   60CHL1    C3 6847   0.501   5.027  10.108 -0.3687  0.0589  0.6032
   60CHL1    H3 6848   0.594   5.033  10.048  1.7370  0.1400  3.6596
   60CHL1    O3 6849   0.539   4.987  10.240  0.2850  0.4598  0.1627
   60CHL1   H3' 6850   0.463   4.937  10.271  0.9563 -1.4236 -1.0460
   60CHL1    C4 6851   0.437   5.165  10.109  0.9455  0.3725  0.2303
   60CHL1   H4A 6852   0.349   5.165  10.177 -0.6892  0.0705 -1.7897
   60CHL1   H4B 6853   0.510   5.236  10.153  0.2776  0.5213  1.1263
   60CHL1    C5 6854   0.405   5.220   9.974 -0.6004 -0.6119  0.6492
   60CHL1    C6 6855   0.464   5.329   9.926 -0.1557  0.6127 -0.5966
   60CHL1    H6 6856   0.545   5.373   9.987  1.6381 -3.2056  0.0362
   60CHL1    C7 6857   0.436   5.386   9.792  0.2601 -0.0719  0.7569
   60CHL1   H7A 6858   0.399   5.490   9.805  0.1076  0.0701 -0.7110
   60CHL1   H7B 6859   0.528   5.391   9.730 -1.2997 -0.3101 -1.6930
   60CHL1    C8 6860   0.325   5.313   9.716 -0.3285 -0.2709  0.1398
   60CHL1    H8 6861   0.233   5.351   9.765  0.1566 -0.6883  1.4201
   60CHL1   C14 6862   0.328   5.346   9.567  0.2367 -0.4063  0.2255
   60CHL1   H14 6863   0.428   5.310   9.534  1.4273  2.6938  0.1248
   60CHL1   C15 6864   0.331   5.499   9.526 -0.3899 -0.2651 -0.3012
   60CHL1  H15A 6865   0.246   5.557   9.568  0.4826 -0.1220  1.3134
   60CHL1  H15B 6866   0.429   5.536   9.560 -0.1131 -1.5537  0.3700
   60CHL1   C16 6867   0.313   5.488   9.374  0.2392  0.1051 -0.2412
   60CHL1  H16A 6868   0.235   5.559   9.338  0.2154 -0.1590 -0.7287
   60CHL1  H16B 6869   0.409   5.501   9.319  1.2284 -2.2268  0.8014
   60CHL1   C17 6870   0.258   5.339   9.353 -0.3090  0.7129  0.5955
   60CHL1   H17 6871   0.338   5.278   9.305 -3.8518 -1.8707 -2.6839
   60CHL1   C13 6872   0.218   5.279   9.486  0.3660  0.4050 -0.6118
   60CHL1   C18 6873   0.074   5.329   9.526 -0.3822  0.1566  0.1182
   60CHL1  H18A 6874  -0.009   5.271   9.479  0.3283  0.8750 -2.1313
   60CHL1  H18B 6875   0.061   5.323   9.637 -2.2651  0.7829 -0.0259
   60CHL1  H18C 6876   0.053   5.433   9.496 -4.8359 -0.1008  1.6134
   60CHL1   C12 6877   0.237   5.129   9.502  0.3191  0.3849 -0.0459
   60CHL1  H12A 6878   0.166   5.057   9.457 -0.8925  1.4144  0.1853
   60CHL1  H12B 6879   0.342   5.109   9.472  1.2630  3.7764  0.5452
   60CHL1   C11 6880   0.230   5.083   9.651 -0.1244  0.0634  0.2366
   60CHL1  H11A 6881   0.131   5.113   9.690  0.3390  0.9179  0.8101
   60CHL1  H11B 6882   0.250   4.974   9.658 -2.1057 -0.6472 -2.9668
   60CHL1    C9 6883   0.333   5.160   9.738 -0.8767  0.6053  0.0604
   60CHL1    H9 6884   0.436   5.136   9.705 -0.9986  0.4972 -0.2483
   60CHL1   C10 6885   0.315   5.124   9.889 -0.5825  0.0885 -0.4504
   60CHL1   C19 6886   0.176   5.146   9.955  0.3229 -0.1020  0.0114
   60CHL1  H19A 6887   0.182   5.106  10.058  0.7586 -0.6380 -0.2158
   60CHL1  H19B 6888   0.139   5.251   9.959  0.1874 -0.1597  0.2229
   60CHL1  H19C 6889   0.100   5.081   9.908  0.6943  1.7523 -3.5435
   60CHL1    C1 6890   0.368   4.979   9.904 -0.0485  0.4648  0.0970
   60CHL1   H1A 6891   0.291   4.902   9.880  1.9115 -1.6922  0.3407
   60CHL1   H1B 6892   0.448   4.947   9.835 -1.5959 -0.9987 -1.1317
   60CHL1    C2 6893   0.401   4.927  10.045 -0.4553 -0.1566  0.3118
   60CHL1   H2A 6894   0.458   4.832  10.043  0.5507  0.4453 -0.0783
   60CHL1   H2B 6895   0.310   4.936  10.108 -0.8613 -1.5891 -0.0389
   60CHL1   C20 6896   0.153   5.327   9.233  0.3191 -0.4171 -0.1718
   60CHL1   H20 6897   0.061   5.366   9.281  2.0494  2.2362  1.2100
   60CHL1   C21 6898   0.127   5.184   9.194  0.2642 -0.1002 -0.2352
   60CHL1  H21A 6899   0.098   5.125   9.283 -0.3502  0.5311 -0.0030
   60CHL1  H21B 6900   0.221   5.153   9.144  0.7186  1.9157 -0.7211
   60CHL1  H21C 6901   0.038   5.184   9.127 -0.6541  1.9308  0.8795
   60CHL1   C22 6902   0.187   5.414   9.111 -0.3562  0.0855  0.5413
   60CHL1  H22A 6903   0.194   5.522   9.135 -0.2522  0.7038 -1.9798
   60CHL1  H22B 6904   0.288   5.378   9.082 -0.4302 -0.3649  0.8361
   60CHL1   C23 6905   0.094   5.415   8.993  0.2458  0.7683  0.0061
   60CHL1  H23A 6906   0.073   5.312   8.957 -0.6702  1.7495 -2.5010
   60CHL1  H23B 6907  -0.007   5.454   9.015 -0.5204 -0.7443 -0.7104
   60CHL1   C24 6908   0.156   5.505   8.883  0.2900  0.1909  0.4982
   60CHL1  H24A 6909   0.157   5.612   8.913 -0.3002  0.0371  1.0971
   60CHL1  H24B 6910   0.264   5.492   8.861 -0.0636  1.0008 -2.1471
   60CHL1   C25 6911   0.083   5.507   8.744 -0.2529 -0.2368  0.5985
   60CHL1   H25 6912  -0.014   5.563   8.751  2.0176  4.1921  0.4762
   60CHL1   C26 6913   0.169   5.583   8.637  0.4415  0.2855  0.0876
   60CHL1  H26A 6914   0.118   5.580   8.539  1.1162  1.5271 -0.3273
   60CHL1  H26B 6915   0.184   5.690   8.664  1.5920  0.1574  0.0359
   60CHL1  H26C 6916   0.271   5.539   8.623  0.4810 -0.6237  2.7122
   60CHL1   C27 6917   0.052   5.371   8.679 -0.7174 -0.3884 -0.2257
   60CHL1  H27A 6918  -0.025   5.324   8.745 -0.8277 -0.7042 -0.5761
   60CHL1  H27B 6919   0.014   5.385   8.576  0.8701  1.3054 -0.6313
   60CHL1  H27C 6920   0.140   5.304   8.673 -1.5561 -1.4356 -1.1509
   61CHL1    C3 6921   3.953   4.839  10.304 -0.5338 -0.1541  0.4360
   61CHL1    H3 6922   3.911   4.741  10.272 -0.6919  1.0038 -3.4268
   61CHL1    O3 6923   3.990   4.824  10.440  0.6579 -0.7105 -0.0293
   61CHL1   H3' 6924   4.025   4.908  10.472 -0.9281  0.4176 -1.0984
   61CHL1    C4 6925   4.075   4.879  10.220  0.1089  0.2361 -0.0722
   61CHL1   H4A 6926   4.119   4.972  10.264  0.9581 -0.3699  0.3851
   61CHL1   H4B 6927   4.153   4.802  10.238 -0.9353 -0.6619  0.7042
   61CHL1    C5 6928   4.035   4.890  10.076 -0.5258  0.1298 -0.7995
   61CHL1    C6 6929   4.075   4.807   9.976  0.5180  0.5815 -0.6341
   61CHL1    H6 6930   4.140   4.722  10.001 -0.3413  0.5952  1.9392
   61CHL1    C7 6931   4.032   4.812   9.830 -0.3141  0.2342 -0.3026
   61CHL1   H7A 6932   4.119   4.799   9.763  0.8623 -0.8115  1.3504
   61CHL1   H7B 6933   3.961   4.728   9.816 -0.0014 -0.4758  1.9568
   61CHL1    C8 6934   3.984   4.960   9.794 -0.2779 -0.3236  0.1466
   61CHL1    H8 6935   4.073   5.026   9.789  0.4202 -1.1145  1.4829
   61CHL1   C14 6936   3.915   4.959   9.659 -1.1000  0.7308 -0.2201
   61CHL1   H14 6937   3.832   4.890   9.685  1.2964 -1.8589  1.1232
   61CHL1   C15 6938   3.980   4.883   9.541 -0.5915 -0.0012 -0.3792
   61CHL1  H15A 6939   4.089   4.906   9.539  0.1325 -3.0010  0.4079
   61CHL1  H15B 6940   3.981   4.772   9.543  1.2252 -0.0173 -0.3321
   61CHL1   C16 6941   3.900   4.933   9.420 -0.1054 -0.3728 -0.6678
   61CHL1  H16A 6942   3.969   4.975   9.344  0.6014 -0.1974  0.0571
   61CHL1  H16B 6943   3.835   4.847   9.394 -0.2201 -0.9179  1.2571
   61CHL1   C17 6944   3.809   5.050   9.473  0.3293  0.5895  0.6358
   61CHL1   H17 6945   3.718   4.990   9.496  1.1745 -1.0757 -0.1409
   61CHL1   C13 6946   3.865   5.093   9.612 -0.1310 -0.2002  0.4848
   61CHL1   C18 6947   3.975   5.193   9.590 -0.1554 -0.2492  0.5503
   61CHL1  H18A 6948   4.028   5.219   9.684  0.1168 -0.8463  0.5689
   61CHL1  H18B 6949   4.042   5.131   9.526  0.2541  0.6927  0.0476
   61CHL1  H18C 6950   3.939   5.277   9.527 -0.7072 -0.2148  0.9093
   61CHL1   C12 6951   3.762   5.145   9.714 -0.4952  0.3955 -0.1409
   61CHL1  H12A 6952   3.725   5.246   9.686  0.9366  1.8116  2.6983
   61CHL1  H12B 6953   3.673   5.078   9.710 -0.3918  0.2167  0.4705
   61CHL1   C11 6954   3.816   5.148   9.861  0.4397  0.0161 -0.5305
   61CHL1  H11A 6955   3.878   5.240   9.872 -0.2030  0.7722 -2.8675
   61CHL1  H11B 6956   3.726   5.157   9.926 -0.4794 -0.6351 -1.6910
   61CHL1    C9 6957   3.888   5.014   9.905  0.5323  0.5658 -0.0935
   61CHL1    H9 6958   3.811   4.935   9.897  1.4475 -0.2197 -1.7334
   61CHL1   C10 6959   3.930   5.009  10.056 -0.3065  0.6706 -0.0996
   61CHL1   C19 6960   3.983   5.147  10.084  0.2613 -0.6402 -0.2773
   61CHL1  H19A 6961   3.905   5.223  10.106  0.8405 -0.1738  0.2309
   61CHL1  H19B 6962   4.045   5.153  10.177  0.2861 -1.4870 -0.2333
   61CHL1  H19C 6963   4.047   5.180   9.999  0.6670  0.2333  0.3498
   61CHL1    C1 6964   3.811   4.975  10.152  0.0042 -0.4469  0.2363
   61CHL1   H1A 6965   3.733   5.052  10.139  0.5903  0.1493  0.1726
   61CHL1   H1B 6966   3.776   4.872  10.130 -1.1052 -0.0559  0.1512
   61CHL1    C2 6967   3.849   4.956  10.293  0.3189  0.3159 -0.7341
   61CHL1   H2A 6968   3.760   4.938  10.357 -0.1332  0.5689 -1.2858
   61CHL1   H2B 6969   3.902   5.045  10.333 -0.6696  0.0078  1.3756
   61CHL1   C20 6970   3.770   5.154   9.367  0.2388 -0.5334  0.4599
   61CHL1   H20 6971   3.853   5.216   9.325 -1.1448  2.1159  1.3751
   61CHL1   C21 6972   3.659   5.243   9.413  0.1470  0.2322 -0.5010
   61CHL1  H21A 6973   3.619   5.312   9.336 -0.2573 -0.6639 -1.1176
   61CHL1  H21B 6974   3.690   5.294   9.507  1.3749 -1.6153  0.1556
   61CHL1  H21C 6975   3.572   5.180   9.442  0.4783  0.0761  0.1668
   61CHL1   C22 6976   3.703   5.084   9.248 -0.0622 -0.4281  0.4112
   61CHL1  H22A 6977   3.775   5.008   9.212  0.0682 -0.6751  1.1787
   61CHL1  H22B 6978   3.609   5.031   9.276 -0.4888  0.4019  0.5791
   61CHL1   C23 6979   3.682   5.172   9.120 -0.5577  0.6102 -0.6644
   61CHL1  H23A 6980   3.593   5.239   9.123 -0.9724  0.1185 -1.6651
   61CHL1  H23B 6981   3.773   5.236   9.119 -1.6959  2.3182 -1.0246
   61CHL1   C24 6982   3.663   5.100   8.979 -0.8219 -0.0934  0.4010
   61CHL1  H24A 6983   3.637   5.170   8.897  1.4145  1.3887  0.8616
   61CHL1  H24B 6984   3.762   5.055   8.955 -1.1941 -0.1513 -1.1223
   61CHL1   C25 6985   3.554   4.990   8.977 -0.1580  1.4081 -0.0297
   61CHL1   H25 6986   3.593   4.896   9.020 -0.4029 -1.2660 -4.9553
   61CHL1   C26 6987   3.427   5.027   9.054 -0.2435  0.2782 -0.0360
   61CHL1  H26A 6988   3.440   5.006   9.162  0.7890  2.8315  0.4165
   61CHL1  H26B 6989   3.412   5.136   9.038  3.1782  0.9775  0.6847
   61CHL1  H26C 6990   3.346   4.958   9.024 -0.2724  0.7658 -1.1403
   61CHL1   C27 6991   3.518   4.948   8.832  0.3847  0.4406 -0.2797
   61CHL1  H27A 6992   3.459   4.854   8.833  4.2205 -2.2389 -0.7542
   61CHL1  H27B 6993   3.459   5.032   8.790  0.0674  0.2319 -0.2533
   61CHL1  H27C 6994   3.608   4.942   8.767 -0.5760 -1.0156 -1.5495
   62CHL1    C3 6995   4.446   0.961  10.095 -0.2388 -0.2630 -0.2100
   62CHL1    H3 6996   4.374   1.044  10.081  1.6275  1.1900 -1.8953
   62CHL1    O3 6997   4.479   0.991  10.231 -0.0062 -0.2320  0.4078
   62CHL1   H3' 6998   4.450   1.081  10.244  1.5376  0.5421 -1.0664
   62CHL1    C4 6999   4.380   0.821  10.090  0.2339 -0.1517 -0.1038
   62CHL1   H4A 7000   4.455   0.746  10.125  0.6401 -0.7060 -2.0485
   62CHL1   H4B 7001   4.292   0.811  10.158  0.1073  2.6777  0.2661
   62CHL1    C5 7002   4.337   0.787   9.951 -0.3993  0.3420 -0.1685
   62CHL1    C6 7003   4.211   0.761   9.928  0.2368  0.0259 -0.1187
   62CHL1    H6 7004   4.133   0.758  10.005 -2.2019  0.0963 -2.4289
   62CHL1    C7 7005   4.158   0.724   9.790 -0.3597 -0.6856  0.6304
   62CHL1   H7A 7006   4.096   0.631   9.789 -2.0920  0.4226 -0.4634
   62CHL1   H7B 7007   4.090   0.799   9.745  0.7225  0.9315  1.6188
   62CHL1    C8 7008   4.268   0.724   9.681 -0.5674  0.3183  0.0069
   62CHL1    H8 7009   4.318   0.625   9.684 -0.9628  0.0692 -1.2564
   62CHL1   C14 7010   4.215   0.731   9.545  0.1603  0.5520 -0.2319
   62CHL1   H14 7011   4.162   0.829   9.541 -0.0649  0.5531  1.5755
   62CHL1   C15 7012   4.107   0.622   9.498  0.9495  0.0356 -0.1131
   62CHL1  H15A 7013   4.145   0.528   9.543  0.2282 -0.2752 -0.1369
   62CHL1  H15B 7014   4.007   0.652   9.537  0.9360 -0.3326  0.1358
   62CHL1   C16 7015   4.106   0.634   9.349 -0.0656 -0.3379  0.8737
   62CHL1  H16A 7016   4.111   0.534   9.301  0.1450 -0.1919  0.5839
   62CHL1  H16B 7017   4.012   0.681   9.311  1.8306  2.1521 -1.1597
   62CHL1   C17 7018   4.219   0.736   9.309  0.3569  0.4718  0.5027
   62CHL1   H17 7019   4.171   0.836   9.314 -1.7064 -0.4596  0.1935
   62CHL1   C13 7020   4.320   0.729   9.426  0.4384 -0.4091  0.5373
   62CHL1   C18 7021   4.388   0.590   9.430  0.6562 -0.0212  0.6432
   62CHL1  H18A 7022   4.439   0.577   9.528  0.7014  2.3717  0.9923
   62CHL1  H18B 7023   4.314   0.508   9.441 -1.2087  1.3217 -1.1106
   62CHL1  H18C 7024   4.465   0.585   9.351  2.7285  1.2264  2.4612
   62CHL1   C12 7025   4.410   0.852   9.448  0.3037  0.0013  0.4439
   62CHL1  H12A 7026   4.492   0.852   9.374  2.3102 -3.4187  2.4054
   62CHL1  H12B 7027   4.351   0.946   9.438  3.3135  2.2774  2.4070
   62CHL1   C11 7028   4.481   0.839   9.586  0.2049 -0.2864 -0.3443
   62CHL1  H11A 7029   4.551   0.754   9.570  1.9684  0.7544  1.4321
   62CHL1  H11B 7030   4.550   0.925   9.592 -3.3936  2.9158 -0.6319
   62CHL1    C9 7031   4.382   0.826   9.702  0.1999 -0.3007 -0.8410
   62CHL1    H9 7032   4.331   0.925   9.709  1.8494  0.4686  1.0667
   62CHL1   C10 7033   4.449   0.814   9.845 -0.6228 -0.9189 -0.4742
   62CHL1   C19 7034   4.551   0.695   9.844  0.3571 -0.1738  0.0860
   62CHL1  H19A 7035   4.515   0.604   9.791  0.4673  0.1969 -0.6358
   62CHL1  H19B 7036   4.646   0.723   9.795  1.0063 -0.7477  0.9887
   62CHL1  H19C 7037   4.591   0.668   9.944 -3.5383  0.1800  1.9431
   62CHL1    C1 7038   4.537   0.947   9.865  0.4547  0.4507 -0.6770
   62CHL1   H1A 7039   4.624   0.951   9.797  0.7848 -0.6337 -0.3469
   62CHL1   H1B 7040   4.481   1.033   9.822 -0.0386 -0.1688 -1.2980
   62CHL1    C2 7041   4.574   0.972  10.010  0.1571  0.3345 -0.0083
   62CHL1   H2A 7042   4.612   1.076  10.019  1.3778 -0.0584 -0.4117
   62CHL1   H2B 7043   4.649   0.902  10.053  0.3003 -0.1383 -0.9912
   62CHL1   C20 7044   4.267   0.715   9.162  0.1709 -1.1789  0.1769
   62CHL1   H20 7045   4.378   0.709   9.165  0.2818  0.2655 -0.4666
   62CHL1   C21 7046   4.237   0.841   9.078  0.3240  0.1015  0.3096
   62CHL1  H21A 7047   4.126   0.841   9.066  0.4079 -1.4131 -0.7762
   62CHL1  H21B 7048   4.300   0.844   8.987  0.0787  0.7331  0.1550
   62CHL1  H21C 7049   4.271   0.934   9.129 -1.9412  0.3581  1.5152
   62CHL1   C22 7050   4.228   0.584   9.089  0.5971  0.1617  0.3947
   62CHL1  H22A 7051   4.260   0.500   9.155  1.0878  0.9169  1.1291
   62CHL1  H22B 7052   4.118   0.576   9.072  0.6528  0.6651 -0.2266
   62CHL1   C23 7053   4.293   0.552   8.949 -0.6499 -0.3528 -0.4330
   62CHL1  H23A 7054   4.247   0.618   8.872 -0.9711 -2.1914 -1.8763
   62CHL1  H23B 7055   4.399   0.587   8.947 -1.2314  1.5202 -0.5928
   62CHL1   C24 7056   4.267   0.408   8.909 -0.1387  0.1697 -0.2345
   62CHL1  H24A 7057   4.314   0.334   8.977 -0.5600  2.1298  2.3313
   62CHL1  H24B 7058   4.159   0.383   8.909  0.3587 -2.3052 -0.3519
   62CHL1   C25 7059   4.330   0.380   8.771 -0.3777  0.0652  0.4147
   62CHL1   H25 7060   4.292   0.462   8.707  1.6186  2.1445  1.7387
   62CHL1   C26 7061   4.483   0.391   8.757 -0.2818 -0.1280  0.2430
   62CHL1  H26A 7062   4.519   0.380   8.652 -0.6670 -1.0312  0.1971
   62CHL1  H26B 7063   4.517   0.491   8.790 -0.4858 -0.5308  1.7369
   62CHL1  H26C 7064   4.535   0.311   8.815  1.6831 -0.8556 -2.3404
   62CHL1   C27 7065   4.291   0.236   8.728  0.5759  0.3962 -0.2743
   62CHL1  H27A 7066   4.345   0.156   8.783  3.6068  0.8522 -2.3774
   62CHL1  H27B 7067   4.182   0.220   8.742  0.6377  0.1595 -0.0465
   62CHL1  H27C 7068   4.319   0.216   8.623 -2.8497 -1.8976 -0.9156
   63CHL1    C3 7069   5.679   2.927  10.420  0.0316 -1.0413  0.3485
   63CHL1    H3 7070   5.571   2.948  10.408  0.0322  0.3564  2.3995
   63CHL1    O3 7071   5.725   2.932  10.556  0.7781  0.0604  0.0794
   63CHL1   H3' 7072   5.816   2.902  10.553  0.1979 -1.8063 -1.3789
   63CHL1    C4 7073   5.701   2.785  10.368  0.5634 -0.3116  0.7077
   63CHL1   H4A 7074   5.798   2.748  10.409  0.4066 -0.8513  0.6033
   63CHL1   H4B 7075   5.621   2.731  10.422 -3.6635  1.9907 -2.6877
   63CHL1    C5 7076   5.693   2.764  10.217  0.6726 -0.6996 -0.0435
   63CHL1    C6 7077   5.627   2.665  10.159 -0.3257  0.0714 -0.5268
   63CHL1    H6 7078   5.574   2.589  10.219  0.6017 -1.6347 -1.7807
   63CHL1    C7 7079   5.617   2.647  10.012  0.1695  0.9152  0.1576
   63CHL1   H7A 7080   5.644   2.542   9.988 -0.8175  0.7242 -0.1446
   63CHL1   H7B 7081   5.515   2.669   9.975  0.3415  1.6246  0.1004
   63CHL1    C8 7082   5.712   2.731   9.931 -0.4483 -0.7922  0.4951
   63CHL1    H8 7083   5.806   2.675   9.944 -1.0886 -1.5530  2.2488
   63CHL1   C14 7084   5.668   2.737   9.783 -0.3656  0.0951 -0.4966
   63CHL1   H14 7085   5.572   2.793   9.783 -0.0896  0.6004 -1.7496
   63CHL1   C15 7086   5.646   2.606   9.721  0.9686  0.6394  0.3203
   63CHL1  H15A 7087   5.714   2.529   9.764  1.8005  2.2477  2.0071
   63CHL1  H15B 7088   5.543   2.566   9.734  1.2470  0.1630  1.1516
   63CHL1   C16 7089   5.661   2.636   9.572 -0.6255  0.0842  0.0384
   63CHL1  H16A 7090   5.737   2.565   9.532  0.2471  1.5617 -1.0189
   63CHL1  H16B 7091   5.562   2.620   9.524  0.1969  1.3827 -2.2086
   63CHL1   C17 7092   5.688   2.791   9.567 -0.5521  0.4514  0.7568
   63CHL1   H17 7093   5.587   2.838   9.570 -0.2344  1.3262 -0.8643
   63CHL1   C13 7094   5.759   2.824   9.702  0.1622  0.2796  0.0181
   63CHL1   C18 7095   5.906   2.763   9.700  0.7977  0.1172 -0.0897
   63CHL1  H18A 7096   5.973   2.816   9.629 -0.3395 -0.0634 -1.3460
   63CHL1  H18B 7097   5.949   2.766   9.802  0.9978 -1.9377 -0.0735
   63CHL1  H18C 7098   5.903   2.654   9.675 -1.1722  0.3072 -0.8820
   63CHL1   C12 7099   5.746   2.965   9.752  0.5748 -0.6150  0.2182
   63CHL1  H12A 7100   5.810   3.034   9.693 -1.1463  2.2608  1.5158
   63CHL1  H12B 7101   5.641   3.000   9.738  0.2528 -1.8050 -0.4685
   63CHL1   C11 7102   5.788   2.973   9.898  0.1017 -0.6705  1.8147
   63CHL1  H11A 7103   5.897   2.952   9.889  0.0653  0.0190 -1.3859
   63CHL1  H11B 7104   5.766   3.076   9.932 -0.4513  0.5084 -1.6617
   63CHL1    C9 7105   5.717   2.872   9.985  0.4621 -0.1961  0.4793
   63CHL1    H9 7106   5.609   2.898   9.992 -0.5269 -3.5674 -0.5350
   63CHL1   C10 7107   5.764   2.880  10.136 -0.0102  0.3122 -0.1229
   63CHL1   C19 7108   5.922   2.858  10.143  0.4318 -0.0846 -0.4357
   63CHL1  H19A 7109   5.961   2.856  10.247  0.2528  0.4429 -0.3553
   63CHL1  H19B 7110   5.954   2.766  10.090 -0.0259 -2.0432  2.4624
   63CHL1  H19C 7111   5.981   2.935  10.088 -0.1880 -0.7346 -2.0604
   63CHL1    C1 7112   5.731   3.021  10.192  0.4002 -0.0891 -0.6923
   63CHL1   H1A 7113   5.802   3.093  10.145  0.1487  1.4272  1.0854
   63CHL1   H1B 7114   5.626   3.044  10.164  0.4341  1.6319  0.3903
   63CHL1    C2 7115   5.752   3.039  10.347  0.5081  0.0344  0.1119
   63CHL1   H2A 7116   5.732   3.144  10.377  0.2639  0.1757 -0.5390
   63CHL1   H2B 7117   5.859   3.020  10.370  0.4157  1.0406  1.5547
   63CHL1   C20 7118   5.749   2.831   9.432  0.4444  0.1568  0.5597
   63CHL1   H20 7119   5.850   2.787   9.444  0.4756  0.2911  0.7962
   63CHL1   C21 7120   5.747   2.981   9.416 -0.1076  0.3055 -0.2784
   63CHL1  H21A 7121   5.817   3.018   9.494 -0.8676 -1.0176  1.0931
   63CHL1  H21B 7122   5.654   3.031   9.450  1.6381  1.2048  3.7248
   63CHL1  H21C 7123   5.770   3.013   9.312  0.5587  1.3522  0.1814
   63CHL1   C22 7124   5.678   2.771   9.300  0.3341  1.2798 -0.4029
   63CHL1  H22A 7125   5.643   2.670   9.329 -2.8683  2.3117 -0.2609
   63CHL1  H22B 7126   5.596   2.841   9.273 -0.9496 -0.4775 -1.2281
   63CHL1   C23 7127   5.762   2.757   9.172 -0.4891 -0.3541 -0.1506
   63CHL1  H23A 7128   5.802   2.858   9.152 -0.2064  0.4369  3.6950
   63CHL1  H23B 7129   5.845   2.686   9.190 -0.0698 -0.0572 -0.8704
   63CHL1   C24 7130   5.686   2.698   9.050 -0.3469  0.2902  0.8118
   63CHL1  H24A 7131   5.665   2.594   9.083  1.6441  0.2944  2.3248
   63CHL1  H24B 7132   5.587   2.746   9.038 -1.8514 -2.9429 -0.7730
   63CHL1   C25 7133   5.770   2.706   8.918 -0.8948 -0.8676  0.1652
   63CHL1   H25 7134   5.872   2.663   8.933 -0.8804 -1.4684 -1.4503
   63CHL1   C26 7135   5.694   2.633   8.809 -0.1152 -0.3767  0.4770
   63CHL1  H26A 7136   5.731   2.658   8.707 -1.7075 -0.5201 -0.1668
   63CHL1  H26B 7137   5.693   2.522   8.817  1.1455 -0.4711 -0.4423
   63CHL1  H26C 7138   5.596   2.685   8.799  2.0524  4.4401  1.5354
   63CHL1   C27 7139   5.796   2.851   8.883 -0.7157  0.3204 -0.3695
   63CHL1  H27A 7140   5.860   2.905   8.957 -1.3059 -1.4474  1.5446
   63CHL1  H27B 7141   5.851   2.854   8.787  0.0536  1.2055  0.0802
   63CHL1  H27C 7142   5.705   2.915   8.877 -0.2726  1.2340  1.6372
   64CHL1    C3 7143   4.544   1.857   9.932  0.0547 -0.6182 -0.0431
   64CHL1    H3 7144   4.653   1.843   9.916 -0.0035  0.4999 -1.7234
   64CHL1    O3 7145   4.521   1.874  10.076 -0.5491 -0.6095  0.1685
   64CHL1   H3' 7146   4.563   1.958  10.097 -0.8510  0.2189 -2.2714
   64CHL1    C4 7147   4.499   1.981   9.861  0.3501  0.5627  0.4585
   64CHL1   H4A 7148   4.403   2.019   9.904  1.0316  0.1144  2.4849
   64CHL1   H4B 7149   4.579   2.051   9.891 -0.4335  1.2613  0.9804
   64CHL1    C5 7150   4.484   1.974   9.709 -0.1250  0.7435 -0.0424
   64CHL1    C6 7151   4.550   2.067   9.631  0.3829  0.2052 -0.6563
   64CHL1    H6 7152   4.598   2.154   9.679  1.3747  0.5801 -2.2594
   64CHL1    C7 7153   4.558   2.073   9.484  0.6337  0.5389  0.5082
   64CHL1   H7A 7154   4.513   2.160   9.433  1.6343  0.5221 -0.4292
   64CHL1   H7B 7155   4.666   2.069   9.459  0.9327  1.5274  1.5437
   64CHL1    C8 7156   4.483   1.955   9.410 -0.7526  0.3343 -0.0638
   64CHL1    H8 7157   4.378   1.987   9.401 -0.8253  0.3287  0.7083
   64CHL1   C14 7158   4.542   1.913   9.273  0.2492 -1.0094 -0.2551
   64CHL1   H14 7159   4.645   1.879   9.295  0.0828 -1.3000  0.0772
   64CHL1   C15 7160   4.549   2.023   9.165  0.5815 -0.1344  0.3473
   64CHL1  H15A 7161   4.447   2.062   9.143  0.1396  0.3457  2.9712
   64CHL1  H15B 7162   4.616   2.107   9.194  0.3181  0.8854 -1.7869
   64CHL1   C16 7163   4.585   1.951   9.037 -0.4690 -0.6617  0.1798
   64CHL1  H16A 7164   4.513   1.988   8.961 -0.3547  0.5005  0.6220
   64CHL1  H16B 7165   4.687   1.984   9.008 -1.4034  0.9959 -1.4593
   64CHL1   C17 7166   4.563   1.798   9.071  0.3407 -0.6060 -0.3273
   64CHL1   H17 7167   4.660   1.770   9.115 -0.1959  0.2366  1.4764
   64CHL1   C13 7168   4.483   1.792   9.201  0.1252 -0.5036  0.4234
   64CHL1   C18 7169   4.336   1.813   9.169  0.5798 -0.1251  0.3894
   64CHL1  H18A 7170   4.314   1.900   9.104 -0.6774  1.1657  2.4265
   64CHL1  H18B 7171   4.315   1.714   9.123  2.7472  0.2605 -1.6013
   64CHL1  H18C 7172   4.270   1.825   9.258  1.2439 -3.6595  1.5146
   64CHL1   C12 7173   4.498   1.669   9.291  0.4294  0.2406  0.5134
   64CHL1  H12A 7174   4.439   1.585   9.248  2.8332 -1.6862  0.8137
   64CHL1  H12B 7175   4.601   1.633   9.307  0.4463 -0.9643 -1.9385
   64CHL1   C11 7176   4.425   1.706   9.427 -0.6838  0.1834 -0.6133
   64CHL1  H11A 7177   4.318   1.721   9.404 -0.6420 -2.0734 -2.7950
   64CHL1  H11B 7178   4.432   1.612   9.486  0.0687  0.4165 -0.3151
   64CHL1    C9 7179   4.491   1.828   9.502  0.3395  0.7388 -0.1271
   64CHL1    H9 7180   4.597   1.801   9.524 -0.4911 -1.4884  1.5630
   64CHL1   C10 7181   4.435   1.841   9.650 -0.5406  0.0654  0.3101
   64CHL1   C19 7182   4.282   1.840   9.652  0.4046  0.4472  0.0547
   64CHL1  H19A 7183   4.226   1.916   9.594  0.3561  0.1191 -0.3324
   64CHL1  H19B 7184   4.245   1.738   9.626  1.3216  0.4203 -1.2181
   64CHL1  H19C 7185   4.257   1.859   9.759 -1.4984 -0.5682 -0.1654
   64CHL1    C1 7186   4.496   1.720   9.731  0.2884  0.3320  0.4911
   64CHL1   H1A 7187   4.456   1.623   9.694 -2.4591  0.9871  1.4957
   64CHL1   H1B 7188   4.606   1.726   9.715  0.6292 -0.5944  2.2334
   64CHL1    C2 7189   4.482   1.728   9.881  0.5169  0.5126 -0.0526
   64CHL1   H2A 7190   4.542   1.648   9.929 -0.7759 -1.7989 -2.0735
   64CHL1   H2B 7191   4.377   1.735   9.916  1.3092  1.1024  2.3548
   64CHL1   C20 7192   4.517   1.707   8.951 -0.6871 -0.3794  0.6278
   64CHL1   H20 7193   4.463   1.614   8.977  0.3034 -0.8019  1.2276
   64CHL1   C21 7194   4.656   1.677   8.882 -0.1192 -0.2142 -0.6999
   64CHL1  H21A 7195   4.716   1.611   8.948  0.9818  0.7502 -0.6942
   64CHL1  H21B 7196   4.712   1.773   8.880  0.5044 -0.5752 -1.1446
   64CHL1  H21C 7197   4.630   1.639   8.781  0.4402  0.3331 -1.0590
   64CHL1   C22 7198   4.417   1.780   8.855 -0.0181  0.2817 -0.5383
   64CHL1  H22A 7199   4.358   1.866   8.895  0.7913  0.6169 -0.0453
   64CHL1  H22B 7200   4.481   1.841   8.788 -0.7864  0.8396 -0.7896
   64CHL1   C23 7201   4.333   1.703   8.753 -0.1273  0.2639  0.4023
   64CHL1  H23A 7202   4.399   1.634   8.697  2.3468  1.4399  1.7063
   64CHL1  H23B 7203   4.257   1.642   8.806  0.3456 -1.5001 -0.8731
   64CHL1   C24 7204   4.259   1.796   8.655 -0.0427 -0.2807  0.0291
   64CHL1  H24A 7205   4.172   1.849   8.699 -0.0224  0.5823 -0.9060
   64CHL1  H24B 7206   4.327   1.880   8.626 -0.7976 -0.2338 -1.7456
   64CHL1   C25 7207   4.220   1.741   8.521 -0.2527 -0.0413  0.7821
   64CHL1   H25 7208   4.313   1.718   8.465 -0.9093  0.5202 -0.5916
   64CHL1   C26 7209   4.148   1.609   8.535  0.1486  0.1572  0.7472
   64CHL1  H26A 7210   4.212   1.543   8.598 -0.2200 -2.6604 -1.5850
   64CHL1  H26B 7211   4.047   1.628   8.578 -0.9752 -0.0494 -1.6292
   64CHL1  H26C 7212   4.134   1.555   8.438 -1.6528  0.1838  0.9615
   64CHL1   C27 7213   4.142   1.847   8.431 -0.5325 -0.2759 -0.7488
   64CHL1  H27A 7214   4.106   1.791   8.342  0.4170 -0.5660 -0.9627
   64CHL1  H27B 7215   4.044   1.863   8.481 -0.2869 -2.3015  0.4907
   64CHL1  H27C 7216   4.197   1.940   8.404 -2.5172  0.8856 -0.9763
   65CHL1    C3 7217   5.126   5.671  10.288 -0.0632 -0.5330 -0.0258
   65CHL1    H3 7218   5.055   5.586  10.289 -0.2399 -0.3892  1.2033
   65CHL1    O3 7219   5.152   5.713  10.423 -0.2468  0.2170 -0.4840
   65CHL1   H3' 7220   5.062   5.728  10.455 -0.2063 -0.6315  0.0373
   65CHL1    C4 7221   5.251   5.627  10.227 -0.4147  0.0303  0.2119
   65CHL1   H4A 7222   5.325   5.707  10.249  0.9083 -1.2266  0.5120
   65CHL1   H4B 7223   5.296   5.541  10.281  1.1217  2.0202  2.2393
   65CHL1    C5 7224   5.246   5.605  10.074 -0.6125 -0.3652 -0.0216
   65CHL1    C6 7225   5.290   5.490  10.029  0.4405 -0.1224  0.3627
   65CHL1    H6 7226   5.331   5.417  10.099  1.0659  0.0421  0.1760
   65CHL1    C7 7227   5.284   5.454   9.885  0.2330 -1.4741 -0.2649
   65CHL1   H7A 7228   5.388   5.420   9.864  1.0144 -0.6117  2.0058
   65CHL1   H7B 7229   5.214   5.371   9.860  0.5237 -1.7757 -0.0928
   65CHL1    C8 7230   5.254   5.579   9.790 -0.1247  0.6759 -0.1661
   65CHL1    H8 7231   5.350   5.633   9.779  0.0161  0.1894 -1.5559
   65CHL1   C14 7232   5.216   5.530   9.651  0.2560 -0.2330  0.0854
   65CHL1   H14 7233   5.116   5.484   9.668  0.1952 -1.0880 -2.2232
   65CHL1   C15 7234   5.304   5.419   9.580 -0.3418  0.3601  0.0302
   65CHL1  H15A 7235   5.408   5.455   9.592  0.0564 -0.4929 -0.7794
   65CHL1  H15B 7236   5.289   5.324   9.636 -2.3327 -0.5296 -1.8743
   65CHL1   C16 7237   5.247   5.415   9.432 -0.3518 -0.2975 -0.2330
   65CHL1  H16A 7238   5.328   5.419   9.355  0.4693 -0.0889  0.6224
   65CHL1  H16B 7239   5.186   5.323   9.420 -0.7506  0.1932 -2.3123
   65CHL1   C17 7240   5.156   5.538   9.424 -1.1774 -0.2628  0.4766
   65CHL1   H17 7241   5.052   5.507   9.446 -0.7065  0.1419  3.7957
   65CHL1   C13 7242   5.192   5.634   9.543  0.8820  0.9682 -0.0602
   65CHL1   C18 7243   5.324   5.710   9.505  1.1491  0.1581 -0.3506
   65CHL1  H18A 7244   5.363   5.772   9.589  2.0647 -0.1088 -0.5678
   65CHL1  H18B 7245   5.394   5.629   9.476  0.4398  0.0706 -1.8774
   65CHL1  H18C 7246   5.306   5.774   9.416  1.3604  0.1504 -0.3985
   65CHL1   C12 7247   5.082   5.737   9.598 -0.0756  0.3220  0.0001
   65CHL1  H12A 7248   5.053   5.809   9.519 -1.0737 -0.2675 -0.1782
   65CHL1  H12B 7249   4.990   5.681   9.623  0.1408 -1.9596 -3.6148
   65CHL1   C11 7250   5.123   5.789   9.737  0.1364 -0.0138  0.1243
   65CHL1  H11A 7251   5.208   5.860   9.725  0.4727 -0.0059  2.2494
   65CHL1  H11B 7252   5.045   5.854   9.781  0.6901  1.2886 -0.7453
   65CHL1    C9 7253   5.153   5.675   9.839 -0.1810 -0.2797 -0.1555
   65CHL1    H9 7254   5.059   5.616   9.844 -0.9638  1.0354  1.6399
   65CHL1   C10 7255   5.184   5.719   9.990 -0.1476 -0.4142  0.4473
   65CHL1   C19 7256   5.297   5.829   9.983  0.1150  0.3363 -0.1061
   65CHL1  H19A 7257   5.389   5.783   9.942  0.3134 -0.7702  1.5039
   65CHL1  H19B 7258   5.271   5.918   9.921  0.7996 -0.1073 -1.0650
   65CHL1  H19C 7259   5.322   5.869  10.083 -1.8920  0.1610  0.5112
   65CHL1    C1 7260   5.047   5.767  10.053  0.2765  0.6455  0.1093
   65CHL1   H1A 7261   5.028   5.864  10.003  2.0412  0.3387 -1.2568
   65CHL1   H1B 7262   4.958   5.705  10.027  0.1844  1.8958 -2.9350
   65CHL1    C2 7263   5.062   5.788  10.206 -0.6009  0.0353  0.0496
   65CHL1   H2A 7264   4.968   5.804  10.263  0.3363  0.3379  1.5967
   65CHL1   H2B 7265   5.121   5.883  10.202 -2.3036  1.0826 -1.1342
   65CHL1   C20 7266   5.142   5.597   9.281 -0.4142  0.4014  0.8761
   65CHL1   H20 7267   5.244   5.629   9.249  0.1139 -2.0360 -0.1048
   65CHL1   C21 7268   5.053   5.723   9.274  0.0282  0.3380 -0.3495
   65CHL1  H21A 7269   5.097   5.812   9.325 -2.3968  1.8018 -0.6865
   65CHL1  H21B 7270   4.956   5.703   9.325 -1.0975  1.2894 -2.0305
   65CHL1  H21C 7271   5.028   5.748   9.169 -2.5711 -2.5182 -0.5474
   65CHL1   C22 7272   5.086   5.490   9.181  0.2719  0.2870 -0.2376
   65CHL1  H22A 7273   5.149   5.401   9.204  1.1472  0.7927 -0.6306
   65CHL1  H22B 7274   4.984   5.462   9.214  0.9124 -1.3656  0.4823
   65CHL1   C23 7275   5.080   5.526   9.028  0.1192  0.3860 -0.2617
   65CHL1  H23A 7276   5.021   5.619   9.011 -0.7393 -0.4040 -1.7961
   65CHL1  H23B 7277   5.186   5.547   9.004  0.8056 -0.4476  1.8078
   65CHL1   C24 7278   5.025   5.405   8.946  0.5139  0.7382  0.0155
   65CHL1  H24A 7279   5.084   5.313   8.967 -1.1800 -0.4112 -0.0454
   65CHL1  H24B 7280   4.922   5.374   8.977  0.7763 -0.6658 -0.4604
   65CHL1   C25 7281   5.035   5.418   8.792 -0.2987  0.0548 -0.3394
   65CHL1   H25 7282   5.143   5.422   8.769 -0.1630  0.0016  0.2656
   65CHL1   C26 7283   4.990   5.289   8.727  0.0049 -0.0129 -0.0743
   65CHL1  H26A 7284   5.012   5.298   8.619 -1.5478  1.5745 -0.3083
   65CHL1  H26B 7285   5.039   5.198   8.767 -0.4861 -0.5491 -0.6701
   65CHL1  H26C 7286   4.879   5.279   8.727  0.0384 -0.6944 -1.6464
   65CHL1   C27 7287   4.959   5.543   8.746  0.7937 -1.2210 -0.3963
   65CHL1  H27A 7288   4.959   5.542   8.635 -1.1570  1.1738 -0.5042
   65CHL1  H27B 7289   4.853   5.532   8.778  0.6323 -1.4972 -0.9931
   65CHL1  H27C 7290   5.003   5.638   8.783  1.0391 -0.9098 -1.4386
   66CHL1    C3 7291   5.878   3.603  10.493  1.0224 -0.2050 -0.1986
   66CHL1    H3 7292   5.956   3.674  10.457 -0.7660  1.8189 -0.3051
   66CHL1    O3 7293   5.855   3.620  10.637  0.7002 -0.2504  0.2447
   66CHL1   H3' 7294   5.783   3.683  10.647  1.0970 -0.1174  3.7008
   66CHL1    C4 7295   5.745   3.637  10.419  0.1619 -0.4057  0.7070
   66CHL1   H4A 7296   5.682   3.554  10.457  3.0218 -1.7990  2.7562
   66CHL1   H4B 7297   5.694   3.734  10.437 -1.9102 -0.6570 -2.6823
   66CHL1    C5 7298   5.777   3.629  10.270  0.1924 -0.1521  0.8591
   66CHL1    C6 7299   5.756   3.739  10.192 -0.2081  0.1738  0.4822
   66CHL1    H6 7300   5.712   3.827  10.241 -2.6850 -0.1724 -0.9350
   66CHL1    C7 7301   5.773   3.725  10.042  0.6303 -0.6087 -0.3999
   66CHL1   H7A 7302   5.686   3.766   9.987 -1.0901  0.4768  2.8825
   66CHL1   H7B 7303   5.855   3.786   9.998 -1.4387  1.8339 -1.0504
   66CHL1    C8 7304   5.793   3.584   9.981  0.0509  0.1478  0.2990
   66CHL1    H8 7305   5.691   3.542   9.972 -0.5618  1.9254 -1.7915
   66CHL1   C14 7306   5.860   3.598   9.848  0.5752  0.2630  0.2180
   66CHL1   H14 7307   5.967   3.623   9.867  0.1439  2.0001  0.5511
   66CHL1   C15 7308   5.806   3.696   9.747  0.3929 -0.1300  0.0067
   66CHL1  H15A 7309   5.695   3.688   9.750  0.4128 -0.9036 -1.1013
   66CHL1  H15B 7310   5.840   3.800   9.765  0.0301 -0.0040 -0.0085
   66CHL1   C16 7311   5.847   3.637   9.612  0.7448 -0.2972 -0.7317
   66CHL1  H16A 7312   5.752   3.615   9.559  1.0635  2.3565 -2.6130
   66CHL1  H16B 7313   5.903   3.718   9.560 -1.3518  1.9402  0.3347
   66CHL1   C17 7314   5.923   3.505   9.646 -0.5439  0.1351  0.0958
   66CHL1   H17 7315   6.027   3.544   9.658 -0.8620  1.0830 -0.1788
   66CHL1   C13 7316   5.874   3.459   9.779  0.0201  0.1998  0.2965
   66CHL1   C18 7317   5.733   3.392   9.756 -0.1477 -0.1431 -0.4033
   66CHL1  H18A 7318   5.676   3.463   9.693  0.8373  3.2247  2.1897
   66CHL1  H18B 7319   5.748   3.297   9.701  0.4920 -1.2224  1.5146
   66CHL1  H18C 7320   5.686   3.375   9.856  1.2619  3.3762  1.0422
   66CHL1   C12 7321   5.977   3.375   9.865  0.1782  0.3163  0.2777
   66CHL1  H12A 7322   5.988   3.276   9.816  1.1805  0.6278 -0.1420
   66CHL1  H12B 7323   6.071   3.433   9.870  1.9507 -2.1893 -1.5594
   66CHL1   C11 7324   5.913   3.357  10.006 -0.8190 -0.4693  0.1122
   66CHL1  H11A 7325   5.824   3.291   9.995  0.3558 -2.2648  0.8700
   66CHL1  H11B 7326   5.982   3.291  10.063 -0.4278 -1.2433 -1.2055
   66CHL1    C9 7327   5.886   3.496  10.069  0.6158 -0.2699  0.4707
   66CHL1    H9 7328   5.984   3.548  10.079  1.6855 -1.5317 -2.4933
   66CHL1   C10 7329   5.835   3.497  10.222 -0.0042 -0.1435  0.1081
   66CHL1   C19 7330   5.726   3.384  10.229  0.3399 -0.6715  0.0794
   66CHL1  H19A 7331   5.680   3.378  10.329  0.2647 -0.7414  0.0399
   66CHL1  H19B 7332   5.656   3.393  10.143 -1.8409 -1.0566  1.7498
   66CHL1  H19C 7333   5.784   3.290  10.220  1.3415 -0.1023  0.3767
   66CHL1    C1 7334   5.954   3.451  10.311 -0.6302 -0.2673  0.3140
   66CHL1   H1A 7335   6.001   3.353  10.286  3.4979  1.5238  0.3241
   66CHL1   H1B 7336   6.041   3.515  10.289 -1.3064  0.9343  1.0364
   66CHL1    C2 7337   5.936   3.465  10.461 -0.3657  0.0947 -0.1652
   66CHL1   H2A 7338   6.033   3.458  10.514 -0.6482  1.2258  0.5335
   66CHL1   H2B 7339   5.862   3.392  10.502 -0.4372 -0.2186 -0.8478
   66CHL1   C20 7340   5.925   3.411   9.521 -0.2321 -0.3708  0.2259
   66CHL1   H20 7341   5.829   3.358   9.509 -0.3395  0.1539 -1.4610
   66CHL1   C21 7342   6.036   3.308   9.521 -0.1429 -0.2768  0.1595
   66CHL1  H21A 7343   6.130   3.364   9.501  0.5463 -0.8977  1.4758
   66CHL1  H21B 7344   6.026   3.230   9.443  2.6561 -0.2173 -0.3693
   66CHL1  H21C 7345   6.060   3.257   9.617 -0.9045  0.3502  0.6980
   66CHL1   C22 7346   5.944   3.501   9.389 -0.3715  0.3782  0.3171
   66CHL1  H22A 7347   5.878   3.590   9.381  2.1910  2.4965  1.0123
   66CHL1  H22B 7348   6.048   3.540   9.389 -0.3017  0.1971  0.4434
   66CHL1   C23 7349   5.929   3.428   9.256  0.0659  0.8906 -0.4854
   66CHL1  H23A 7350   5.929   3.498   9.169 -2.3301  0.4921 -0.8644
   66CHL1  H23B 7351   6.017   3.360   9.253 -0.5674 -0.2193  2.8335
   66CHL1   C24 7352   5.795   3.355   9.248  0.1132  0.6633 -0.3021
   66CHL1  H24A 7353   5.793   3.271   9.320 -0.6857  1.8062  1.0735
   66CHL1  H24B 7354   5.701   3.409   9.275 -0.3932 -0.3275 -0.0232
   66CHL1   C25 7355   5.768   3.274   9.113  0.2744 -0.2788  0.1185
   66CHL1   H25 7356   5.671   3.221   9.124 -0.1854  0.2620 -1.1370
   66CHL1   C26 7357   5.755   3.363   8.988 -0.5631 -0.5225  0.3007
   66CHL1  H26A 7358   5.736   3.306   8.895  0.2259 -0.8578  0.3320
   66CHL1  H26B 7359   5.673   3.437   8.997 -0.7959 -1.0040  2.6818
   66CHL1  H26C 7360   5.852   3.409   8.955 -0.3774 -2.0162 -1.3990
   66CHL1   C27 7361   5.878   3.169   9.094  0.1313 -0.1331  0.1418
   66CHL1  H27A 7362   5.851   3.116   9.000 -3.3435  0.1298  0.8614
   66CHL1  H27B 7363   5.985   3.201   9.100  0.5863 -1.6065  0.2028
   66CHL1  H27C 7364   5.868   3.092   9.173  4.5506 -0.3652  0.7301
   67CHL1    C3 7365   1.235   4.901  10.308 -0.5130  0.1094 -0.0154
   67CHL1    H3 7366   1.193   5.004  10.308 -1.0283 -0.0966  0.3560
   67CHL1    O3 7367   1.294   4.876  10.438  0.4266 -0.1827  0.6868
   67CHL1   H3' 7368   1.367   4.938  10.442 -0.3379  0.8650 -0.8521
   67CHL1    C4 7369   1.118   4.800  10.276 -0.2354 -0.1255 -0.0298
   67CHL1   H4A 7370   1.148   4.693  10.273 -0.2708 -0.1139 -1.2816
   67CHL1   H4B 7371   1.056   4.810  10.367 -0.0780  1.0840 -0.0400
   67CHL1    C5 7372   1.049   4.834  10.147  0.2826 -0.1321  0.5222
   67CHL1    C6 7373   0.921   4.867  10.136  0.4059 -0.3867  0.6709
   67CHL1    H6 7374   0.862   4.876  10.229  0.6115  5.8676  0.6171
   67CHL1    C7 7375   0.860   4.911  10.008  0.4399 -0.8635  0.3315
   67CHL1   H7A 7376   0.764   4.859   9.988 -0.0319 -0.2210  0.9211
   67CHL1   H7B 7377   0.832   5.017  10.019 -2.0624 -1.4220 -0.1725
   67CHL1    C8 7378   0.939   4.873   9.877  0.5564  0.0830  0.4101
   67CHL1    H8 7379   0.926   4.764   9.858 -0.8876  0.2215  0.4733
   67CHL1   C14 7380   0.878   4.938   9.753 -0.3731 -0.2413  0.1450
   67CHL1   H14 7381   0.904   5.045   9.767 -2.0745  0.1524  0.5588
   67CHL1   C15 7382   0.726   4.933   9.726 -0.0696  0.1792  0.2362
   67CHL1  H15A 7383   0.701   4.826   9.744 -0.6617  0.0765 -1.0553
   67CHL1  H15B 7384   0.666   5.013   9.774  0.0797  0.2722  0.2672
   67CHL1   C16 7385   0.716   4.965   9.572 -0.3208 -0.5854 -0.3393
   67CHL1  H16A 7386   0.673   4.874   9.523  0.0403 -0.2438 -1.3034
   67CHL1  H16B 7387   0.655   5.056   9.553  0.7219 -0.3731 -2.9886
   67CHL1   C17 7388   0.865   4.975   9.522 -0.3643 -0.7112 -0.4487
   67CHL1   H17 7389   0.889   5.083   9.525 -0.7849 -0.6082 -0.7878
   67CHL1   C13 7390   0.947   4.892   9.624 -0.4908 -0.2079 -0.2183
   67CHL1   C18 7391   0.932   4.741   9.598  0.2382  0.1984  0.3357
   67CHL1  H18A 7392   1.002   4.682   9.660  0.3050 -0.2221 -0.1412
   67CHL1  H18B 7393   0.835   4.700   9.634 -0.9117 -0.1848 -2.8774
   67CHL1  H18C 7394   0.951   4.708   9.494 -1.6529 -0.6191  0.2102
   67CHL1   C12 7395   1.087   4.936   9.648 -0.2328  0.3434 -0.1048
   67CHL1  H12A 7396   1.151   4.916   9.560 -1.2823  1.2719 -1.1036
   67CHL1  H12B 7397   1.104   5.046   9.652  3.4062  0.0053 -2.0750
   67CHL1   C11 7398   1.156   4.871   9.772 -0.9718 -0.2021  0.0976
   67CHL1  H11A 7399   1.163   4.761   9.755  0.6934 -0.1156  0.0975
   67CHL1  H11B 7400   1.261   4.904   9.784 -0.8958  0.2980 -1.6262
   67CHL1    C9 7401   1.085   4.902   9.899 -0.3227  0.2702  0.2588
   67CHL1    H9 7402   1.093   5.013   9.900  1.8497  0.3667 -4.4004
   67CHL1   C10 7403   1.149   4.845  10.024  0.3736  0.7733  0.1521
   67CHL1   C19 7404   1.176   4.695   9.998 -0.0606  0.0946  0.5705
   67CHL1  H19A 7405   1.080   4.644   9.976 -0.1517  0.4550  0.1056
   67CHL1  H19B 7406   1.241   4.675   9.910 -1.3096 -0.3089 -0.3019
   67CHL1  H19C 7407   1.227   4.649  10.085 -2.2627  0.5249  2.1938
   67CHL1    C1 7408   1.281   4.922  10.060  0.3441  0.6028  0.8983
   67CHL1   H1A 7409   1.359   4.886   9.989 -0.3609 -1.3709  1.0651
   67CHL1   H1B 7410   1.263   5.031  10.056  0.5306  0.6394  1.0277
   67CHL1    C2 7411   1.341   4.898  10.194 -0.1416 -0.4556  0.3415
   67CHL1   H2A 7412   1.420   4.973  10.219 -0.8501 -0.4242  2.8193
   67CHL1   H2B 7413   1.381   4.796  10.178  3.1217  0.9503 -1.7174
   67CHL1   C20 7414   0.872   4.939   9.378  0.3332  0.9861  0.1143
   67CHL1   H20 7415   0.826   4.839   9.366 -0.9424  1.8122 -3.2167
   67CHL1   C21 7416   1.019   4.942   9.326 -0.0423 -0.1739 -1.1776
   67CHL1  H21A 7417   1.025   4.937   9.215 -1.4854 -3.7512 -1.2141
   67CHL1  H21B 7418   1.072   4.857   9.373  0.5732  1.4600  1.2737
   67CHL1  H21C 7419   1.061   5.037   9.366  1.2585 -1.2643  0.1585
   67CHL1   C22 7420   0.781   5.021   9.279 -0.6446  0.4661 -0.0493
   67CHL1  H22A 7421   0.802   4.979   9.179  1.1907 -0.2160  0.5981
   67CHL1  H22B 7422   0.676   4.993   9.303 -1.2126  0.6756 -2.0970
   67CHL1   C23 7423   0.800   5.166   9.285  0.0923 -0.1775 -0.5242
   67CHL1  H23A 7424   0.740   5.203   9.371 -0.1009 -0.6806 -0.4374
   67CHL1  H23B 7425   0.909   5.181   9.304  0.2538 -2.3511  0.6411
   67CHL1   C24 7426   0.756   5.240   9.156 -0.3534 -0.9009 -0.4824
   67CHL1  H24A 7427   0.836   5.276   9.088 -1.3131  2.6038  0.0457
   67CHL1  H24B 7428   0.694   5.164   9.104 -0.8486 -0.9655  0.1780
   67CHL1   C25 7429   0.659   5.362   9.182  0.4546  0.5552  0.5852
   67CHL1   H25 7430   0.564   5.332   9.232  1.0334  2.1787  2.8208
   67CHL1   C26 7431   0.719   5.479   9.257  0.2647 -0.3915  0.2786
   67CHL1  H26A 7432   0.816   5.503   9.209 -0.3234 -0.0765 -0.7889
   67CHL1  H26B 7433   0.651   5.567   9.254  0.7696  0.1245  2.4482
   67CHL1  H26C 7434   0.729   5.464   9.366 -0.3481  0.6772  0.4938
   67CHL1   C27 7435   0.610   5.398   9.045 -1.1409 -0.7037  0.1078
   67CHL1  H27A 7436   0.530   5.475   9.044 -0.9174 -0.4645  0.6728
   67CHL1  H27B 7437   0.690   5.433   8.976 -0.6375 -0.5033  0.7792
   67CHL1  H27C 7438   0.566   5.305   9.003 -0.1253 -0.9036 -0.5576
   68CHL1    C3 7439   6.290   6.362  10.335 -0.3330  0.1653 -0.0980
   68CHL1    H3 7440   6.222   6.437  10.289 -1.4961 -1.7157 -1.6282
   68CHL1    O3 7441   6.254   6.345  10.472  0.3153 -0.1630 -0.0008
   68CHL1   H3' 7442   6.297   6.265  10.504  1.2768  0.8725  1.3926
   68CHL1    C4 7443   6.275   6.228  10.260  0.0826 -0.1915  0.3113
   68CHL1   H4A 7444   6.347   6.159  10.309 -0.3330 -0.7984  0.0783
   68CHL1   H4B 7445   6.172   6.186  10.269 -0.9817  2.0995 -0.3765
   68CHL1    C5 7446   6.314   6.237  10.115  0.3910  0.3304  0.0149
   68CHL1    C6 7447   6.221   6.211  10.022 -0.3646  0.1675 -0.2506
   68CHL1    H6 7448   6.123   6.172  10.054 -0.5648 -0.5113 -1.6174
   68CHL1    C7 7449   6.239   6.216   9.873  0.0130  0.1303  0.0631
   68CHL1   H7A 7450   6.217   6.120   9.821  0.5810 -0.6334  1.1887
   68CHL1   H7B 7451   6.162   6.291   9.847 -0.5053 -0.0582  0.9762
   68CHL1    C8 7452   6.390   6.239   9.837  0.1261 -0.0584  0.5404
   68CHL1    H8 7453   6.439   6.141   9.821 -1.2650 -1.0227  1.8899
   68CHL1   C14 7454   6.384   6.309   9.701 -0.0499 -0.0972  0.4524
   68CHL1   H14 7455   6.334   6.408   9.712  1.9508  0.8009  2.1789
   68CHL1   C15 7456   6.301   6.236   9.597  0.7860  0.3868  0.3370
   68CHL1  H15A 7457   6.295   6.126   9.610  1.0012  0.2357 -0.7298
   68CHL1  H15B 7458   6.194   6.264   9.608  0.6708 -0.1571  0.6162
   68CHL1   C16 7459   6.363   6.267   9.466 -0.1778  0.0991 -0.5080
   68CHL1  H16A 7460   6.399   6.174   9.418 -1.0852  0.2853 -1.5733
   68CHL1  H16B 7461   6.292   6.328   9.406 -1.3278  0.5208  1.2103
   68CHL1   C17 7462   6.488   6.353   9.497 -0.0118 -0.5860  0.0474
   68CHL1   H17 7463   6.460   6.461   9.490  2.3792  0.0102 -1.7386
   68CHL1   C13 7464   6.519   6.319   9.644  0.2529 -0.4304  0.0945
   68CHL1   C18 7465   6.596   6.180   9.639 -0.2326  0.0996  0.6114
   68CHL1  H18A 7466   6.610   6.148   9.745 -0.4714  0.7694  0.8537
   68CHL1  H18B 7467   6.523   6.108   9.597 -0.1773  0.3031  0.1583
   68CHL1  H18C 7468   6.690   6.184   9.581 -0.0732  1.9321  0.9236
   68CHL1   C12 7469   6.605   6.413   9.732 -0.0068 -0.5747 -0.1097
   68CHL1  H12A 7470   6.711   6.414   9.701  0.3211 -0.4149  0.9941
   68CHL1  H12B 7471   6.561   6.515   9.733 -0.6892 -0.8710  0.9648
   68CHL1   C11 7472   6.610   6.373   9.883  0.3128 -0.8815 -0.2059
   68CHL1  H11A 7473   6.682   6.288   9.879  0.0594 -1.0928 -0.3235
   68CHL1  H11B 7474   6.659   6.449   9.945  0.0401 -0.8588 -0.0166
   68CHL1    C9 7475   6.468   6.343   9.932  0.0873  0.2150  0.5406
   68CHL1    H9 7476   6.409   6.437   9.936  1.2527  1.0266 -0.6139
   68CHL1   C10 7477   6.455   6.291  10.086  0.2060  0.3211  0.7520
   68CHL1   C19 7478   6.560   6.179  10.120 -0.2725  0.3464  0.1192
   68CHL1  H19A 7479   6.545   6.094  10.049  0.0286  1.6569 -1.5883
   68CHL1  H19B 7480   6.663   6.219  10.119  0.3380 -1.0928  1.9959
   68CHL1  H19C 7481   6.544   6.134  10.220 -0.5380 -1.4126 -0.6733
   68CHL1    C1 7482   6.487   6.415  10.184  0.5838 -0.1220  0.5871
   68CHL1   H1A 7483   6.598   6.415  10.176  0.5048 -0.4223 -0.7828
   68CHL1   H1B 7484   6.451   6.507  10.134 -3.9707 -0.9920  1.7752
   68CHL1    C2 7485   6.432   6.410  10.330  0.1304 -0.2945 -0.0161
   68CHL1   H2A 7486   6.427   6.517  10.357  0.7279  0.1755 -1.6310
   68CHL1   H2B 7487   6.501   6.348  10.391 -1.8188 -0.8991  1.7025
   68CHL1   C20 7488   6.589   6.324   9.376 -0.8886  0.0319 -0.0157
   68CHL1   H20 7489   6.620   6.217   9.378 -1.3250 -0.0878  0.6484
   68CHL1   C21 7490   6.731   6.385   9.402  0.2566  0.7086 -0.0206
   68CHL1  H21A 7491   6.719   6.495   9.409  2.2858  0.8872  1.4543
   68CHL1  H21B 7492   6.804   6.359   9.322 -0.9770  0.3628 -1.0758
   68CHL1  H21C 7493   6.776   6.346   9.496  0.1653 -0.3818 -0.4147
   68CHL1   C22 7494   6.528   6.377   9.246  0.1541  0.5681 -0.2288
   68CHL1  H22A 7495   6.445   6.308   9.220  1.0518 -0.3581 -0.6959
   68CHL1  H22B 7496   6.481   6.474   9.274  1.2057  0.8920  0.4939
   68CHL1   C23 7497   6.617   6.407   9.127 -0.1179  0.5811 -0.4273
   68CHL1  H23A 7498   6.686   6.493   9.140 -0.8489  1.2247 -0.7391
   68CHL1  H23B 7499   6.669   6.313   9.096 -2.8020 -1.6296  1.3169
   68CHL1   C24 7500   6.527   6.438   9.005 -0.8576 -0.2739  0.0119
   68CHL1  H24A 7501   6.443   6.497   9.048 -0.8032  0.6622 -1.1234
   68CHL1  H24B 7502   6.587   6.501   8.936  0.9735 -1.2042  0.6859
   68CHL1   C25 7503   6.475   6.320   8.928  0.4171 -0.9725 -0.7196
   68CHL1   H25 7504   6.423   6.246   8.993  0.1485  1.8885  2.5909
   68CHL1   C26 7505   6.374   6.375   8.826  0.6693  0.5628  0.2928
   68CHL1  H26A 7506   6.419   6.458   8.767 -0.0640  0.3761 -0.5641
   68CHL1  H26B 7507   6.348   6.299   8.749  1.1444  0.6207  0.0673
   68CHL1  H26C 7508   6.282   6.409   8.879  0.5221  0.4652  0.1020
   68CHL1   C27 7509   6.582   6.232   8.869  0.3270  0.5761 -0.1484
   68CHL1  H27A 7510   6.647   6.185   8.946 -1.1754 -2.8190 -0.7819
   68CHL1  H27B 7511   6.538   6.150   8.808 -0.5719  0.0559  1.1540
   68CHL1  H27C 7512   6.643   6.297   8.803 -0.0016 -0.6390 -1.7062
   69CHL1    C3 7513   4.867   3.585   6.851 -0.3122 -0.4022  1.0839
   69CHL1    H3 7514   4.786   3.514   6.876 -0.3816 -1.6487 -2.2681
   69CHL1    O3 7515   4.841   3.622   6.720  0.6759 -0.5902  0.1455
   69CHL1   H3' 7516   4.903   3.571   6.667  1.6264  0.6591  0.0347
   69CHL1    C4 7517   4.866   3.719   6.938  0.2147  0.1378  0.1108
   69CHL1   H4A 7518   4.949   3.785   6.906  1.0650 -0.9260  0.0551
   69CHL1   H4B 7519   4.773   3.780   6.941  0.5842  0.7024  0.4280
   69CHL1    C5 7520   4.897   3.668   7.083 -0.4601 -0.4391  0.0214
   69CHL1    C6 7521   4.814   3.698   7.179 -0.3818  0.1410 -0.6619
   69CHL1    H6 7522   4.722   3.754   7.158 -1.0340 -1.1397 -1.2972
   69CHL1    C7 7523   4.829   3.655   7.325 -0.3029 -0.9950  0.5078
   69CHL1   H7A 7524   4.792   3.731   7.396  1.0248 -1.4443  1.7225
   69CHL1   H7B 7525   4.755   3.576   7.350 -0.6083 -0.6239  0.7868
   69CHL1    C8 7526   4.975   3.628   7.360  0.1173 -0.5219 -0.7067
   69CHL1    H8 7527   5.022   3.728   7.356 -1.2468  0.1443 -0.6378
   69CHL1   C14 7528   4.982   3.551   7.491  1.2127  0.0125  0.1602
   69CHL1   H14 7529   4.945   3.447   7.481 -1.3889  0.7941  0.9844
   69CHL1   C15 7530   4.900   3.610   7.608 -0.2186 -0.3386 -0.4295
   69CHL1  H15A 7531   4.922   3.717   7.627 -1.9102  0.2072 -1.2907
   69CHL1  H15B 7532   4.790   3.600   7.593 -0.6209  1.4195  0.9956
   69CHL1   C16 7533   4.945   3.529   7.727  0.0097 -0.5998 -0.6396
   69CHL1  H16A 7534   4.937   3.603   7.809 -0.6318  0.1669 -1.3839
   69CHL1  H16B 7535   4.884   3.438   7.745  2.1912 -1.7129  1.8907
   69CHL1   C17 7536   5.091   3.475   7.694 -0.2750 -0.1451  0.0505
   69CHL1   H17 7537   5.083   3.364   7.689 -3.4208  0.0473 -1.5560
   69CHL1   C13 7538   5.121   3.528   7.548 -1.4033  0.4428  0.4756
   69CHL1   C18 7539   5.199   3.667   7.555 -0.0361  0.5014 -0.4410
   69CHL1  H18A 7540   5.304   3.658   7.589 -0.3773  0.6605  0.6684
   69CHL1  H18B 7541   5.196   3.724   7.460  1.4344 -1.7008 -1.9204
   69CHL1  H18C 7542   5.143   3.731   7.626  0.1672  1.0397 -0.7546
   69CHL1   C12 7543   5.190   3.431   7.444 -0.1069  1.0763 -0.3796
   69CHL1  H12A 7544   5.300   3.419   7.452  0.4394  3.9304 -2.2577
   69CHL1  H12B 7545   5.139   3.333   7.460  1.9151  0.3142  2.1996
   69CHL1   C11 7546   5.181   3.482   7.300 -0.2964  0.2883 -0.4176
   69CHL1  H11A 7547   5.258   3.562   7.298  0.5063 -0.4401 -2.8397
   69CHL1  H11B 7548   5.205   3.397   7.233  0.9989  1.1235 -1.0701
   69CHL1    C9 7549   5.040   3.537   7.256 -0.1707 -1.1384 -0.3653
   69CHL1    H9 7550   4.974   3.448   7.258 -1.9671  0.1197 -0.7663
   69CHL1   C10 7551   5.028   3.600   7.107  0.1741 -0.1421 -0.1752
   69CHL1   C19 7552   5.143   3.701   7.082  0.0262  0.1659 -0.8851
   69CHL1  H19A 7553   5.142   3.738   6.977  0.0208 -0.5502 -1.1443
   69CHL1  H19B 7554   5.153   3.780   7.159  0.3432  0.3552 -1.1170
   69CHL1  H19C 7555   5.238   3.644   7.082  1.1614  1.9584 -0.0558
   69CHL1    C1 7556   5.039   3.488   7.003  0.0317 -0.5391  0.0849
   69CHL1   H1A 7557   5.137   3.436   7.010 -0.3315 -1.2010  0.3713
   69CHL1   H1B 7558   4.963   3.412   7.032 -1.9795  1.9533  1.7939
   69CHL1    C2 7559   5.005   3.527   6.854 -0.0777  0.3692 -0.0690
   69CHL1   H2A 7560   5.018   3.442   6.784  0.3632  2.2384 -2.4104
   69CHL1   H2B 7561   5.086   3.594   6.819 -1.3085  1.5113 -0.8471
   69CHL1   C20 7562   5.196   3.514   7.802  0.6493  0.5018  0.1527
   69CHL1   H20 7563   5.229   3.620   7.800  0.0809  0.8793  3.5984
   69CHL1   C21 7564   5.317   3.423   7.776 -0.9227 -0.2427 -0.5783
   69CHL1  H21A 7565   5.364   3.446   7.678 -2.3557 -1.2951 -1.5528
   69CHL1  H21B 7566   5.299   3.315   7.791  1.1917 -0.7532 -1.4556
   69CHL1  H21C 7567   5.399   3.442   7.849  0.5316 -1.1694 -1.9236
   69CHL1   C22 7568   5.152   3.483   7.943 -0.8502  0.7613 -0.4785
   69CHL1  H22A 7569   5.047   3.515   7.959 -1.1387  0.5666 -1.8482
   69CHL1  H22B 7570   5.145   3.372   7.951  0.5269  0.5883 -1.2913
   69CHL1   C23 7571   5.241   3.539   8.060  0.3263 -0.1275  0.1458
   69CHL1  H23A 7572   5.344   3.502   8.044  0.1343  0.2608 -2.4828
   69CHL1  H23B 7573   5.245   3.649   8.042 -1.6094  0.2616  1.7095
   69CHL1   C24 7574   5.190   3.507   8.192  0.5962  0.3461 -0.1574
   69CHL1  H24A 7575   5.086   3.541   8.211 -0.3081 -1.5406 -1.4668
   69CHL1  H24B 7576   5.189   3.396   8.187  3.2343  0.3001 -4.2188
   69CHL1   C25 7577   5.277   3.565   8.306 -0.2414  0.5679 -0.0086
   69CHL1   H25 7578   5.320   3.664   8.281 -0.2414  0.4413 -0.5338
   69CHL1   C26 7579   5.198   3.575   8.437  0.1079  0.1322  0.2186
   69CHL1  H26A 7580   5.152   3.478   8.467  0.0313  0.1176  0.0537
   69CHL1  H26B 7581   5.267   3.595   8.521 -0.5788  0.5541  0.6948
   69CHL1  H26C 7582   5.112   3.645   8.436 -0.9542 -1.1254 -0.1572
   69CHL1   C27 7583   5.409   3.486   8.325 -0.8099 -0.3268  0.6356
   69CHL1  H27A 7584   5.475   3.476   8.237  0.2932  0.4880  1.3529
   69CHL1  H27B 7585   5.454   3.531   8.416 -0.3773  1.0311 -0.2331
   69CHL1  H27C 7586   5.373   3.384   8.351 -0.5520 -0.7361 -0.5506
   70CHL1    C3 7587   5.557   0.484   6.944  0.3164 -0.2787  1.1689
   70CHL1    H3 7588   5.451   0.519   6.946  0.5004  0.3811 -0.1680
   70CHL1    O3 7589   5.594   0.464   6.808 -0.6927 -0.5280  0.7193
   70CHL1   H3' 7590   5.561   0.539   6.758  1.9412  1.6018  1.9174
   70CHL1    C4 7591   5.636   0.592   7.017  0.4086 -0.1338  0.4271
   70CHL1   H4A 7592   5.744   0.565   7.011  0.5029  0.5318 -1.7146
   70CHL1   H4B 7593   5.626   0.683   6.955  0.0376 -0.6640 -0.2995
   70CHL1    C5 7594   5.596   0.602   7.161 -0.2082 -0.3695  0.3506
   70CHL1    C6 7595   5.558   0.722   7.199  0.2364 -0.0868 -0.9063
   70CHL1    H6 7596   5.553   0.808   7.130 -2.1210  0.4223 -0.2280
   70CHL1    C7 7597   5.521   0.752   7.342  0.2262  0.2870 -0.8343
   70CHL1   H7A 7598   5.572   0.845   7.375 -1.7723  1.9230 -2.1325
   70CHL1   H7B 7599   5.413   0.773   7.352  0.4885  1.7143 -0.7760
   70CHL1    C8 7600   5.549   0.632   7.441 -1.1217 -0.3216  0.5087
   70CHL1    H8 7601   5.656   0.636   7.468 -1.2707  1.9959  0.9420
   70CHL1   C14 7602   5.474   0.655   7.565  0.8360 -0.6365  0.3332
   70CHL1   H14 7603   5.367   0.661   7.537  1.3064  1.9754 -1.2414
   70CHL1   C15 7604   5.507   0.779   7.643 -0.1075  0.0010 -0.3682
   70CHL1  H15A 7605   5.618   0.791   7.638 -0.0378  0.1661  1.1620
   70CHL1  H15B 7606   5.443   0.862   7.607 -1.3485 -0.1034  1.4879
   70CHL1   C16 7607   5.465   0.751   7.781 -0.8795 -1.0249 -0.7566
   70CHL1  H16A 7608   5.539   0.752   7.865 -3.0018  0.4656  1.2324
   70CHL1  H16B 7609   5.395   0.832   7.812  0.9777 -0.3794  2.3099
   70CHL1   C17 7610   5.415   0.606   7.790  0.1752 -0.7325 -0.7667
   70CHL1   H17 7611   5.309   0.608   7.756 -0.6570  1.0153  1.5983
   70CHL1   C13 7612   5.487   0.540   7.671  0.3675  0.1503 -0.1948
   70CHL1   C18 7613   5.638   0.508   7.713  0.4362  0.4431  0.4093
   70CHL1  H18A 7614   5.646   0.428   7.790 -0.8091 -0.7944 -0.6849
   70CHL1  H18B 7615   5.701   0.479   7.626  0.4915 -0.0075  0.5967
   70CHL1  H18C 7616   5.676   0.604   7.754 -1.2736  1.5654 -0.5091
   70CHL1   C12 7617   5.421   0.414   7.604 -0.3554 -0.0225 -0.0307
   70CHL1  H12A 7618   5.429   0.328   7.674  3.9613  0.1874  0.0011
   70CHL1  H12B 7619   5.313   0.437   7.590 -0.2339  2.5448  2.2920
   70CHL1   C11 7620   5.492   0.384   7.472  0.3166 -0.6668 -0.9980
   70CHL1  H11A 7621   5.591   0.343   7.501  0.3330  0.8917  1.3935
   70CHL1  H11B 7622   5.438   0.296   7.431 -1.0025 -1.6133  2.4164
   70CHL1    C9 7623   5.505   0.497   7.375 -1.1440 -0.4950 -0.3880
   70CHL1    H9 7624   5.400   0.509   7.341  0.1668  2.3859 -4.0764
   70CHL1   C10 7625   5.599   0.470   7.250 -0.0280  0.1501  0.4805
   70CHL1   C19 7626   5.747   0.437   7.292 -0.4629  0.6971  0.2906
   70CHL1  H19A 7627   5.800   0.413   7.197 -0.7955  0.5990  0.1271
   70CHL1  H19B 7628   5.798   0.522   7.342  1.0463 -1.1239  2.0057
   70CHL1  H19C 7629   5.753   0.349   7.359 -1.7191  1.3120  1.2580
   70CHL1    C1 7630   5.546   0.360   7.158 -0.2745  0.1035  0.1129
   70CHL1   H1A 7631   5.571   0.265   7.210 -0.2083 -0.0800 -0.2510
   70CHL1   H1B 7632   5.436   0.372   7.159 -0.3173 -0.1828  1.7762
   70CHL1    C2 7633   5.591   0.350   7.013  0.6756 -0.7119  0.2973
   70CHL1   H2A 7634   5.532   0.274   6.958 -0.5540  0.4490 -0.0426
   70CHL1   H2B 7635   5.697   0.317   7.015  0.8552 -0.2500 -0.7991
   70CHL1   C20 7636   5.424   0.536   7.927  0.2314  0.1071  0.3326
   70CHL1   H20 7637   5.527   0.552   7.965 -0.3162  1.8176  1.2188
   70CHL1   C21 7638   5.404   0.383   7.922 -0.3833  0.3284 -0.3603
   70CHL1  H21A 7639   5.415   0.337   8.022 -3.2543 -0.4200 -0.3174
   70CHL1  H21B 7640   5.484   0.333   7.862 -0.7332  0.4470 -0.9359
   70CHL1  H21C 7641   5.302   0.355   7.889 -2.1118  1.8444  3.2779
   70CHL1   C22 7642   5.319   0.590   8.026  0.3420 -0.1724  0.8169
   70CHL1  H22A 7643   5.288   0.694   8.004 -1.3054 -0.6021  0.9930
   70CHL1  H22B 7644   5.222   0.537   8.030  0.0720  0.1832 -0.4712
   70CHL1   C23 7645   5.385   0.578   8.168 -0.1334  0.0055  0.8393
   70CHL1  H23A 7646   5.385   0.471   8.198  1.7961  0.3296  2.1417
   70CHL1  H23B 7647   5.492   0.604   8.153 -0.0056  0.8673  2.8914
   70CHL1   C24 7648   5.309   0.674   8.268 -0.7970 -0.2243 -0.1834
   70CHL1  H24A 7649   5.317   0.781   8.240 -0.3611  0.1631  1.2996
   70CHL1  H24B 7650   5.201   0.649   8.266 -1.3786  1.7284  2.1017
   70CHL1   C25 7651   5.373   0.673   8.408  0.8288  0.1602 -0.3409
   70CHL1   H25 7652   5.310   0.755   8.450  0.5922  0.8846 -2.0261
   70CHL1   C26 7653   5.361   0.543   8.493  0.1295 -0.1069 -0.0579
   70CHL1  H26A 7654   5.390   0.575   8.596 -1.4963  0.5191  0.2338
   70CHL1  H26B 7655   5.260   0.498   8.487  0.4986 -0.7239 -2.3914
   70CHL1  H26C 7656   5.438   0.468   8.467 -1.1976 -1.1593 -1.0326
   70CHL1   C27 7657   5.509   0.736   8.412 -0.4192 -0.3650  0.0303
   70CHL1  H27A 7658   5.496   0.840   8.374  1.6468  0.6144  1.8217
   70CHL1  H27B 7659   5.535   0.744   8.519  0.1817 -3.7335  0.2704
   70CHL1  H27C 7660   5.593   0.681   8.364  0.4969  0.0926  1.0689
   71CHL1    C3 7661   4.343   2.364   6.719  0.1360 -0.6119 -0.4316
   71CHL1    H3 7662   4.451   2.378   6.740 -0.5952  2.5399  2.2381
   71CHL1    O3 7663   4.306   2.375   6.581 -0.3961 -0.6156 -0.2697
   71CHL1   H3' 7664   4.211   2.390   6.579 -1.0586 -3.9141  0.0539
   71CHL1    C4 7665   4.318   2.230   6.769  0.1465 -0.1697  0.2580
   71CHL1   H4A 7666   4.211   2.207   6.748  0.4911  0.4467 -2.6603
   71CHL1   H4B 7667   4.381   2.153   6.720  1.1335  1.4979 -1.2058
   71CHL1    C5 7668   4.354   2.217   6.916  0.0146  0.1354 -0.1307
   71CHL1    C6 7669   4.450   2.130   6.959  0.4496 -0.5091  0.2111
   71CHL1    H6 7670   4.491   2.071   6.876  0.5928 -0.3149  0.1411
   71CHL1    C7 7671   4.501   2.124   7.102 -0.1640  0.4350 -0.4364
   71CHL1   H7A 7672   4.526   2.020   7.132  0.7484  0.7029 -0.2430
   71CHL1   H7B 7673   4.601   2.171   7.095 -0.6122  1.6187  0.7385
   71CHL1    C8 7674   4.405   2.193   7.204  0.2954 -0.2883 -0.0109
   71CHL1    H8 7675   4.322   2.123   7.226 -1.2059  0.3857 -3.0432
   71CHL1   C14 7676   4.468   2.217   7.338  0.3217 -0.6443 -0.4403
   71CHL1   H14 7677   4.560   2.273   7.314 -0.0205 -0.2811 -0.9234
   71CHL1   C15 7678   4.524   2.096   7.418  0.5847  0.2397 -0.3044
   71CHL1  H15A 7679   4.451   2.014   7.432 -0.0165  0.5123 -1.6696
   71CHL1  H15B 7680   4.604   2.058   7.350 -1.0373  1.9177 -3.3432
   71CHL1   C16 7681   4.573   2.166   7.542 -0.6353 -0.1301  0.1030
   71CHL1  H16A 7682   4.569   2.092   7.625  1.1759 -0.9930 -0.5303
   71CHL1  H16B 7683   4.676   2.197   7.514 -1.3613  0.4832 -2.0754
   71CHL1   C17 7684   4.483   2.294   7.556  0.5684  0.6364  0.1825
   71CHL1   H17 7685   4.563   2.371   7.552  1.2860 -0.0780  0.4339
   71CHL1   C13 7686   4.388   2.307   7.436  0.0599  0.1651  0.8724
   71CHL1   C18 7687   4.261   2.218   7.469 -0.2005 -0.1146  0.6662
   71CHL1  H18A 7688   4.191   2.210   7.383  2.7205 -1.1269 -1.7977
   71CHL1  H18B 7689   4.289   2.119   7.510  0.1109  0.6768  2.4957
   71CHL1  H18C 7690   4.199   2.264   7.549  0.8591 -1.3129  2.2489
   71CHL1   C12 7691   4.362   2.444   7.385  0.4836  0.2164  0.0490
   71CHL1  H12A 7692   4.281   2.489   7.446  0.8714 -0.8194  1.3736
   71CHL1  H12B 7693   4.442   2.519   7.370 -1.5599  2.3422 -0.8543
   71CHL1   C11 7694   4.293   2.425   7.248  0.6356  0.1079  0.6232
   71CHL1  H11A 7695   4.192   2.381   7.266  0.7974  0.2464  1.9431
   71CHL1  H11B 7696   4.283   2.525   7.202  0.7947 -0.4962 -0.7808
   71CHL1    C9 7697   4.360   2.325   7.142 -0.4116  0.1291 -0.4157
   71CHL1    H9 7698   4.456   2.374   7.114 -1.4316  2.3371 -0.2182
   71CHL1   C10 7699   4.296   2.322   7.007  0.9546 -0.6206 -0.4474
   71CHL1   C19 7700   4.149   2.289   7.010 -0.2948  0.6282  0.0972
   71CHL1  H19A 7701   4.134   2.189   7.055  1.1272  0.6312  0.6266
   71CHL1  H19B 7702   4.107   2.366   7.079  0.9626 -0.9189  2.7290
   71CHL1  H19C 7703   4.097   2.295   6.912 -0.3978 -0.9222  0.0468
   71CHL1    C1 7704   4.293   2.464   6.937  0.1804 -0.1124 -0.2469
   71CHL1   H1A 7705   4.238   2.536   7.001 -0.4684  0.3144 -1.2769
   71CHL1   H1B 7706   4.398   2.500   6.943 -0.4322  1.6254  0.9329
   71CHL1    C2 7707   4.256   2.470   6.790  0.0664  0.2641 -0.2115
   71CHL1   H2A 7708   4.277   2.574   6.755  0.8373  0.6603  1.3685
   71CHL1   H2B 7709   4.147   2.450   6.783 -0.1692  0.8129  1.5220
   71CHL1   C20 7710   4.422   2.308   7.699 -0.0272 -0.1106  0.5551
   71CHL1   H20 7711   4.346   2.231   7.722  0.5548 -0.6809  0.5742
   71CHL1   C21 7712   4.353   2.440   7.720 -0.0418  0.0582  0.2917
   71CHL1  H21A 7713   4.417   2.530   7.723 -1.8303  1.3789  0.4367
   71CHL1  H21B 7714   4.306   2.432   7.821  0.4673 -2.3460  0.3896
   71CHL1  H21C 7715   4.274   2.457   7.643  1.2554 -1.0913 -1.3598
   71CHL1   C22 7716   4.523   2.292   7.814  1.2101 -0.4665  0.5394
   71CHL1  H22A 7717   4.623   2.279   7.767  0.2666 -0.7975 -1.4835
   71CHL1  H22B 7718   4.531   2.388   7.869  1.3128 -1.3041  2.0290
   71CHL1   C23 7719   4.493   2.173   7.913 -0.1410 -0.0622 -0.1733
   71CHL1  H23A 7720   4.386   2.188   7.940 -1.1989 -1.4288 -3.1870
   71CHL1  H23B 7721   4.508   2.081   7.853  2.3252 -1.2249  2.0249
   71CHL1   C24 7722   4.580   2.159   8.040 -0.2316  0.2418  0.4822
   71CHL1  H24A 7723   4.684   2.145   8.002 -0.9745 -1.6501 -1.0592
   71CHL1  H24B 7724   4.577   2.251   8.102 -0.9480 -0.9279  2.2775
   71CHL1   C25 7725   4.548   2.039   8.130  0.2120  0.3431 -0.2861
   71CHL1   H25 7726   4.447   2.018   8.170  1.2813 -0.8134  2.0300
   71CHL1   C26 7727   4.584   1.907   8.061  0.0484 -0.1364  0.4357
   71CHL1  H26A 7728   4.538   1.903   7.960 -0.8910 -0.7197  0.8763
   71CHL1  H26B 7729   4.694   1.901   8.041 -0.2915 -0.7114 -1.4726
   71CHL1  H26C 7730   4.560   1.815   8.118  1.7925 -3.2281 -3.3166
   71CHL1   C27 7731   4.640   2.041   8.253 -0.0621  0.7669 -0.3437
   71CHL1  H27A 7732   4.611   2.124   8.321  1.1879 -0.4615  1.7827
   71CHL1  H27B 7733   4.640   1.944   8.307  2.4383  0.9813  0.1324
   71CHL1  H27C 7734   4.745   2.043   8.219  0.7977 -2.1781  1.7195
   72CHL1    C3 7735   6.081   1.525   7.115  0.8591  0.3243 -0.9532
   72CHL1    H3 7736   6.188   1.508   7.140  0.4562 -2.0573 -0.6246
   72CHL1    O3 7737   6.068   1.477   6.982 -0.0773  0.0588  0.1740
   72CHL1   H3' 7738   6.111   1.543   6.928  0.8175  0.3789  1.2319
   72CHL1    C4 7739   5.982   1.439   7.202 -0.1761 -0.1087  0.0165
   72CHL1   H4A 7740   5.883   1.483   7.179  0.7119  3.3330  2.0517
   72CHL1   H4B 7741   5.994   1.330   7.182  0.6231 -0.4756  2.1886
   72CHL1    C5 7742   6.023   1.464   7.348  0.3725 -0.0386 -1.0636
   72CHL1    C6 7743   6.078   1.368   7.426  0.2061  0.2470  0.1913
   72CHL1    H6 7744   6.107   1.279   7.369 -1.9193  1.6348 -3.3893
   72CHL1    C7 7745   6.106   1.385   7.570  0.4853  0.3176  0.4466
   72CHL1   H7A 7746   6.094   1.287   7.621  2.3589  0.0383  0.4204
   72CHL1   H7B 7747   6.215   1.405   7.570  0.5848  0.0711 -2.0959
   72CHL1    C8 7748   6.027   1.505   7.628  0.3544  0.0448 -0.3975
   72CHL1    H8 7749   5.922   1.470   7.632 -0.2600  1.8755  2.2413
   72CHL1   C14 7750   6.075   1.547   7.765 -0.0299 -0.0570  0.3227
   72CHL1   H14 7751   6.181   1.579   7.769  0.4016 -1.1996 -1.0250
   72CHL1   C15 7752   6.082   1.431   7.863 -0.3301  0.1321 -0.4874
   72CHL1  H15A 7753   5.986   1.376   7.866  0.8559 -2.0269  2.3013
   72CHL1  H15B 7754   6.169   1.364   7.848 -2.1701 -2.1547 -1.3993
   72CHL1   C16 7755   6.093   1.504   7.994 -0.2216 -0.4733 -0.1090
   72CHL1  H16A 7756   6.012   1.463   8.059  1.6310 -1.6641  1.5624
   72CHL1  H16B 7757   6.184   1.484   8.053  2.1349  2.4733 -2.4123
   72CHL1   C17 7758   6.070   1.661   7.964 -0.4019  1.0142  0.4897
   72CHL1   H17 7759   6.170   1.707   7.950 -0.1495  0.7950  1.4927
   72CHL1   C13 7760   6.002   1.659   7.828  0.4190  0.3194 -0.0889
   72CHL1   C18 7761   5.855   1.615   7.852  0.2836  0.5280  0.1753
   72CHL1  H18A 7762   5.796   1.595   7.760  0.8835  0.5991 -0.2324
   72CHL1  H18B 7763   5.837   1.530   7.922 -1.0549  0.5962 -0.0739
   72CHL1  H18C 7764   5.817   1.703   7.908 -1.6354 -0.5760  0.6875
   72CHL1   C12 7765   6.024   1.782   7.744 -0.6730  0.1085  0.2293
   72CHL1  H12A 7766   5.977   1.874   7.785  0.6754  2.4128 -2.9785
   72CHL1  H12B 7767   6.134   1.796   7.740 -0.8915  2.6920  1.5106
   72CHL1   C11 7768   5.966   1.756   7.608  0.3205  0.3025  0.6017
   72CHL1  H11A 7769   5.856   1.740   7.612  0.0509 -1.1954 -4.4762
   72CHL1  H11B 7770   5.976   1.841   7.536  0.3041 -0.9195 -0.8998
   72CHL1    C9 7771   6.033   1.628   7.537  0.1796  0.0865 -0.5589
   72CHL1    H9 7772   6.142   1.652   7.538  0.3536 -0.3964  2.2953
   72CHL1   C10 7773   5.982   1.605   7.394  0.0578  0.1152  0.7939
   72CHL1   C19 7774   5.831   1.613   7.389 -0.5907  0.4371  0.7237
   72CHL1  H19A 7775   5.792   1.716   7.405 -1.2609  0.2324  0.4305
   72CHL1  H19B 7776   5.788   1.585   7.291  0.0380  0.7469  0.3514
   72CHL1  H19C 7777   5.787   1.548   7.467  0.3178 -2.1640 -0.7947
   72CHL1    C1 7778   6.054   1.701   7.287  0.6165 -0.2991  0.0558
   72CHL1   H1A 7779   6.014   1.804   7.299  2.3304  0.4161 -0.0547
   72CHL1   H1B 7780   6.160   1.701   7.321  1.0993 -1.2688 -1.3704
   72CHL1    C2 7781   6.051   1.676   7.135 -0.6276  0.5925  0.3259
   72CHL1   H2A 7782   6.132   1.744   7.099  0.2638 -0.3251  0.5465
   72CHL1   H2B 7783   5.948   1.693   7.096 -0.2133 -0.7420 -1.4667
   72CHL1   C20 7784   6.013   1.740   8.090 -0.2131  0.1907 -0.4011
   72CHL1   H20 7785   5.910   1.702   8.107 -1.0209  2.8770  1.3600
   72CHL1   C21 7786   6.003   1.894   8.060 -0.1693 -0.0368  0.2974
   72CHL1  H21A 7787   6.091   1.944   8.015 -1.4385  2.8843  0.8728
   72CHL1  H21B 7788   5.968   1.949   8.150 -0.9857 -0.1772  0.0682
   72CHL1  H21C 7789   5.918   1.916   7.993  2.3480 -0.0014 -3.1171
   72CHL1   C22 7790   6.105   1.711   8.215 -0.3609  0.6972 -0.9268
   72CHL1  H22A 7791   6.051   1.772   8.291 -4.0806 -0.9375 -2.0512
   72CHL1  H22B 7792   6.114   1.609   8.257 -1.5677  1.3436  1.0461
   72CHL1   C23 7793   6.245   1.762   8.194 -0.4552  0.4312  0.0004
   72CHL1  H23A 7794   6.296   1.692   8.124  1.0008  0.6525  0.7973
   72CHL1  H23B 7795   6.258   1.862   8.148  0.2808  0.9441  1.2635
   72CHL1   C24 7796   6.338   1.751   8.321  0.3165 -0.1440  0.8264
   72CHL1  H24A 7797   6.286   1.813   8.397  0.8375  1.7642 -0.2877
   72CHL1  H24B 7798   6.340   1.644   8.351  0.3726 -0.1478  0.8077
   72CHL1   C25 7799   6.488   1.799   8.304  0.2850  0.0600 -0.5002
   72CHL1   H25 7800   6.488   1.903   8.264  1.5776  0.7159  1.0943
   72CHL1   C26 7801   6.559   1.805   8.437 -0.0149 -0.8189  0.3756
   72CHL1  H26A 7802   6.562   1.706   8.488 -1.2512 -1.4440 -0.7081
   72CHL1  H26B 7803   6.668   1.827   8.430 -0.2217  0.3866  0.7216
   72CHL1  H26C 7804   6.506   1.871   8.510  0.9418  1.1747 -0.6559
   72CHL1   C27 7805   6.563   1.715   8.199 -0.2546  0.2219  0.1176
   72CHL1  H27A 7806   6.662   1.765   8.189  0.0849 -0.3159  0.7229
   72CHL1  H27B 7807   6.581   1.610   8.230  0.2796  0.3049  0.0884
   72CHL1  H27C 7808   6.505   1.724   8.104 -0.2871 -0.2918  0.0867
   73CHL1    C3 7809   4.033   3.822   6.812  0.4570  0.7986 -0.1142
   73CHL1    H3 7810   4.143   3.818   6.826  0.5192  0.2676 -0.7563
   73CHL1    O3 7811   4.017   3.782   6.675  1.0988 -0.2644 -0.6318
   73CHL1   H3' 7812   3.926   3.798   6.649  0.2882 -2.4929  0.5850
   73CHL1    C4 7813   3.945   3.733   6.906 -0.0478 -0.0190  0.5107
   73CHL1   H4A 7814   3.840   3.734   6.868 -0.0049 -0.6040  0.3687
   73CHL1   H4B 7815   3.981   3.630   6.889  1.4800  1.0319 -4.3141
   73CHL1    C5 7816   3.945   3.763   7.057  0.7906 -0.5501 -0.0413
   73CHL1    C6 7817   3.973   3.676   7.151 -0.1984  0.7611 -0.2520
   73CHL1    H6 7818   4.001   3.571   7.132  0.2410  0.2692  2.6295
   73CHL1    C7 7819   3.979   3.705   7.298 -0.0470  0.2229 -0.6094
   73CHL1   H7A 7820   3.938   3.622   7.360  0.5080  1.3154  1.3070
   73CHL1   H7B 7821   4.088   3.713   7.318 -0.2016 -2.0593  1.7870
   73CHL1    C8 7822   3.934   3.848   7.342 -0.3698 -0.3167  0.6665
   73CHL1    H8 7823   3.824   3.840   7.328 -0.1813 -1.4703 -0.2861
   73CHL1   C14 7824   3.995   3.885   7.483  1.6382 -0.1683 -0.2182
   73CHL1   H14 7825   4.105   3.899   7.482  1.5626  0.5224 -2.1744
   73CHL1   C15 7826   3.970   3.779   7.589  0.9018  0.3059  0.0951
   73CHL1  H15A 7827   3.866   3.744   7.571  1.8494 -1.8074 -1.6658
   73CHL1  H15B 7828   4.037   3.690   7.582  3.1479  1.8632  0.5927
   73CHL1   C16 7829   3.988   3.860   7.719 -0.0070  0.0772  0.1735
   73CHL1  H16A 7830   3.904   3.848   7.791 -1.3111 -0.7775 -1.4292
   73CHL1  H16B 7831   4.088   3.826   7.754  0.6065 -0.1562 -1.7142
   73CHL1   C17 7832   4.000   4.011   7.675 -0.0004 -0.2419  0.5269
   73CHL1   H17 7833   4.110   4.022   7.665  0.4478 -1.3470  3.1879
   73CHL1   C13 7834   3.941   4.014   7.533  0.0308  0.4090 -0.2564
   73CHL1   C18 7835   3.781   4.016   7.545 -1.2276  0.3128  0.3032
   73CHL1  H18A 7836   3.728   3.970   7.459  0.6447 -3.0581  0.7785
   73CHL1  H18B 7837   3.751   3.955   7.633 -1.8443  1.2057  0.7300
   73CHL1  H18C 7838   3.741   4.116   7.571 -0.1328  0.9015 -0.1972
   73CHL1   C12 7839   3.988   4.120   7.428  0.1111 -0.4225 -0.3352
   73CHL1  H12A 7840   3.942   4.219   7.449 -0.4621 -0.5420 -1.0084
   73CHL1  H12B 7841   4.099   4.134   7.426 -0.0734  1.9772  1.2722
   73CHL1   C11 7842   3.939   4.090   7.286 -0.0471 -0.1290 -0.3955
   73CHL1  H11A 7843   3.830   4.108   7.288  0.1181  1.0776 -0.8423
   73CHL1  H11B 7844   3.975   4.157   7.204  0.0416 -1.2006 -1.2486
   73CHL1    C9 7845   3.975   3.950   7.232  0.4927 -0.8370 -0.5180
   73CHL1    H9 7846   4.086   3.955   7.228  0.6894 -0.3548  2.8146
   73CHL1   C10 7847   3.919   3.910   7.094 -0.0424 -0.3249  0.3522
   73CHL1   C19 7848   3.771   3.945   7.074 -0.2402 -0.2662 -0.8616
   73CHL1  H19A 7849   3.732   3.922   6.972 -0.7119 -0.4637 -0.6401
   73CHL1  H19B 7850   3.711   3.880   7.141 -0.6935 -0.9851 -1.9355
   73CHL1  H19C 7851   3.741   4.047   7.106  0.3764  0.1514 -1.5836
   73CHL1    C1 7852   3.995   4.003   6.990  0.1142 -0.2125 -0.3892
   73CHL1   H1A 7853   3.970   4.107   7.020 -2.6036 -1.6056  2.8582
   73CHL1   H1B 7854   4.103   3.985   7.011  0.5484 -0.0032 -2.3009
   73CHL1    C2 7855   3.985   3.969   6.835  0.6293 -0.4478 -0.3879
   73CHL1   H2A 7856   4.061   4.027   6.778  1.2287  0.3259  1.1216
   73CHL1   H2B 7857   3.879   3.991   6.808  0.9521  1.9897  0.0275
   73CHL1   C20 7858   3.945   4.105   7.779 -0.4691 -0.0600 -0.4218
   73CHL1   H20 7859   3.838   4.080   7.795 -0.9978 -0.4035 -3.8331
   73CHL1   C21 7860   3.951   4.252   7.732  0.8774 -0.5684  0.7440
   73CHL1  H21A 7861   3.883   4.253   7.644  0.4773 -0.0191  1.0543
   73CHL1  H21B 7862   4.055   4.266   7.694  0.1277 -1.7719 -1.9926
   73CHL1  H21C 7863   3.929   4.331   7.807  0.3410 -0.5359  0.5558
   73CHL1   C22 7864   4.013   4.098   7.920 -0.0193  0.1872 -1.0781
   73CHL1  H22A 7865   4.008   3.995   7.961  1.2794  0.5428  0.0321
   73CHL1  H22B 7866   4.118   4.131   7.906  0.5326 -1.6463 -1.5519
   73CHL1   C23 7867   3.945   4.185   8.030  0.4436 -0.1821 -0.0265
   73CHL1  H23A 7868   4.006   4.186   8.123 -0.5352  1.4038  0.6392
   73CHL1  H23B 7869   3.947   4.292   8.001  0.0710 -0.0360  0.4754
   73CHL1   C24 7870   3.795   4.146   8.065  0.7952  0.0838  1.0937
   73CHL1  H24A 7871   3.735   4.186   7.980  2.0956  1.2374  0.6810
   73CHL1  H24B 7872   3.775   4.037   8.067  0.5818  0.1130  0.5689
   73CHL1   C25 7873   3.750   4.207   8.201  0.0429 -0.1016  0.3952
   73CHL1   H25 7874   3.774   4.314   8.182  1.9832 -0.2781  1.5845
   73CHL1   C26 7875   3.605   4.184   8.212 -0.8487 -0.2489  0.1098
   73CHL1  H26A 7876   3.567   4.161   8.110  0.2899  0.7552 -0.5621
   73CHL1  H26B 7877   3.583   4.096   8.277  0.5661 -0.4606  0.3490
   73CHL1  H26C 7878   3.563   4.276   8.257 -0.4299  0.4161 -0.8356
   73CHL1   C27 7879   3.821   4.170   8.329  0.6122 -0.7576 -0.8011
   73CHL1  H27A 7880   3.780   4.225   8.417  2.9446  0.3200 -0.3329
   73CHL1  H27B 7881   3.797   4.064   8.355 -0.4907 -0.2631  0.3326
   73CHL1  H27C 7882   3.929   4.192   8.327  0.4053  0.6817  0.9534
   74CHL1    C3 7883   1.312   3.476   7.001  0.5401  0.4994  0.5887
   74CHL1    H3 7884   1.214   3.527   6.990 -1.1750 -2.1788  2.2999
   74CHL1    O3 7885   1.334   3.407   6.878  0.3936 -0.1689 -0.2505
   74CHL1   H3' 7886   1.262   3.343   6.881  1.6142 -1.5610  1.6738
   74CHL1    C4 7887   1.424   3.582   7.015  0.2141 -0.8174  0.1889
   74CHL1   H4A 7888   1.525   3.536   7.021 -0.0318 -1.2049  4.2221
   74CHL1   H4B 7889   1.419   3.637   6.918 -3.4972 -1.6419 -0.2207
   74CHL1    C5 7890   1.399   3.675   7.134 -0.1376  0.4100  0.2675
   74CHL1    C6 7891   1.396   3.807   7.125  0.3521  0.1401 -0.8021
   74CHL1    H6 7892   1.424   3.852   7.028 -0.3263 -0.9903 -1.5475
   74CHL1    C7 7893   1.389   3.894   7.247  0.3788  0.3497  0.0490
   74CHL1   H7A 7894   1.464   3.975   7.234 -0.2804  0.6756 -2.1360
   74CHL1   H7B 7895   1.294   3.952   7.253  0.1811  0.0256  0.0769
   74CHL1    C8 7896   1.416   3.823   7.381  0.0440  0.8507 -0.0638
   74CHL1    H8 7897   1.525   3.805   7.393  0.1444  1.5194  0.0393
   74CHL1   C14 7898   1.369   3.903   7.502  0.2725 -0.0539 -0.0661
   74CHL1   H14 7899   1.259   3.911   7.486 -0.0658  0.0095  1.9657
   74CHL1   C15 7900   1.421   4.046   7.524 -0.0209 -0.4777  0.8495
   74CHL1  H15A 7901   1.524   4.051   7.483 -0.9598  1.3056 -1.5238
   74CHL1  H15B 7902   1.356   4.121   7.474 -0.4599 -0.2604  1.7283
   74CHL1   C16 7903   1.415   4.073   7.675  0.0722 -0.1206 -0.1181
   74CHL1  H16A 7904   1.517   4.103   7.706 -0.3369 -0.3083  1.4919
   74CHL1  H16B 7905   1.345   4.155   7.703  1.5173  0.5740  1.6615
   74CHL1   C17 7906   1.366   3.949   7.745  0.3025 -0.1897  0.1602
   74CHL1   H17 7907   1.256   3.952   7.756  0.1957  1.7938 -0.9517
   74CHL1   C13 7908   1.396   3.831   7.639  0.8756  0.5119 -0.4842
   74CHL1   C18 7909   1.543   3.801   7.661  0.2565  0.6039  0.1862
   74CHL1  H18A 7910   1.574   3.769   7.763  0.7074  1.3729  0.3036
   74CHL1  H18B 7911   1.568   3.715   7.596  0.9644  1.2561 -0.4174
   74CHL1  H18C 7912   1.615   3.879   7.628  1.3854 -1.2286 -1.9046
   74CHL1   C12 7913   1.310   3.706   7.640  0.6546  0.1458 -0.5703
   74CHL1  H12A 7914   1.340   3.647   7.730  0.0511 -0.0079 -0.4680
   74CHL1  H12B 7915   1.205   3.739   7.649  0.9660  0.9483  0.3751
   74CHL1   C11 7916   1.334   3.621   7.516 -0.3185 -0.8141  0.3488
   74CHL1  H11A 7917   1.425   3.564   7.548  2.4631  2.5253 -0.9868
   74CHL1  H11B 7918   1.250   3.549   7.502 -0.7495 -0.2562  0.0414
   74CHL1    C9 7919   1.340   3.688   7.379 -0.0644 -0.3721  0.1835
   74CHL1    H9 7920   1.242   3.730   7.349  1.8650  3.2914 -1.7032
   74CHL1   C10 7921   1.394   3.598   7.265 -0.3594 -0.3940 -0.7956
   74CHL1   C19 7922   1.534   3.537   7.304  0.5472  0.8337  0.0743
   74CHL1  H19A 7923   1.605   3.623   7.308 -0.2404  1.5943 -1.3895
   74CHL1  H19B 7924   1.528   3.490   7.404 -3.5142  1.3936  0.2347
   74CHL1  H19C 7925   1.583   3.475   7.227 -0.7552 -1.7082  1.1881
   74CHL1    C1 7926   1.299   3.475   7.245  0.0634  0.2903  0.0479
   74CHL1   H1A 7927   1.312   3.415   7.337 -1.1243  3.9133  2.7988
   74CHL1   H1B 7928   1.193   3.508   7.239  0.2562  0.7261 -1.2258
   74CHL1    C2 7929   1.333   3.391   7.119  0.2856  1.1984  0.3736
   74CHL1   H2A 7930   1.255   3.312   7.110  1.6853 -0.0929 -1.1633
   74CHL1   H2B 7931   1.434   3.344   7.127 -0.2039  0.2281  1.0511
   74CHL1   C20 7932   1.422   3.941   7.888 -0.1249 -0.1732  0.1550
   74CHL1   H20 7933   1.533   3.929   7.890 -0.1484 -0.4554 -0.1485
   74CHL1   C21 7934   1.366   3.809   7.945 -0.3909  0.2851  0.6936
   74CHL1  H21A 7935   1.360   3.803   8.056 -0.4059 -1.7681  0.6266
   74CHL1  H21B 7936   1.424   3.730   7.892  0.9640  0.1340  2.3418
   74CHL1  H21C 7937   1.258   3.796   7.919 -0.6482  0.4811  1.6386
   74CHL1   C22 7938   1.393   4.066   7.987 -0.1364 -0.3996 -0.0329
   74CHL1  H22A 7939   1.409   4.156   7.924 -1.5577 -1.2382 -1.6872
   74CHL1  H22B 7940   1.285   4.075   8.012 -0.3192  0.5465 -1.0467
   74CHL1   C23 7941   1.476   4.081   8.117 -0.6690  0.2744  0.9817
   74CHL1  H23A 7942   1.562   4.010   8.105 -0.3319  1.0622 -1.9337
   74CHL1  H23B 7943   1.515   4.184   8.125  2.0620 -0.5144 -0.5113
   74CHL1   C24 7944   1.399   4.033   8.247  0.3452 -0.6412  0.3766
   74CHL1  H24A 7945   1.313   4.094   8.283  1.0541 -0.6138  2.1471
   74CHL1  H24B 7946   1.378   3.925   8.237  0.8323 -0.7905  0.8877
   74CHL1   C25 7947   1.494   4.040   8.375  0.5529  0.4374  0.3796
   74CHL1   H25 7948   1.581   3.974   8.358 -0.5779 -0.9342 -0.3273
   74CHL1   C26 7949   1.544   4.180   8.400  1.2479 -0.1531  0.2267
   74CHL1  H26A 7950   1.627   4.166   8.473  0.4769 -0.8187  1.0126
   74CHL1  H26B 7951   1.587   4.231   8.311  0.2574 -1.1755 -0.8679
   74CHL1  H26C 7952   1.471   4.252   8.443  2.1884  0.5369  0.6918
   74CHL1   C27 7953   1.437   3.996   8.507 -0.2001 -0.5345  0.4920
   74CHL1  H27A 7954   1.508   4.019   8.589  1.1143 -2.7846  0.0490
   74CHL1  H27B 7955   1.340   4.048   8.525 -0.1756 -0.5795  0.7537
   74CHL1  H27C 7956   1.442   3.885   8.511  0.6979 -0.4708  1.5771
   75CHL1    C3 7957   5.720   5.087   6.612  0.1867  0.1994  0.1213
   75CHL1    H3 7958   5.678   5.189   6.612  0.7682  0.4510 -0.8843
   75CHL1    O3 7959   5.706   5.036   6.484  0.5917  0.1195 -0.1105
   75CHL1   H3' 7960   5.611   5.023   6.476  0.8040 -2.4019  0.5331
   75CHL1    C4 7961   5.868   5.081   6.655  0.3334  0.1131  0.1929
   75CHL1   H4A 7962   5.897   4.974   6.644  1.6626  0.6679 -2.6436
   75CHL1   H4B 7963   5.949   5.124   6.591  0.0657 -0.7277 -0.7302
   75CHL1    C5 7964   5.878   5.127   6.801  0.6544 -0.4540  0.2463
   75CHL1    C6 7965   5.962   5.225   6.836 -0.1467 -0.2703 -0.3171
   75CHL1    H6 7966   6.030   5.277   6.766  0.1632  2.3384  1.7803
   75CHL1    C7 7967   5.982   5.283   6.976 -0.3678  0.4288  0.7339
   75CHL1   H7A 7968   6.085   5.316   6.999 -0.1225  0.9205 -0.8993
   75CHL1   H7B 7969   5.919   5.375   6.969 -0.7832  0.1744  1.0607
   75CHL1    C8 7970   5.918   5.180   7.087 -0.5742 -0.8580  0.5764
   75CHL1    H8 7971   5.988   5.094   7.086 -0.5820 -0.8786  1.4475
   75CHL1   C14 7972   5.904   5.253   7.222  0.0375  0.8121 -0.1465
   75CHL1   H14 7973   5.820   5.322   7.198 -1.6908  0.4017  3.8293
   75CHL1   C15 7974   6.018   5.328   7.283  0.1686 -0.4592 -0.2156
   75CHL1  H15A 7975   6.111   5.267   7.279 -0.5231 -1.5505  0.1137
   75CHL1  H15B 7976   6.047   5.428   7.245 -0.3202  0.8050  2.4911
   75CHL1   C16 7977   5.986   5.348   7.432  0.3683 -0.5588 -0.2441
   75CHL1  H16A 7978   6.061   5.295   7.494 -1.0146 -3.3084 -0.7599
   75CHL1  H16B 7979   5.978   5.456   7.456  0.6427 -0.0676 -2.1844
   75CHL1   C17 7980   5.851   5.271   7.460  0.5457  0.6556  0.8276
   75CHL1   H17 7981   5.766   5.341   7.446 -1.9898 -2.4084 -0.2449
   75CHL1   C13 7982   5.849   5.169   7.334  0.2203 -0.1509 -0.1623
   75CHL1   C18 7983   5.948   5.057   7.370 -0.8544 -0.3397 -0.2797
   75CHL1  H18A 7984   6.039   5.099   7.418 -0.7525 -2.3010  1.3944
   75CHL1  H18B 7985   5.908   4.981   7.440  0.9244 -1.9458 -0.9065
   75CHL1  H18C 7986   5.987   5.000   7.283  2.2460  2.3480 -0.8381
   75CHL1   C12 7987   5.713   5.104   7.305 -0.4167  0.4829 -0.1875
   75CHL1  H12A 7988   5.682   5.030   7.382 -0.7071 -2.0251 -2.5393
   75CHL1  H12B 7989   5.639   5.187   7.311  0.7577  1.4750  1.1994
   75CHL1   C11 7990   5.715   5.035   7.165 -0.3239  0.0032  0.1124
   75CHL1  H11A 7991   5.780   4.947   7.179 -0.5843 -0.2167 -0.0596
   75CHL1  H11B 7992   5.611   5.010   7.135 -0.5281 -1.4189  1.8920
   75CHL1    C9 7993   5.777   5.124   7.050 -0.4103 -0.5242  0.3925
   75CHL1    H9 7994   5.716   5.216   7.055 -0.4534 -0.5440  0.2452
   75CHL1   C10 7995   5.784   5.059   6.907 -0.6794  0.2976  0.2722
   75CHL1   C19 7996   5.819   4.907   6.924 -0.3953 -0.2560  0.1442
   75CHL1  H19A 7997   5.837   4.863   6.824 -1.5468 -0.8234  0.1702
   75CHL1  H19B 7998   5.907   4.891   6.990 -0.0196 -1.3865 -0.6090
   75CHL1  H19C 7999   5.729   4.855   6.965 -0.6350  0.8354  1.0436
   75CHL1    C1 8000   5.640   5.047   6.850 -0.2353 -0.6338 -0.7547
   75CHL1   H1A 8001   5.576   4.993   6.922 -2.5703  1.7875 -0.8454
   75CHL1   H1B 8002   5.591   5.147   6.855 -1.2884 -1.0853 -1.8711
   75CHL1    C2 8003   5.636   5.003   6.707 -0.0256  0.1144 -0.5013
   75CHL1   H2A 8004   5.536   4.984   6.664 -0.8162  2.4841  0.1438
   75CHL1   H2B 8005   5.691   4.907   6.708  1.2444  0.7986  1.3052
   75CHL1   C20 8006   5.840   5.216   7.601 -0.3179 -0.6743 -0.4423
   75CHL1   H20 8007   5.915   5.134   7.613  0.3288 -0.6967 -3.7193
   75CHL1   C21 8008   5.704   5.161   7.632 -0.8246 -0.0463 -0.3308
   75CHL1  H21A 8009   5.710   5.121   7.736 -2.2814  0.0270 -0.1994
   75CHL1  H21B 8010   5.661   5.085   7.564 -1.1883  0.1132 -0.2819
   75CHL1  H21C 8011   5.628   5.240   7.648  1.3011  2.2386 -0.9096
   75CHL1   C22 8012   5.871   5.328   7.709 -0.2878 -1.3179 -0.5571
   75CHL1  H22A 8013   5.975   5.355   7.682 -1.1798 -0.2355 -3.3531
   75CHL1  H22B 8014   5.802   5.416   7.707 -1.0585 -1.9174 -1.1364
   75CHL1   C23 8015   5.886   5.285   7.858  0.4504 -0.0077  0.7732
   75CHL1  H23A 8016   5.917   5.178   7.851  4.4795  0.9366  1.4396
   75CHL1  H23B 8017   5.982   5.326   7.895  0.9151  0.0854 -0.4806
   75CHL1   C24 8018   5.769   5.331   7.945  0.1680 -0.4228 -0.7205
   75CHL1  H24A 8019   5.761   5.441   7.948  1.1963 -0.3532  0.0377
   75CHL1  H24B 8020   5.675   5.290   7.903 -0.6456  1.1201 -0.4656
   75CHL1   C25 8021   5.785   5.290   8.091 -0.3755 -0.7871 -0.2415
   75CHL1   H25 8022   5.793   5.180   8.091 -0.3613 -0.7872 -0.4302
   75CHL1   C26 8023   5.922   5.342   8.138  0.6118 -0.2420 -0.0236
   75CHL1  H26A 8024   5.919   5.335   8.249 -1.6643 -1.3299 -0.1095
   75CHL1  H26B 8025   6.005   5.274   8.107  0.8599 -0.1360  0.4028
   75CHL1  H26C 8026   5.941   5.441   8.090  0.2939 -1.7738 -3.6493
   75CHL1   C27 8027   5.671   5.335   8.180  0.0391  0.3167  0.3973
   75CHL1  H27A 8028   5.690   5.313   8.287  1.5048  3.0058  0.7959
   75CHL1  H27B 8029   5.651   5.445   8.174  1.9947  0.6496 -0.9804
   75CHL1  H27C 8030   5.576   5.298   8.136  1.9040 -1.5181 -2.3449
   76CHL1    C3 8031   2.800   5.936   7.182  0.4098 -0.7351  0.0977
   76CHL1    H3 8032   2.735   6.023   7.206  1.0277  0.7361 -3.1348
   76CHL1    O3 8033   2.848   5.939   7.043 -0.5093 -0.5917 -0.6537
   76CHL1   H3' 8034   2.769   5.950   6.990 -2.1216 -1.7361  1.3295
   76CHL1    C4 8035   2.916   5.933   7.277 -0.6163 -0.3525 -0.2445
   76CHL1   H4A 8036   2.988   5.858   7.239  0.5936  1.2866 -1.3007
   76CHL1   H4B 8037   2.960   6.034   7.260 -0.1219 -0.6259 -0.5956
   76CHL1    C5 8038   2.887   5.906   7.421 -1.1695  0.2166 -0.8211
   76CHL1    C6 8039   2.925   5.992   7.516  0.8105 -0.5128 -0.8322
   76CHL1    H6 8040   2.981   6.084   7.492 -0.1250 -0.2234 -2.0041
   76CHL1    C7 8041   2.889   5.971   7.658  0.1030 -0.2201  0.3765
   76CHL1   H7A 8042   2.981   5.986   7.719  0.7135  0.0484 -0.5872
   76CHL1   H7B 8043   2.812   6.044   7.689 -1.2044 -1.6887  0.7399
   76CHL1    C8 8044   2.835   5.830   7.686  0.2684 -0.3978  0.5312
   76CHL1    H8 8045   2.913   5.752   7.678  0.2183 -0.3586 -0.4021
   76CHL1   C14 8046   2.770   5.825   7.821  0.8694  0.3499  0.0237
   76CHL1   H14 8047   2.681   5.892   7.818  0.3623 -0.1102  2.4094
   76CHL1   C15 8048   2.852   5.875   7.940  0.2742  0.7584  0.2274
   76CHL1  H15A 8049   2.952   5.826   7.934 -0.8729 -1.8653  1.0156
   76CHL1  H15B 8050   2.868   5.985   7.948  2.5473  0.4363  1.0211
   76CHL1   C16 8051   2.780   5.814   8.061  0.8756 -0.5933 -0.1482
   76CHL1  H16A 8052   2.854   5.749   8.113 -0.1103 -1.0666  0.7061
   76CHL1  H16B 8053   2.741   5.895   8.126  1.1304  0.6610 -1.5030
   76CHL1   C17 8054   2.669   5.723   8.003 -0.4288  0.4578 -0.1158
   76CHL1   H17 8055   2.576   5.784   8.004 -0.0196  1.0914 -0.3700
   76CHL1   C13 8056   2.707   5.688   7.866  0.3493 -0.3633  0.5297
   76CHL1   C18 8057   2.812   5.579   7.856  0.1675  0.6497  0.3656
   76CHL1  H18A 8058   2.894   5.598   7.929 -0.7455 -1.6362  2.0897
   76CHL1  H18B 8059   2.763   5.483   7.882 -1.4275  1.1262 -0.7364
   76CHL1  H18C 8060   2.852   5.559   7.754  2.7043  1.1621  1.2023
   76CHL1   C12 8061   2.589   5.672   7.763  0.8458  0.2662 -0.6501
   76CHL1  H12A 8062   2.534   5.577   7.779  1.6862 -0.0935  0.2078
   76CHL1  H12B 8063   2.516   5.754   7.775 -0.3778 -0.8629 -0.0910
   76CHL1   C11 8064   2.645   5.664   7.619 -0.3588  0.4103 -0.5349
   76CHL1  H11A 8065   2.699   5.567   7.618  1.2996  1.2962 -0.4300
   76CHL1  H11B 8066   2.553   5.668   7.556 -1.2175  1.2221  0.7327
   76CHL1    C9 8067   2.735   5.783   7.577 -0.3000  0.2651 -0.1566
   76CHL1    H9 8068   2.661   5.866   7.582  0.7373  1.3608 -1.8284
   76CHL1   C10 8069   2.800   5.779   7.444  0.1259  0.0363 -0.2925
   76CHL1   C19 8070   2.891   5.657   7.431 -0.5605  1.2547  0.5614
   76CHL1  H19A 8071   2.973   5.651   7.506 -0.2016  0.2508  0.1042
   76CHL1  H19B 8072   2.831   5.566   7.449  0.5447  0.3075 -0.3491
   76CHL1  H19C 8073   2.939   5.643   7.332  0.0272  0.4025  0.9514
   76CHL1    C1 8074   2.688   5.767   7.332 -0.0247  1.0415 -0.4207
   76CHL1   H1A 8075   2.648   5.664   7.347  5.7655 -1.2246  2.6338
   76CHL1   H1B 8076   2.611   5.838   7.369 -0.6104  0.8690 -1.2658
   76CHL1    C2 8077   2.720   5.809   7.192 -0.3489  0.6153 -0.5745
   76CHL1   H2A 8078   2.635   5.800   7.120 -0.1058 -2.2809 -0.6171
   76CHL1   H2B 8079   2.790   5.733   7.152 -0.0250 -0.1778  1.3880
   76CHL1   C20 8080   2.629   5.611   8.098 -0.1549 -0.2740 -0.1395
   76CHL1   H20 8081   2.717   5.542   8.104  1.8007  2.1012  0.0044
   76CHL1   C21 8082   2.497   5.541   8.067 -0.4241 -0.0451  0.3695
   76CHL1  H21A 8083   2.410   5.606   8.042 -0.9027 -0.9231 -0.3186
   76CHL1  H21B 8084   2.464   5.467   8.143 -2.8042  1.5293  1.0082
   76CHL1  H21C 8085   2.518   5.492   7.970 -1.9447  0.2378 -0.1381
   76CHL1   C22 8086   2.610   5.644   8.249 -0.1262 -0.1963  0.4489
   76CHL1  H22A 8087   2.576   5.552   8.300 -1.5594 -0.8461 -1.5405
   76CHL1  H22B 8088   2.704   5.690   8.286  0.0294  0.4811 -0.7256
   76CHL1   C23 8089   2.494   5.744   8.278  0.0378 -0.8261 -0.4717
   76CHL1  H23A 8090   2.528   5.838   8.230  0.3291  0.1706  1.5760
   76CHL1  H23B 8091   2.397   5.714   8.231 -0.2268 -0.8509  0.0803
   76CHL1   C24 8092   2.473   5.767   8.430 -0.6030 -0.3137  0.2445
   76CHL1  H24A 8093   2.447   5.671   8.480 -0.3439  1.2836  3.7783
   76CHL1  H24B 8094   2.561   5.802   8.488 -0.7340 -0.2969  0.4345
   76CHL1   C25 8095   2.364   5.874   8.459  0.0148 -0.0178 -0.0498
   76CHL1   H25 8096   2.270   5.839   8.411 -0.9202 -0.2726  1.8678
   76CHL1   C26 8097   2.323   5.875   8.601 -0.8991  0.3545  0.0237
   76CHL1  H26A 8098   2.295   5.773   8.635 -0.4532 -0.5045 -2.0638
   76CHL1  H26B 8099   2.410   5.903   8.665 -1.3610 -0.8618  1.2364
   76CHL1  H26C 8100   2.239   5.945   8.623  0.2095  1.5603  0.6156
   76CHL1   C27 8101   2.396   6.019   8.420  0.2646 -0.0003  0.1141
   76CHL1  H27A 8102   2.467   6.037   8.504  1.7105 -3.5479 -0.1510
   76CHL1  H27B 8103   2.450   6.030   8.324 -0.7813 -2.2392 -0.8170
   76CHL1  H27C 8104   2.304   6.080   8.433 -0.0887 -0.5584  0.2780
   77CHL1    C3 8105   3.655   4.447   6.905 -0.3471 -0.0702 -1.1500
   77CHL1    H3 8106   3.544   4.446   6.905 -0.3543  0.3019 -1.3508
   77CHL1    O3 8107   3.696   4.424   6.773  0.2824 -0.1839  0.1853
   77CHL1   H3' 8108   3.791   4.431   6.773  0.5305 -2.1859  2.2596
   77CHL1    C4 8109   3.720   4.580   6.952 -0.3765 -0.4358 -1.2659
   77CHL1   H4A 8110   3.831   4.578   6.942 -0.2398 -4.3388 -0.4112
   77CHL1   H4B 8111   3.687   4.667   6.891  0.4485  0.4958 -0.4312
   77CHL1    C5 8112   3.683   4.602   7.098 -0.6723 -0.4665 -0.2121
   77CHL1    C6 8113   3.619   4.717   7.128  0.2670  0.0123 -0.8090
   77CHL1    H6 8114   3.584   4.790   7.054 -1.7363  0.7712  0.8072
   77CHL1    C7 8115   3.590   4.761   7.268  0.0544  0.1992 -0.3220
   77CHL1   H7A 8116   3.620   4.865   7.291 -3.0961  1.1280  0.0671
   77CHL1   H7B 8117   3.479   4.753   7.275  0.1080  0.4270  0.8430
   77CHL1    C8 8118   3.646   4.667   7.380 -0.6212  0.4625  0.2647
   77CHL1    H8 8119   3.752   4.698   7.386 -0.5124 -0.0646  1.2175
   77CHL1   C14 8120   3.580   4.678   7.512  0.3463  0.6756 -0.9203
   77CHL1   H14 8121   3.480   4.633   7.491 -0.5803  2.5698 -0.7694
   77CHL1   C15 8122   3.551   4.815   7.569 -0.5975  0.0865 -0.0128
   77CHL1  H15A 8123   3.649   4.868   7.569 -1.5954  2.0508 -1.5351
   77CHL1  H15B 8124   3.484   4.875   7.504 -0.5345  1.1382  0.8708
   77CHL1   C16 8125   3.527   4.784   7.718  0.1996 -0.0671  0.2521
   77CHL1  H16A 8126   3.593   4.834   7.792 -0.4508 -1.8198  2.1090
   77CHL1  H16B 8127   3.420   4.797   7.743  0.0384  0.6276 -0.7006
   77CHL1   C17 8128   3.559   4.634   7.744 -0.1965  0.1323  0.2489
   77CHL1   H17 8129   3.461   4.584   7.729 -0.7411  1.4492 -0.7739
   77CHL1   C13 8130   3.647   4.584   7.624 -0.2347 -0.2381 -0.4247
   77CHL1   C18 8131   3.795   4.613   7.654  0.0072  0.1925 -0.0254
   77CHL1  H18A 8132   3.804   4.716   7.695 -1.0569 -0.2092  1.2709
   77CHL1  H18B 8133   3.831   4.538   7.728 -1.1227  0.1190  0.4755
   77CHL1  H18C 8134   3.856   4.613   7.561 -0.8438  2.3980 -0.6575
   77CHL1   C12 8135   3.624   4.438   7.576  0.2974 -0.6086 -0.6469
   77CHL1  H12A 8136   3.652   4.361   7.651 -1.3764  1.6699  2.5060
   77CHL1  H12B 8137   3.514   4.435   7.586  0.4794 -0.6416  1.7677
   77CHL1   C11 8138   3.688   4.412   7.437 -1.4377  0.1400 -0.1723
   77CHL1  H11A 8139   3.799   4.413   7.444 -0.8583  0.5308 -5.4258
   77CHL1  H11B 8140   3.656   4.312   7.401  1.4366 -0.9038 -0.1461
   77CHL1    C9 8141   3.645   4.521   7.331 -0.0869 -0.0827  0.7928
   77CHL1    H9 8142   3.535   4.512   7.315  0.0291 -0.1106  0.0037
   77CHL1   C10 8143   3.714   4.496   7.195 -0.0976 -0.3603  0.3772
   77CHL1   C19 8144   3.864   4.506   7.219 -0.2630 -0.1283 -0.2573
   77CHL1  H19A 8145   3.890   4.590   7.286 -1.6148  0.1410 -0.0432
   77CHL1  H19B 8146   3.905   4.414   7.265 -0.9531 -0.3112  0.0099
   77CHL1  H19C 8147   3.919   4.524   7.124  0.6330 -0.8458  0.1113
   77CHL1    C1 8148   3.670   4.358   7.137 -0.2513  0.4344 -0.7009
   77CHL1   H1A 8149   3.718   4.288   7.208 -0.1333  0.1129 -1.0968
   77CHL1   H1B 8150   3.560   4.337   7.137 -0.2798 -0.0239  2.6263
   77CHL1    C2 8151   3.708   4.332   6.990 -0.1651 -0.2523 -0.2307
   77CHL1   H2A 8152   3.668   4.231   6.966  0.4944  0.0482 -2.7922
   77CHL1   H2B 8153   3.818   4.330   6.978 -0.1858  0.1878 -0.4956
   77CHL1   C20 8154   3.613   4.599   7.883  0.2676 -0.3939 -0.5253
   77CHL1   H20 8155   3.716   4.640   7.899  0.0404  0.4332 -1.0741
   77CHL1   C21 8156   3.610   4.448   7.908  0.2914 -0.6071  0.1682
   77CHL1  H21A 8157   3.712   4.410   7.891  0.3873  0.1419 -1.0797
   77CHL1  H21B 8158   3.533   4.389   7.855 -0.3435  0.4639 -0.1434
   77CHL1  H21C 8159   3.590   4.429   8.016 -0.9692 -2.1138 -0.2921
   77CHL1   C22 8160   3.522   4.670   7.984 -0.2684  0.0325 -0.4002
   77CHL1  H22A 8161   3.496   4.777   7.970 -0.4443  0.2736  1.5015
   77CHL1  H22B 8162   3.430   4.607   7.986 -0.3146  0.0556 -1.2909
   77CHL1   C23 8163   3.591   4.668   8.129  0.2914 -0.4791 -0.2925
   77CHL1  H23A 8164   3.619   4.564   8.158  0.4023  0.0141  1.4978
   77CHL1  H23B 8165   3.686   4.724   8.123 -0.1971  0.2552 -1.4082
   77CHL1   C24 8166   3.505   4.735   8.245  0.5806 -0.4834 -0.5752
   77CHL1  H24A 8167   3.460   4.834   8.224  3.3939  1.3311  1.3539
   77CHL1  H24B 8168   3.427   4.659   8.265 -1.1479  1.2334 -0.5956
   77CHL1   C25 8169   3.583   4.759   8.374  0.5812 -0.1686  0.5115
   77CHL1   H25 8170   3.513   4.803   8.448 -1.5086 -1.7621 -0.4102
   77CHL1   C26 8171   3.626   4.628   8.443  0.1868  0.1392 -0.0268
   77CHL1  H26A 8172   3.688   4.565   8.376 -1.1175 -1.5468  0.2768
   77CHL1  H26B 8173   3.667   4.649   8.544 -2.0340  2.4446  0.4985
   77CHL1  H26C 8174   3.542   4.556   8.455 -1.2742  1.4939 -1.6443
   77CHL1   C27 8175   3.702   4.852   8.368 -0.2946  0.6538  0.1093
   77CHL1  H27A 8176   3.727   4.890   8.469  1.8744 -0.3271  0.0027
   77CHL1  H27B 8177   3.798   4.812   8.327  1.6671  2.9971  2.0794
   77CHL1  H27C 8178   3.676   4.946   8.316  2.9407  0.5198 -2.0957
   78CHL1    C3 8179   6.108   6.262   6.805 -0.4386  0.1290  0.2305
   78CHL1    H3 8180   6.106   6.153   6.828  1.1567  0.6772  3.4782
   78CHL1    O3 8181   6.115   6.280   6.665 -0.5067 -0.9605  0.0114
   78CHL1   H3' 8182   6.136   6.373   6.655  1.1456 -1.1223  1.5650
   78CHL1    C4 8183   5.981   6.326   6.849 -0.9070 -0.2042 -0.0782
   78CHL1   H4A 8184   5.971   6.432   6.816  1.8732 -0.0403 -0.6189
   78CHL1   H4B 8185   5.896   6.272   6.802 -1.2267 -0.1687  0.4604
   78CHL1    C5 8186   5.974   6.324   6.999  0.1505  0.4647  0.0722
   78CHL1    C6 8187   5.866   6.275   7.054 -0.5611 -0.1297 -0.5136
   78CHL1    H6 8188   5.793   6.233   6.983 -0.8535  1.0388 -0.9295
   78CHL1    C7 8189   5.837   6.276   7.206 -0.7657 -0.1682  0.6653
   78CHL1   H7A 8190   5.740   6.325   7.227 -0.4785 -0.3593  2.6953
   78CHL1   H7B 8191   5.844   6.174   7.250 -2.0257 -1.4581 -1.8802
   78CHL1    C8 8192   5.944   6.356   7.292  0.0133  0.1772  0.5906
   78CHL1    H8 8193   5.908   6.461   7.284 -1.8731 -0.3695  1.1666
   78CHL1   C14 8194   5.943   6.322   7.436  0.0032  0.3805 -0.3173
   78CHL1   H14 8195   5.980   6.218   7.436 -0.8312 -0.0348 -3.9861
   78CHL1   C15 8196   5.810   6.333   7.510 -0.1480 -0.1476  0.2083
   78CHL1  H15A 8197   5.762   6.429   7.481 -1.8518 -1.0033  0.0312
   78CHL1  H15B 8198   5.733   6.256   7.486 -0.3373  0.4221 -1.1267
   78CHL1   C16 8199   5.848   6.346   7.662 -0.2745 -0.2096 -0.0170
   78CHL1  H16A 8200   5.799   6.440   7.696 -0.0650  0.6370 -1.9252
   78CHL1  H16B 8201   5.817   6.264   7.730  0.7911 -0.1141  0.5959
   78CHL1   C17 8202   5.999   6.355   7.666 -0.8090 -0.8961  0.0515
   78CHL1   H17 8203   6.046   6.256   7.681  2.8817  0.4880 -1.0230
   78CHL1   C13 8204   6.047   6.400   7.523 -0.3242  0.4658  0.3904
   78CHL1   C18 8205   6.029   6.554   7.511 -0.1646  0.0247  0.3477
   78CHL1  H18A 8206   5.925   6.578   7.544 -1.0230  1.3419 -2.8284
   78CHL1  H18B 8207   6.111   6.602   7.568 -1.5640  0.9190  1.6762
   78CHL1  H18C 8208   6.030   6.596   7.408 -0.9459 -0.4055  0.1554
   78CHL1   C12 8209   6.183   6.360   7.469 -1.0576 -0.3634  0.1180
   78CHL1  H12A 8210   6.261   6.420   7.521 -1.0435  1.9220 -2.3439
   78CHL1  H12B 8211   6.194   6.250   7.480  0.3468 -0.2251  0.2519
   78CHL1   C11 8212   6.197   6.401   7.316 -0.2205  0.8178 -0.1816
   78CHL1  H11A 8213   6.199   6.512   7.316  0.6298  0.8153 -0.6910
   78CHL1  H11B 8214   6.294   6.364   7.276 -1.1329 -1.1958 -0.6645
   78CHL1    C9 8215   6.083   6.334   7.229  0.0553 -0.4272  0.0029
   78CHL1    H9 8216   6.107   6.226   7.230 -0.4697 -0.6174  3.8468
   78CHL1   C10 8217   6.088   6.383   7.079 -0.4703  0.4332 -0.3047
   78CHL1   C19 8218   6.083   6.536   7.072 -0.2921 -0.1462 -0.7479
   78CHL1  H19A 8219   6.179   6.590   7.088 -0.6695  0.3401 -0.0677
   78CHL1  H19B 8220   6.047   6.568   6.972 -1.3056  0.1705 -0.2937
   78CHL1  H19C 8221   6.027   6.586   7.154 -0.1283  0.1342 -0.8040
   78CHL1    C1 8222   6.225   6.324   7.018  0.3909 -0.2148  0.0225
   78CHL1   H1A 8223   6.316   6.378   7.051  1.1327  0.0062 -2.2064
   78CHL1   H1B 8224   6.234   6.216   7.044  1.0645 -0.3844 -0.8600
   78CHL1    C2 8225   6.232   6.332   6.866 -0.1550  0.9226 -0.6819
   78CHL1   H2A 8226   6.330   6.303   6.823  1.2686  0.7681  2.4645
   78CHL1   H2B 8227   6.225   6.442   6.853 -0.5548  1.1783  1.4116
   78CHL1   C20 8228   6.048   6.441   7.791 -0.1109 -0.0160 -0.1427
   78CHL1   H20 8229   6.035   6.550   7.776  1.3195  0.0062 -1.4856
   78CHL1   C21 8230   6.205   6.424   7.806 -0.0371  0.8630 -0.3091
   78CHL1  H21A 8231   6.258   6.468   7.719  0.1689  1.6867  0.2115
   78CHL1  H21B 8232   6.226   6.316   7.814 -1.1561  0.6332 -0.3233
   78CHL1  H21C 8233   6.243   6.487   7.890 -1.2805  0.9986  0.1785
   78CHL1   C22 8234   5.981   6.398   7.925 -0.2671  0.0621 -0.4673
   78CHL1  H22A 8235   5.874   6.426   7.913 -0.1500  0.7476  0.0539
   78CHL1  H22B 8236   5.990   6.288   7.940  1.7145  0.1854 -0.4270
   78CHL1   C23 8237   6.029   6.475   8.051 -0.2169  0.1954  0.7879
   78CHL1  H23A 8238   6.137   6.461   8.070  0.1136  1.7533  0.2188
   78CHL1  H23B 8239   6.015   6.584   8.033  0.1866  0.7409  3.3574
   78CHL1   C24 8240   5.955   6.427   8.173  0.3930  0.5678 -0.3138
   78CHL1  H24A 8241   5.848   6.454   8.166 -0.1011 -1.1033  0.3629
   78CHL1  H24B 8242   5.975   6.318   8.176  0.7472  0.6329 -0.1500
   78CHL1   C25 8243   6.015   6.494   8.299 -0.1900 -0.4296 -0.0842
   78CHL1   H25 8244   6.126   6.491   8.291 -0.1356  0.9636 -0.1559
   78CHL1   C26 8245   5.987   6.641   8.301  0.0530 -0.4431  0.3971
   78CHL1  H26A 8246   5.879   6.655   8.278  0.0068  2.4135  1.8682
   78CHL1  H26B 8247   6.006   6.683   8.402  1.3824  1.4784 -0.5913
   78CHL1  H26C 8248   6.035   6.704   8.223  1.3874  0.6161  2.0043
   78CHL1   C27 8249   5.955   6.417   8.423  0.5846 -0.7313 -0.0851
   78CHL1  H27A 8250   5.844   6.427   8.424  0.3484 -1.2751 -3.8660
   78CHL1  H27B 8251   5.968   6.307   8.417  2.2070 -0.6485  1.1715
   78CHL1  H27C 8252   6.002   6.454   8.516 -1.1751  0.5355  0.3666
   79CHL1    C3 8253   4.157   5.296   7.177 -0.5923 -0.0382  0.1546
   79CHL1    H3 8254   4.048   5.274   7.173 -0.6359  0.3501 -1.3819
   79CHL1    O3 8255   4.190   5.339   7.049 -0.7804 -0.3331 -0.1838
   79CHL1   H3' 8256   4.283   5.363   7.051 -0.8193 -0.2380  0.6416
   79CHL1    C4 8257   4.191   5.415   7.269  0.8231 -0.4350  0.7564
   79CHL1   H4A 8258   4.297   5.443   7.254  0.4516  1.4755  1.4454
   79CHL1   H4B 8259   4.126   5.501   7.242  2.8199  1.0744  0.5432
   79CHL1    C5 8260   4.172   5.373   7.415 -0.4294 -0.6189 -0.2930
   79CHL1    C6 8261   4.094   5.442   7.501  0.8999  0.1251 -0.1455
   79CHL1    H6 8262   4.037   5.528   7.464 -0.4955 -0.8488 -0.3596
   79CHL1    C7 8263   4.099   5.419   7.659 -0.1161 -0.3618  0.6169
   79CHL1   H7A 8264   4.120   5.518   7.705 -1.2308  1.5004 -2.5602
   79CHL1   H7B 8265   3.997   5.395   7.696 -0.9258  0.8607 -0.7223
   79CHL1    C8 8266   4.211   5.327   7.698  0.2004  0.1203  0.1580
   79CHL1    H8 8267   4.304   5.387   7.701  0.3541 -0.0979 -0.2453
   79CHL1   C14 8268   4.183   5.275   7.840 -0.1421 -0.1055 -0.0124
   79CHL1   H14 8269   4.099   5.204   7.820 -0.9861  0.5243  1.1361
   79CHL1   C15 8270   4.152   5.376   7.950 -0.1898  0.4167 -0.0936
   79CHL1  H15A 8271   4.238   5.446   7.945  0.5756 -0.3126  1.9669
   79CHL1  H15B 8272   4.052   5.421   7.930 -1.5806 -2.2783  0.3045
   79CHL1   C16 8273   4.171   5.289   8.076  0.0279  0.1419 -0.4261
   79CHL1  H16A 8274   4.230   5.342   8.153  0.2366 -1.2409  0.3935
   79CHL1  H16B 8275   4.073   5.265   8.122 -1.1141  1.0123 -2.2917
   79CHL1   C17 8276   4.237   5.153   8.031  0.1488  0.0967 -0.4624
   79CHL1   H17 8277   4.158   5.084   7.994  1.7457 -1.6137 -0.8713
   79CHL1   C13 8278   4.291   5.181   7.893 -0.4115  0.1859  0.1688
   79CHL1   C18 8279   4.423   5.260   7.923 -0.3379  0.4477  0.5359
   79CHL1  H18A 8280   4.472   5.287   7.828 -2.6182  1.3624 -0.4599
   79CHL1  H18B 8281   4.407   5.345   7.993 -0.3115 -0.8265  2.1571
   79CHL1  H18C 8282   4.488   5.184   7.971  0.3581  1.6379  1.5530
   79CHL1   C12 8283   4.319   5.059   7.803 -0.4022  0.1876 -0.1657
   79CHL1  H12A 8284   4.416   5.010   7.827 -0.5556 -0.1751 -0.2816
   79CHL1  H12B 8285   4.234   4.989   7.814  0.7372 -1.4859 -1.5239
   79CHL1   C11 8286   4.340   5.107   7.656  0.1253  1.0219  0.0291
   79CHL1  H11A 8287   4.442   5.152   7.654  1.3937 -1.6286 -0.7699
   79CHL1  H11B 8288   4.341   5.020   7.586 -2.9345 -0.4047  1.5713
   79CHL1    C9 8289   4.241   5.212   7.607  0.5436  0.6907  0.2546
   79CHL1    H9 8290   4.142   5.163   7.596  2.0554 -2.7947  0.7762
   79CHL1   C10 8291   4.258   5.255   7.459 -0.8506 -0.0413  0.7190
   79CHL1   C19 8292   4.415   5.289   7.447 -0.0068 -0.8616  0.4495
   79CHL1  H19A 8293   4.438   5.350   7.537  1.1591 -0.5110 -0.0651
   79CHL1  H19B 8294   4.483   5.200   7.448 -0.0354 -0.9262 -0.8754
   79CHL1  H19C 8295   4.443   5.352   7.360  0.4239  0.8448  1.7635
   79CHL1    C1 8296   4.237   5.135   7.361 -0.2912 -0.2550 -0.0313
   79CHL1   H1A 8297   4.302   5.046   7.376  1.8790  1.2872  0.2341
   79CHL1   H1B 8298   4.134   5.105   7.388 -0.5826  1.7963  1.3490
   79CHL1    C2 8299   4.245   5.180   7.218 -0.6147 -0.6991  0.8576
   79CHL1   H2A 8300   4.212   5.092   7.159  0.0526 -1.1778  1.1780
   79CHL1   H2B 8301   4.348   5.207   7.188 -0.3615 -0.2572  2.0664
   79CHL1   C20 8302   4.310   5.074   8.137 -0.0928 -0.2626 -0.9048
   79CHL1   H20 8303   4.399   5.133   8.168 -1.3283  1.2067 -0.0701
   79CHL1   C21 8304   4.344   4.927   8.099 -0.2782  0.3580  0.4687
   79CHL1  H21A 8305   4.256   4.875   8.056  0.1660 -1.3084  1.5043
   79CHL1  H21B 8306   4.392   4.871   8.181  2.0129  2.6745  0.8552
   79CHL1  H21C 8307   4.416   4.924   8.014 -1.0284  2.1711 -0.2914
   79CHL1   C22 8308   4.213   5.065   8.258 -0.3007  0.7493 -0.0994
   79CHL1  H22A 8309   4.167   5.163   8.285  1.4429  1.6039 -0.0480
   79CHL1  H22B 8310   4.136   4.992   8.226  0.8755 -1.7659  2.3629
   79CHL1   C23 8311   4.274   5.003   8.394 -0.0127 -0.5004  0.0551
   79CHL1  H23A 8312   4.302   4.896   8.378 -0.3384 -0.2312 -2.9065
   79CHL1  H23B 8313   4.358   5.070   8.422  0.5499 -1.1175 -0.1282
   79CHL1   C24 8314   4.178   4.994   8.509  1.3658 -0.5404  0.1676
   79CHL1  H24A 8315   4.129   5.091   8.529 -1.0508 -0.8763 -3.1486
   79CHL1  H24B 8316   4.093   4.929   8.476  0.7998  0.8824 -1.3125
   79CHL1   C25 8317   4.245   4.921   8.632  0.5060  0.2780 -0.2935
   79CHL1   H25 8318   4.314   4.846   8.588  0.2948  0.4102 -0.8490
   79CHL1   C26 8319   4.313   5.015   8.730  0.0435 -0.3555 -0.1503
   79CHL1  H26A 8320   4.254   5.082   8.796  0.7158 -0.5494  0.6801
   79CHL1  H26B 8321   4.390   4.963   8.792  0.1849  1.3195  1.1452
   79CHL1  H26C 8322   4.377   5.077   8.664 -1.2668  0.2277 -0.9044
   79CHL1   C27 8323   4.133   4.853   8.725  1.0664  0.2160  0.6292
   79CHL1  H27A 8324   4.077   4.922   8.792  0.0595 -0.8356  0.9018
   79CHL1  H27B 8325   4.052   4.802   8.668  1.2889  0.4608  0.0952
   79CHL1  H27C 8326   4.183   4.790   8.802 -0.8412  1.0399  2.6392
   80CHL1    C3 8327   1.176   2.951   7.110 -0.6827  0.1360 -0.1697
   80CHL1    H3 8328   1.206   3.039   7.048 -0.2679  0.1942  0.1104
   80CHL1    O3 8329   1.130   2.849   7.024  0.5337 -0.3991 -0.4207
   80CHL1   H3' 8330   1.049   2.881   6.984 -0.4155 -2.4002 -0.2018
   80CHL1    C4 8331   1.299   2.894   7.183  0.0922  0.4722  0.6296
   80CHL1   H4A 8332   1.284   2.790   7.222  2.1092  0.3746  1.2697
   80CHL1   H4B 8333   1.382   2.882   7.110 -1.5346 -1.3604 -1.0364
   80CHL1    C5 8334   1.337   2.986   7.288  0.4721  0.3486 -0.3430
   80CHL1    C6 8335   1.458   3.045   7.292  0.0002  0.2189  0.9737
   80CHL1    H6 8336   1.533   3.025   7.214  1.8895  1.3551  2.4167
   80CHL1    C7 8337   1.511   3.131   7.401 -0.2665 -0.7080 -0.0709
   80CHL1   H7A 8338   1.613   3.093   7.422 -0.2247 -1.1397 -1.0059
   80CHL1   H7B 8339   1.515   3.237   7.366  0.7526 -1.4122 -2.3157
   80CHL1    C8 8340   1.428   3.117   7.532 -0.3758 -0.1739  0.4738
   80CHL1    H8 8341   1.441   3.018   7.580 -1.8015 -1.1108 -0.9554
   80CHL1   C14 8342   1.471   3.226   7.636 -0.3488  0.0967 -0.3409
   80CHL1   H14 8343   1.458   3.318   7.575  0.2937 -0.3343 -1.1455
   80CHL1   C15 8344   1.623   3.239   7.667 -0.3862  0.2125  0.2709
   80CHL1  H15A 8345   1.656   3.137   7.697 -0.2299  0.0090 -0.5535
   80CHL1  H15B 8346   1.690   3.272   7.584 -1.0398 -0.4652 -0.5461
   80CHL1   C16 8347   1.633   3.339   7.784  0.6560  0.0823 -0.4486
   80CHL1  H16A 8348   1.698   3.299   7.864 -1.3959  1.7183  2.2226
   80CHL1  H16B 8349   1.671   3.438   7.752  2.2077 -1.2401 -3.0441
   80CHL1   C17 8350   1.485   3.354   7.837 -0.2611  0.5529 -0.0077
   80CHL1   H17 8351   1.452   3.451   7.793  0.0486  0.5926 -0.1610
   80CHL1   C13 8352   1.398   3.238   7.773 -0.7930  0.4106  0.6062
   80CHL1   C18 8353   1.427   3.112   7.855  0.7758  0.0958  0.5198
   80CHL1  H18A 8354   1.533   3.084   7.873  1.6389  3.2019  0.8564
   80CHL1  H18B 8355   1.361   3.120   7.944  0.0114  0.0505 -0.0374
   80CHL1  H18C 8356   1.375   3.028   7.803  1.9769 -0.3620  0.0055
   80CHL1   C12 8357   1.250   3.259   7.735  0.0018 -0.1195 -0.0823
   80CHL1  H12A 8358   1.187   3.278   7.825 -0.5434  1.9778 -0.8472
   80CHL1  H12B 8359   1.246   3.360   7.689 -1.8850 -1.5275 -3.2999
   80CHL1   C11 8360   1.200   3.147   7.635  0.3506  0.8808 -0.3615
   80CHL1  H11A 8361   1.193   3.048   7.686 -0.4760  0.3076 -1.5351
   80CHL1  H11B 8362   1.096   3.174   7.606 -0.6399 -2.3927 -0.2598
   80CHL1    C9 8363   1.276   3.135   7.504 -0.3574  0.5797  0.7279
   80CHL1    H9 8364   1.271   3.232   7.450  0.8354  0.4858  0.4098
   80CHL1   C10 8365   1.232   3.027   7.396 -0.3591 -0.5395 -0.8196
   80CHL1   C19 8366   1.205   2.905   7.482  0.4759  0.8817 -0.4562
   80CHL1  H19A 8367   1.108   2.924   7.533 -0.3992  0.0634 -1.7715
   80CHL1  H19B 8368   1.183   2.813   7.425  1.4222  0.1949  0.2534
   80CHL1  H19C 8369   1.280   2.869   7.557  1.5294 -0.5445 -2.1114
   80CHL1    C1 8370   1.104   3.075   7.316  0.3926 -0.9552 -0.4448
   80CHL1   H1A 8371   1.027   3.092   7.394  0.7223  1.9344 -0.6241
   80CHL1   H1B 8372   1.133   3.174   7.272  1.4031 -0.8643  0.3800
   80CHL1    C2 8373   1.056   2.974   7.207 -0.7491 -0.3093  0.0120
   80CHL1   H2A 8374   0.967   3.008   7.150  0.9365  3.2205 -0.8134
   80CHL1   H2B 8375   1.039   2.882   7.266 -0.9812  0.9250  1.9545
   80CHL1   C20 8376   1.473   3.383   7.990  0.2987 -0.4110 -0.0002
   80CHL1   H20 8377   1.507   3.296   8.049 -0.2346 -0.8239 -0.2918
   80CHL1   C21 8378   1.327   3.408   8.016  0.0258  0.2241 -0.3289
   80CHL1  H21A 8379   1.272   3.312   8.031  1.6065 -0.9400 -1.5311
   80CHL1  H21B 8380   1.283   3.482   7.946 -1.4539 -1.6029 -1.4398
   80CHL1  H21C 8381   1.322   3.452   8.118 -0.1622  2.6597 -1.3301
   80CHL1   C22 8382   1.562   3.501   8.052 -0.1057  0.2553 -0.0693
   80CHL1  H22A 8383   1.654   3.513   7.991  0.0708 -2.3082 -0.4263
   80CHL1  H22B 8384   1.510   3.598   8.043 -1.1416 -0.4824 -3.6174
   80CHL1   C23 8385   1.592   3.474   8.203  0.2584 -0.0347  0.2541
   80CHL1  H23A 8386   1.492   3.468   8.251  1.0265 -2.6929  1.7167
   80CHL1  H23B 8387   1.634   3.372   8.209  2.8979  1.0096  0.8565
   80CHL1   C24 8388   1.678   3.574   8.279 -0.9159 -0.4787 -0.3970
   80CHL1  H24A 8389   1.782   3.571   8.242 -1.0092  1.1494 -0.8494
   80CHL1  H24B 8390   1.630   3.670   8.250 -1.1841 -0.1213  1.1385
   80CHL1   C25 8391   1.680   3.559   8.433  0.5949  0.9352  0.8045
   80CHL1   H25 8392   1.575   3.555   8.469  0.1755 -2.6736 -0.3805
   80CHL1   C26 8393   1.736   3.428   8.469  0.2429  0.3471 -0.3327
   80CHL1  H26A 8394   1.835   3.421   8.419  0.9420 -1.2317  1.1708
   80CHL1  H26B 8395   1.749   3.407   8.578  2.4606 -4.0656 -1.2030
   80CHL1  H26C 8396   1.670   3.346   8.434 -0.8614  0.6963  0.8299
   80CHL1   C27 8397   1.753   3.673   8.501 -0.0315  0.6436 -0.0546
   80CHL1  H27A 8398   1.687   3.762   8.505 -2.5960 -1.1601  3.6103
   80CHL1  H27B 8399   1.766   3.632   8.603 -1.7691 -0.5878 -0.2903
   80CHL1  H27C 8400   1.853   3.693   8.456 -0.0429 -0.3376 -0.5276
   81CHL1    C3 8401   0.429   2.441   6.731 -0.5781  0.0691 -0.4243
   81CHL1    H3 8402   0.514   2.512   6.729 -0.0433 -0.3775  2.3995
   81CHL1    O3 8403   0.386   2.398   6.602  0.4480 -0.6899  0.3816
   81CHL1   H3' 8404   0.322   2.327   6.609  0.1178 -0.5425 -0.8842
   81CHL1    C4 8405   0.474   2.315   6.824  0.1354 -0.1488  0.1522
   81CHL1   H4A 8406   0.381   2.256   6.821 -0.0144  0.1114 -0.6562
   81CHL1   H4B 8407   0.563   2.269   6.776  2.0236  1.0903  2.2324
   81CHL1    C5 8408   0.502   2.345   6.970  0.6565  0.1239 -0.0280
   81CHL1    C6 8409   0.618   2.315   7.038  0.2213 -0.7467  0.5259
   81CHL1    H6 8410   0.705   2.269   6.989 -1.4070 -0.9929 -2.3747
   81CHL1    C7 8411   0.633   2.326   7.185 -0.1082  0.3085 -0.9425
   81CHL1   H7A 8412   0.664   2.232   7.236  0.0085  1.3847  1.0919
   81CHL1   H7B 8413   0.712   2.402   7.204  0.6564 -1.1937  2.9352
   81CHL1    C8 8414   0.502   2.362   7.255  0.0501 -0.6069 -0.4794
   81CHL1    H8 8415   0.440   2.270   7.264  0.2645 -0.6548  0.7457
   81CHL1   C14 8416   0.527   2.414   7.401 -0.3663 -0.5383 -0.7833
   81CHL1   H14 8417   0.589   2.506   7.389 -2.6760  1.0680 -1.0295
   81CHL1   C15 8418   0.609   2.325   7.495  0.2749  0.3781  0.1703
   81CHL1  H15A 8419   0.562   2.225   7.483 -0.4754  0.6244  0.9332
   81CHL1  H15B 8420   0.718   2.335   7.476  0.6923 -0.3047  1.9582
   81CHL1   C16 8421   0.562   2.375   7.634 -0.4677 -0.8117 -0.0975
   81CHL1  H16A 8422   0.519   2.298   7.701 -0.5180 -1.5401 -0.9373
   81CHL1  H16B 8423   0.657   2.415   7.675 -0.2301  1.1698 -2.3307
   81CHL1   C17 8424   0.464   2.498   7.611 -0.3511 -0.1735  0.4446
   81CHL1   H17 8425   0.524   2.586   7.579 -0.2044 -0.1959  0.6585
   81CHL1   C13 8426   0.396   2.462   7.475 -0.2094  0.3393 -0.3622
   81CHL1   C18 8427   0.298   2.342   7.485 -0.0174 -0.0420  0.5687
   81CHL1  H18A 8428   0.253   2.313   7.388 -0.6451 -0.9495  1.1089
   81CHL1  H18B 8429   0.342   2.247   7.521 -0.0634 -1.0467 -1.9067
   81CHL1  H18C 8430   0.203   2.355   7.541  0.4318 -0.5513  1.4843
   81CHL1   C12 8431   0.338   2.579   7.388 -0.4967 -0.0671  0.8298
   81CHL1  H12A 8432   0.241   2.606   7.434 -0.7603  0.7682 -0.1884
   81CHL1  H12B 8433   0.410   2.664   7.385 -0.7771  0.1451 -0.3742
   81CHL1   C11 8434   0.302   2.529   7.250  0.0957 -0.3551  0.2524
   81CHL1  H11A 8435   0.211   2.467   7.268  2.3466 -3.3127  2.7679
   81CHL1  H11B 8436   0.274   2.623   7.199  1.0579 -0.3178 -0.2298
   81CHL1    C9 8437   0.415   2.464   7.174 -0.2092  0.1553 -0.0074
   81CHL1    H9 8438   0.482   2.551   7.155 -1.7788  1.4610  0.2352
   81CHL1   C10 8439   0.385   2.416   7.037  0.8523  0.0585  0.1918
   81CHL1   C19 8440   0.260   2.325   7.058  0.7843  0.5059  0.5045
   81CHL1  H19A 8441   0.167   2.382   7.082 -0.0544 -0.1506 -1.0483
   81CHL1  H19B 8442   0.222   2.273   6.968 -1.1027 -1.1926  2.1750
   81CHL1  H19C 8443   0.275   2.239   7.127 -2.2015  0.8496  1.7289
   81CHL1    C1 8444   0.346   2.537   6.953 -0.5055  0.3080  0.3376
   81CHL1   H1A 8445   0.249   2.580   6.986 -0.4202 -0.0524  1.0737
   81CHL1   H1B 8446   0.423   2.618   6.959 -0.3393  0.0497  2.1299
   81CHL1    C2 8447   0.313   2.507   6.803 -0.4628  0.0910 -0.8673
   81CHL1   H2A 8448   0.267   2.592   6.748 -1.0948  0.8761  0.8122
   81CHL1   H2B 8449   0.233   2.430   6.805  0.1008 -0.5309 -1.4847
   81CHL1   C20 8450   0.390   2.545   7.730 -0.6223  0.2539 -0.0477
   81CHL1   H20 8451   0.289   2.504   7.751 -1.4300  2.6261  1.1544
   81CHL1   C21 8452   0.374   2.702   7.709  0.6858 -0.1688 -0.1494
   81CHL1  H21A 8453   0.316   2.739   7.621 -0.5813  2.7913  1.7662
   81CHL1  H21B 8454   0.462   2.769   7.715  0.2159  0.4996 -0.4896
   81CHL1  H21C 8455   0.314   2.728   7.799  0.6493 -1.1440  0.1131
   81CHL1   C22 8456   0.477   2.514   7.863  0.4012  0.0568  0.0994
   81CHL1  H22A 8457   0.491   2.405   7.875  4.1934  0.4158 -0.0498
   81CHL1  H22B 8458   0.574   2.567   7.849 -0.8063  1.7147 -3.0184
   81CHL1   C23 8459   0.398   2.563   7.986 -0.0418 -0.1430 -0.4643
   81CHL1  H23A 8460   0.374   2.670   7.970  0.9923  0.0709 -0.6450
   81CHL1  H23B 8461   0.306   2.505   8.007 -0.9729  1.3152 -0.3704
   81CHL1   C24 8462   0.486   2.556   8.119  0.0031 -0.9537  0.0358
   81CHL1  H24A 8463   0.415   2.554   8.204 -1.1153 -0.5848 -0.8743
   81CHL1  H24B 8464   0.542   2.460   8.116  0.2365 -0.9853  2.8350
   81CHL1   C25 8465   0.591   2.673   8.140 -0.1075  0.6147 -0.6748
   81CHL1   H25 8466   0.658   2.673   8.052  0.5060  3.4518 -0.3181
   81CHL1   C26 8467   0.529   2.812   8.140 -0.1725  0.5791  0.0451
   81CHL1  H26A 8468   0.451   2.820   8.061 -1.5066 -1.8876  1.0199
   81CHL1  H26B 8469   0.472   2.824   8.234  1.8698  0.4675  1.3526
   81CHL1  H26C 8470   0.598   2.899   8.140 -1.2652  1.5001 -1.5324
   81CHL1   C27 8471   0.677   2.644   8.265  0.5812 -0.0557 -0.2651
   81CHL1  H27A 8472   0.743   2.732   8.280  1.8862 -1.0059 -0.3322
   81CHL1  H27B 8473   0.621   2.628   8.360 -0.5390 -0.2213 -0.9416
   81CHL1  H27C 8474   0.744   2.563   8.232  1.2144  1.1436 -2.0281
   82CHL1    C3 8475   1.027   4.956   7.094  0.1847 -0.9020  0.3353
   82CHL1    H3 8476   0.985   5.052   7.132 -0.6267 -1.6391  1.3386
   82CHL1    O3 8477   0.982   4.931   6.960  0.0718  0.0410 -0.0136
   82CHL1   H3' 8478   1.003   4.838   6.951 -0.6681 -0.1918  0.5503
   82CHL1    C4 8479   1.184   4.956   7.099 -0.1969 -0.3792 -1.0882
   82CHL1   H4A 8480   1.215   4.855   7.065  1.4818  0.2684 -1.5945
   82CHL1   H4B 8481   1.220   5.031   7.025 -1.0403  1.1277 -0.0433
   82CHL1    C5 8482   1.226   4.988   7.243 -0.0228 -0.2317 -0.3193
   82CHL1    C6 8483   1.296   5.093   7.273  0.3766 -0.4311 -0.0956
   82CHL1    H6 8484   1.333   5.155   7.190  1.5196 -1.2732 -0.2432
   82CHL1    C7 8485   1.341   5.130   7.411  1.0473 -0.1536  0.8835
   82CHL1   H7A 8486   1.447   5.164   7.420  0.7099  0.8091  1.4413
   82CHL1   H7B 8487   1.284   5.221   7.439  2.7104  1.6379 -1.1715
   82CHL1    C8 8488   1.319   5.022   7.519  0.1106  0.1800 -0.1912
   82CHL1    H8 8489   1.385   4.934   7.506 -3.8749 -3.0621 -0.5069
   82CHL1   C14 8490   1.324   5.081   7.660 -0.8356  0.0433 -0.1807
   82CHL1   H14 8491   1.252   5.166   7.655 -1.4856 -0.5242 -0.7257
   82CHL1   C15 8492   1.458   5.147   7.710  0.3374  0.6531  0.0934
   82CHL1  H15A 8493   1.544   5.082   7.686 -0.5445 -0.7759  0.7203
   82CHL1  H15B 8494   1.489   5.243   7.662  2.4070  0.8807  1.7657
   82CHL1   C16 8495   1.426   5.159   7.864 -0.3630  0.0973 -0.0158
   82CHL1  H16A 8496   1.512   5.116   7.919  0.6087 -0.5940 -1.9826
   82CHL1  H16B 8497   1.415   5.266   7.893 -0.4568  0.1066 -0.0878
   82CHL1   C17 8498   1.289   5.083   7.899  0.1709 -0.1363 -0.2011
   82CHL1   H17 8499   1.198   5.146   7.897 -1.5737 -2.4372  1.0177
   82CHL1   C13 8500   1.274   4.989   7.774 -0.4387  0.0378 -0.0693
   82CHL1   C18 8501   1.372   4.875   7.806 -0.4745 -0.4444  0.3654
   82CHL1  H18A 8502   1.471   4.896   7.852  0.2067  0.3412 -1.3796
   82CHL1  H18B 8503   1.306   4.810   7.866 -0.7237 -0.6142 -0.0860
   82CHL1  H18C 8504   1.394   4.820   7.712 -0.1391  0.9554 -0.3982
   82CHL1   C12 8505   1.128   4.932   7.736  0.2561  0.1144 -0.1296
   82CHL1  H12A 8506   1.082   4.870   7.816 -0.7453 -1.1368 -1.6107
   82CHL1  H12B 8507   1.060   5.017   7.719 -1.7045 -1.3433  0.0460
   82CHL1   C11 8508   1.124   4.867   7.604 -0.3119  0.1805 -0.1478
   82CHL1  H11A 8509   1.192   4.779   7.615  0.9528  0.9744 -1.2073
   82CHL1  H11B 8510   1.021   4.829   7.586 -0.0756 -0.4046 -0.2997
   82CHL1    C9 8511   1.180   4.956   7.497 -0.1655 -0.8015 -0.5209
   82CHL1    H9 8512   1.106   5.038   7.502 -0.3555 -1.0763  2.9781
   82CHL1   C10 8513   1.161   4.898   7.355 -0.3643 -0.4743 -0.3585
   82CHL1   C19 8514   1.236   4.764   7.340  0.1225 -0.3286  0.1435
   82CHL1  H19A 8515   1.223   4.728   7.236 -1.8965 -0.5928  0.4375
   82CHL1  H19B 8516   1.342   4.764   7.372  0.0937  0.2590  0.2596
   82CHL1  H19C 8517   1.183   4.681   7.391 -2.9358 -1.3515 -4.1511
   82CHL1    C1 8518   1.006   4.880   7.327 -0.2275 -0.3172  0.0014
   82CHL1   H1A 8519   0.973   4.792   7.386 -1.2021 -1.0580 -1.5866
   82CHL1   H1B 8520   0.948   4.971   7.353 -0.4784 -0.4880  0.0403
   82CHL1    C2 8521   0.959   4.847   7.183  0.0485 -0.9547  0.5849
   82CHL1   H2A 8522   0.848   4.846   7.190 -0.0034  0.4247  0.2943
   82CHL1   H2B 8523   0.993   4.744   7.162  0.7243 -0.3267 -1.6781
   82CHL1   C20 8524   1.283   5.024   8.043 -0.1681  0.1173  0.8906
   82CHL1   H20 8525   1.368   4.953   8.038 -0.6549 -0.3774 -0.6659
   82CHL1   C21 8526   1.156   4.948   8.076  0.1011  0.5436  0.3074
   82CHL1  H21A 8527   1.065   5.008   8.058 -1.2870  0.4238  5.4707
   82CHL1  H21B 8528   1.149   4.922   8.184 -1.1022 -0.5301 -0.0136
   82CHL1  H21C 8529   1.145   4.851   8.024  0.9984 -0.1592  1.3938
   82CHL1   C22 8530   1.308   5.139   8.142 -0.1984  0.1519 -0.3352
   82CHL1  H22A 8531   1.388   5.205   8.101 -2.2695  0.6913 -3.8896
   82CHL1  H22B 8532   1.210   5.189   8.155  0.2033  0.6562  0.8722
   82CHL1   C23 8533   1.364   5.096   8.284  0.3580 -0.9684  0.5505
   82CHL1  H23A 8534   1.277   5.065   8.346 -0.4824  0.2284  0.0145
   82CHL1  H23B 8535   1.437   5.015   8.269  0.5034 -0.9234  0.9861
   82CHL1   C24 8536   1.433   5.211   8.356  0.0245  0.2192 -0.2625
   82CHL1  H24A 8537   1.500   5.259   8.282  1.8327 -2.4190 -0.4924
   82CHL1  H24B 8538   1.362   5.291   8.384  0.5318  0.2103  1.1122
   82CHL1   C25 8539   1.513   5.176   8.481  0.2178  0.1089 -0.7760
   82CHL1   H25 8540   1.558   5.077   8.456 -0.0520 -0.0802 -0.5166
   82CHL1   C26 8541   1.624   5.284   8.525  0.2816  0.2096  0.0773
   82CHL1  H26A 8542   1.563   5.365   8.571  1.2148  0.4126  1.0011
   82CHL1  H26B 8543   1.695   5.230   8.591  0.3429 -0.6094 -0.6413
   82CHL1  H26C 8544   1.682   5.326   8.441 -1.1611 -0.5812 -1.3718
   82CHL1   C27 8545   1.421   5.149   8.609 -0.1579 -0.1346  0.0289
   82CHL1  H27A 8546   1.489   5.132   8.695 -1.4428 -2.3511  0.6782
   82CHL1  H27B 8547   1.357   5.231   8.648 -0.2889 -0.4117  0.3993
   82CHL1  H27C 8548   1.354   5.061   8.604  1.3532 -1.5680  2.8025
   83CHL1    C3 8549   3.719   5.296   7.061 -0.1603 -0.4059  0.0829
   83CHL1    H3 8550   3.830   5.300   7.056 -0.1990  1.7873  0.0462
   83CHL1    O3 8551   3.679   5.296   6.927  0.1416 -0.1095  0.0101
   83CHL1   H3' 8552   3.585   5.277   6.933  0.3499 -0.9798  0.5818
   83CHL1    C4 8553   3.685   5.160   7.116 -0.0210 -0.0554  0.4308
   83CHL1   H4A 8554   3.580   5.132   7.091  0.1816 -0.8638  0.4801
   83CHL1   H4B 8555   3.739   5.073   7.073  0.7153  0.6789 -0.1678
   83CHL1    C5 8556   3.713   5.171   7.267  0.1124  0.1869 -0.0580
   83CHL1    C6 8557   3.802   5.093   7.330 -0.0696 -0.1908  0.7440
   83CHL1    H6 8558   3.859   5.016   7.275  0.8029 -0.7610  2.3682
   83CHL1    C7 8559   3.836   5.100   7.472 -0.0894 -0.4215 -0.1693
   83CHL1   H7A 8560   3.876   5.004   7.510 -1.2521 -0.7378  0.2838
   83CHL1   H7B 8561   3.913   5.175   7.500 -1.2831 -0.6362  4.5698
   83CHL1    C8 8562   3.724   5.154   7.554  0.8335 -0.0368 -0.1928
   83CHL1    H8 8563   3.633   5.090   7.553 -0.0308  1.1535  0.6203
   83CHL1   C14 8564   3.766   5.171   7.698 -0.2555  0.3794  0.4286
   83CHL1   H14 8565   3.847   5.246   7.696  0.7983 -0.7298 -1.0480
   83CHL1   C15 8566   3.826   5.047   7.774  0.3927 -0.0139  0.3051
   83CHL1  H15A 8567   3.752   4.965   7.761 -0.4648  0.6910  0.6437
   83CHL1  H15B 8568   3.929   5.028   7.738  0.0385 -0.3692 -0.5675
   83CHL1   C16 8569   3.828   5.089   7.924 -0.1885  1.4095 -0.1817
   83CHL1  H16A 8570   3.788   4.998   7.973  1.9249  0.5826  0.1020
   83CHL1  H16B 8571   3.928   5.100   7.971 -0.3947 -0.9289  0.9523
   83CHL1   C17 8572   3.741   5.218   7.929  0.0025 -0.4560  0.5258
   83CHL1   H17 8573   3.820   5.295   7.919  0.7057 -1.4372 -2.5053
   83CHL1   C13 8574   3.658   5.225   7.794 -0.2899 -0.2816  0.3002
   83CHL1   C18 8575   3.535   5.125   7.811 -0.3278  0.4451  0.6572
   83CHL1  H18A 8576   3.468   5.169   7.888 -2.1246 -1.2838  0.1562
   83CHL1  H18B 8577   3.482   5.106   7.715 -3.4796  0.3216  2.2807
   83CHL1  H18C 8578   3.575   5.035   7.861 -0.9717 -1.7915 -2.5234
   83CHL1   C12 8579   3.619   5.369   7.744 -0.2234 -0.0606  0.0596
   83CHL1  H12A 8580   3.529   5.412   7.793 -1.7737 -2.7729 -0.1957
   83CHL1  H12B 8581   3.711   5.428   7.760  0.2979 -0.2619 -1.9293
   83CHL1   C11 8582   3.578   5.358   7.599  0.1747 -1.0368  0.2129
   83CHL1  H11A 8583   3.476   5.316   7.596 -0.5390  0.4923  1.5355
   83CHL1  H11B 8584   3.577   5.462   7.560  1.4109 -1.4215 -0.9540
   83CHL1    C9 8585   3.674   5.286   7.500  0.1167  0.0057 -0.7708
   83CHL1    H9 8586   3.767   5.347   7.505 -0.5075  0.9120  1.0317
   83CHL1   C10 8587   3.632   5.279   7.348 -0.1112  0.9056 -0.0603
   83CHL1   C19 8588   3.478   5.252   7.331 -0.8844 -0.5439  0.6182
   83CHL1  H19A 8589   3.420   5.328   7.387  0.9584  1.1532  0.3134
   83CHL1  H19B 8590   3.449   5.262   7.225 -1.7403  0.4390  0.9269
   83CHL1  H19C 8591   3.444   5.148   7.354 -3.2101 -0.6053 -2.4668
   83CHL1    C1 8592   3.678   5.413   7.291 -0.3699 -0.2355 -0.6165
   83CHL1   H1A 8593   3.614   5.496   7.330  0.4336  0.7442 -1.3242
   83CHL1   H1B 8594   3.783   5.439   7.313 -0.7177  0.1161  0.7064
   83CHL1    C2 8595   3.666   5.421   7.132  0.1313  0.1735  0.0589
   83CHL1   H2A 8596   3.732   5.505   7.104  0.9076 -0.8529 -1.3274
   83CHL1   H2B 8597   3.560   5.449   7.113  0.0505 -0.6485 -0.8229
   83CHL1   C20 8598   3.670   5.230   8.067 -0.1993  0.1686  0.1805
   83CHL1   H20 8599   3.605   5.140   8.071  1.0034 -0.6948  1.0545
   83CHL1   C21 8600   3.583   5.355   8.076  0.1742  0.6397  0.0136
   83CHL1  H21A 8601   3.504   5.345   7.998 -0.0287  0.7916  0.2026
   83CHL1  H21B 8602   3.650   5.437   8.042  0.9982 -1.2848 -3.5553
   83CHL1  H21C 8603   3.531   5.369   8.173 -2.1708 -1.9861 -0.7089
   83CHL1   C22 8604   3.769   5.218   8.183  0.1195 -0.2378 -0.3994
   83CHL1  H22A 8605   3.823   5.121   8.185  0.9502  0.2233  2.2994
   83CHL1  H22B 8606   3.848   5.293   8.163 -1.1335  1.1181 -0.4808
   83CHL1   C23 8607   3.728   5.253   8.321 -0.2200 -0.3895 -0.2086
   83CHL1  H23A 8608   3.708   5.362   8.312  0.0337 -0.4196 -1.1911
   83CHL1  H23B 8609   3.632   5.205   8.347 -0.4089  0.6306  1.0878
   83CHL1   C24 8610   3.834   5.221   8.432  0.2153 -0.1384  0.5460
   83CHL1  H24A 8611   3.867   5.115   8.437 -0.2550 -0.2468  2.1203
   83CHL1  H24B 8612   3.928   5.276   8.413 -0.4239  0.9264  0.3698
   83CHL1   C25 8613   3.785   5.263   8.567 -0.1674  0.0748  0.0454
   83CHL1   H25 8614   3.785   5.373   8.580  0.4437  0.3312 -1.8170
   83CHL1   C26 8615   3.647   5.199   8.606  0.9360  0.1360  0.2904
   83CHL1  H26A 8616   3.657   5.088   8.613 -2.4827 -0.2685  0.2180
   83CHL1  H26B 8617   3.619   5.241   8.705  0.5613 -0.5117  0.4617
   83CHL1  H26C 8618   3.570   5.230   8.533  1.9470 -0.1789 -0.9469
   83CHL1   C27 8619   3.882   5.209   8.668 -0.1544  0.6285  0.5704
   83CHL1  H27A 8620   3.987   5.234   8.640  0.8057 -3.1619  0.1459
   83CHL1  H27B 8621   3.856   5.255   8.765 -0.1721 -0.5353  1.1396
   83CHL1  H27C 8622   3.866   5.100   8.685 -1.2662  0.7394  0.3128
   84CHL1    C3 8623   6.707   1.984   6.815  0.6678 -0.2014 -0.3096
   84CHL1    H3 8624   6.815   2.010   6.802  0.7365 -0.0465  0.5116
   84CHL1    O3 8625   6.676   1.907   6.701 -0.2532 -0.3437  0.0497
   84CHL1   H3' 8626   6.581   1.900   6.689 -0.5561 -0.2470  2.1195
   84CHL1    C4 8627   6.684   1.890   6.942  0.2239 -1.2816 -0.4473
   84CHL1   H4A 8628   6.583   1.844   6.940  0.0057 -0.8222 -0.2112
   84CHL1   H4B 8629   6.757   1.806   6.945  1.5275 -0.1761  1.2767
   84CHL1    C5 8630   6.700   1.965   7.072  0.2719  0.0759 -0.5474
   84CHL1    C6 8631   6.783   1.929   7.174 -0.1681  0.3406 -0.6242
   84CHL1    H6 8632   6.830   1.831   7.159 -1.6437 -0.4440 -0.2709
   84CHL1    C7 8633   6.795   1.996   7.307 -0.2676  0.1035  0.3450
   84CHL1   H7A 8634   6.779   1.916   7.383  1.3049  0.8654  1.5407
   84CHL1   H7B 8635   6.893   2.044   7.326 -0.3905  0.3007  0.4726
   84CHL1    C8 8636   6.700   2.114   7.330 -0.3791  0.5287  0.2273
   84CHL1    H8 8637   6.602   2.069   7.357 -0.1962 -0.4471 -0.6311
   84CHL1   C14 8638   6.748   2.210   7.435  0.1888  0.3810 -0.6934
   84CHL1   H14 8639   6.832   2.267   7.388  3.5429 -2.0565  1.8643
   84CHL1   C15 8640   6.795   2.156   7.569 -0.6967 -0.5508 -0.6361
   84CHL1  H15A 8641   6.718   2.077   7.584  0.6750 -1.8886 -0.3746
   84CHL1  H15B 8642   6.895   2.109   7.563 -0.3072 -0.2123  1.9803
   84CHL1   C16 8643   6.789   2.278   7.669  0.2216  0.9328 -0.6251
   84CHL1  H16A 8644   6.728   2.259   7.760  3.7773  1.1062  2.0239
   84CHL1  H16B 8645   6.889   2.302   7.711 -1.8789  4.0689  3.2893
   84CHL1   C17 8646   6.749   2.402   7.582 -0.4003  0.0932 -0.0581
   84CHL1   H17 8647   6.830   2.441   7.516 -0.6278  0.3907 -0.1652
   84CHL1   C13 8648   6.657   2.334   7.470 -0.3727  0.3516  0.3999
   84CHL1   C18 8649   6.531   2.280   7.529  0.3306  0.2102  0.2479
   84CHL1  H18A 8650   6.486   2.210   7.455  0.9989  1.8822 -1.8726
   84CHL1  H18B 8651   6.550   2.246   7.633  1.2194  2.3929  0.8571
   84CHL1  H18C 8652   6.450   2.356   7.537 -1.2389 -1.4504  0.7990
   84CHL1   C12 8653   6.631   2.412   7.344  0.3038  0.7236 -0.2077
   84CHL1  H12A 8654   6.563   2.500   7.353  0.7671  0.9932  0.8736
   84CHL1  H12B 8655   6.726   2.456   7.308  0.0322 -0.0424 -1.9375
   84CHL1   C11 8656   6.581   2.318   7.223 -0.1617  0.0354 -0.5308
   84CHL1  H11A 8657   6.476   2.291   7.245  0.0117  0.6772  1.2677
   84CHL1  H11B 8658   6.584   2.384   7.134  0.7480 -0.9512 -1.2569
   84CHL1    C9 8659   6.668   2.192   7.199 -0.1560 -0.1801 -0.5367
   84CHL1    H9 8660   6.766   2.236   7.171 -0.8211  1.2580 -0.7306
   84CHL1   C10 8661   6.621   2.103   7.081 -0.1964 -0.1136  0.1842
   84CHL1   C19 8662   6.473   2.069   7.099 -0.0827 -0.4667  0.0890
   84CHL1  H19A 8663   6.445   1.992   7.024 -0.2737 -1.2692  0.9737
   84CHL1  H19B 8664   6.460   2.024   7.199  0.0853 -0.1775  0.2447
   84CHL1  H19C 8665   6.407   2.158   7.097 -0.1337 -0.4852 -2.2616
   84CHL1    C1 8666   6.640   2.188   6.949 -0.8079 -0.0315 -0.1416
   84CHL1   H1A 8667   6.562   2.268   6.954  0.5130  1.2478  1.0468
   84CHL1   H1B 8668   6.743   2.229   6.947 -0.9974  0.4912  0.3424
   84CHL1    C2 8669   6.619   2.112   6.822  0.0165 -0.1536  0.1831
   84CHL1   H2A 8670   6.638   2.172   6.731  1.1620 -1.1519 -0.2642
   84CHL1   H2B 8671   6.522   2.056   6.823  1.6638 -3.2530  0.2076
   84CHL1   C20 8672   6.690   2.524   7.663 -0.7967 -0.4029  0.1942
   84CHL1   H20 8673   6.586   2.489   7.683 -1.5901  0.2828 -2.2909
   84CHL1   C21 8674   6.682   2.653   7.579 -0.0166  0.1688 -0.0877
   84CHL1  H21A 8675   6.653   2.733   7.650 -0.7160 -0.5075  0.3973
   84CHL1  H21B 8676   6.609   2.653   7.496 -1.6684 -1.0405  1.3051
   84CHL1  H21C 8677   6.791   2.668   7.560  0.1192  0.2957  0.7492
   84CHL1   C22 8678   6.767   2.548   7.799  0.8807 -0.5018  0.5959
   84CHL1  H22A 8679   6.782   2.453   7.854 -1.7381 -2.0512 -1.1712
   84CHL1  H22B 8680   6.863   2.600   7.777  1.0167  0.6601  3.5017
   84CHL1   C23 8681   6.695   2.643   7.892  0.2176  0.4752 -0.0902
   84CHL1  H23A 8682   6.694   2.749   7.858 -0.5770  0.2421 -0.8337
   84CHL1  H23B 8683   6.587   2.620   7.896 -0.3286  2.8027  0.1399
   84CHL1   C24 8684   6.750   2.643   8.035  0.5613  0.2466 -0.1597
   84CHL1  H24A 8685   6.687   2.721   8.083  0.4221 -0.3391  0.6239
   84CHL1  H24B 8686   6.730   2.538   8.067 -3.4485  0.2435 -2.0863
   84CHL1   C25 8687   6.891   2.697   8.049  0.4115 -0.1829  0.4384
   84CHL1   H25 8688   6.950   2.622   7.993  0.3410 -0.4723  0.7509
   84CHL1   C26 8689   6.923   2.833   7.990 -0.2284 -0.3456 -0.0146
   84CHL1  H26A 8690   7.028   2.863   8.011 -0.6055  1.7166 -0.8493
   84CHL1  H26B 8691   6.917   2.829   7.879  1.1249 -1.0028 -0.0909
   84CHL1  H26C 8692   6.856   2.915   8.025 -0.2527 -0.3743  0.0051
   84CHL1   C27 8693   6.951   2.699   8.187 -0.1107 -0.2819 -0.4371
   84CHL1  H27A 8694   6.922   2.615   8.254  0.9239  0.0286  0.4371
   84CHL1  H27B 8695   7.062   2.698   8.174  0.1197  0.8923  1.2149
   84CHL1  H27C 8696   6.929   2.795   8.237  0.4816 -0.3419 -0.0574
   85CHL1    C3 8697   5.894   5.735   6.853  1.0119 -0.7184 -0.3650
   85CHL1    H3 8698   5.827   5.646   6.859  0.9656 -0.8640 -2.3071
   85CHL1    O3 8699   5.910   5.746   6.718 -0.0717  0.5773 -0.0151
   85CHL1   H3' 8700   5.993   5.791   6.703  1.1960 -1.8633 -1.0224
   85CHL1    C4 8701   5.837   5.865   6.914 -0.1511 -0.3871 -0.4149
   85CHL1   H4A 8702   5.891   5.953   6.873 -0.3115 -1.4059 -3.0063
   85CHL1   H4B 8703   5.737   5.895   6.877 -1.0562  0.7960  2.6286
   85CHL1    C5 8704   5.833   5.873   7.067  0.5805  0.2908  0.0016
   85CHL1    C6 8705   5.724   5.899   7.133  0.4883 -0.0291 -1.1954
   85CHL1    H6 8706   5.632   5.928   7.079  0.1979  0.2851 -0.5457
   85CHL1    C7 8707   5.709   5.905   7.286 -0.3869  1.5848 -0.5618
   85CHL1   H7A 8708   5.666   6.006   7.307  0.4796  1.6246  1.2300
   85CHL1   H7B 8709   5.634   5.828   7.315  0.4122 -0.0603 -2.6136
   85CHL1    C8 8710   5.842   5.891   7.360 -0.5068 -0.0239 -0.4380
   85CHL1    H8 8711   5.893   5.989   7.370 -1.2401  0.3209  0.0320
   85CHL1   C14 8712   5.809   5.850   7.494 -0.9736 -0.1500 -0.4519
   85CHL1   H14 8713   5.754   5.753   7.493  0.3039 -1.0165  2.3114
   85CHL1   C15 8714   5.713   5.939   7.575  0.5431 -0.1876 -0.6195
   85CHL1  H15A 8715   5.743   6.045   7.558  1.1315 -0.2420  0.0672
   85CHL1  H15B 8716   5.606   5.910   7.568  0.8722 -1.5726 -0.1368
   85CHL1   C16 8717   5.751   5.901   7.721 -0.1615 -0.2500 -0.3720
   85CHL1  H16A 8718   5.771   5.993   7.780  1.8057 -1.5771  1.1620
   85CHL1  H16B 8719   5.666   5.860   7.779 -0.9321  1.7887  0.0556
   85CHL1   C17 8720   5.870   5.800   7.712  0.2336  0.0118  0.8125
   85CHL1   H17 8721   5.822   5.701   7.697 -2.3822  1.7333 -4.4186
   85CHL1   C13 8722   5.933   5.835   7.575 -0.0037 -0.1052  0.6544
   85CHL1   C18 8723   6.013   5.963   7.586 -0.5411 -0.2187 -0.5918
   85CHL1  H18A 8724   6.056   6.006   7.493  1.1100 -1.2502 -0.3447
   85CHL1  H18B 8725   5.963   6.050   7.633 -1.3328 -0.1568 -1.5205
   85CHL1  H18C 8726   6.104   5.944   7.647 -0.4902 -1.6928 -1.0698
   85CHL1   C12 8727   6.014   5.724   7.518  1.0324  0.0573  0.5496
   85CHL1  H12A 8728   6.096   5.703   7.589 -0.7205 -2.0583  2.0816
   85CHL1  H12B 8729   5.951   5.635   7.537 -1.6161  2.1132  2.3633
   85CHL1   C11 8730   6.056   5.747   7.375 -0.6129  0.5827 -0.3437
   85CHL1  H11A 8731   6.122   5.836   7.370 -1.6168  1.3587 -0.0575
   85CHL1  H11B 8732   6.098   5.649   7.342 -1.6234  0.0384 -0.0666
   85CHL1    C9 8733   5.932   5.786   7.287 -0.0245  0.0402 -0.3540
   85CHL1    H9 8734   5.868   5.696   7.299  0.1775 -0.1721 -0.8252
   85CHL1   C10 8735   5.959   5.817   7.137  0.1348 -0.4448  0.3895
   85CHL1   C19 8736   6.071   5.928   7.138  0.2278  0.3915  0.1121
   85CHL1  H19A 8737   6.161   5.906   7.199  0.5003  0.6740 -0.1818
   85CHL1  H19B 8738   6.093   5.935   7.029 -2.4762  1.1542 -0.4428
   85CHL1  H19C 8739   6.032   6.027   7.170  0.3209  1.8462 -3.7342
   85CHL1    C1 8740   6.016   5.686   7.074  0.4878 -0.3077  0.0313
   85CHL1   H1A 8741   6.111   5.651   7.121  0.9570 -1.1146 -1.4483
   85CHL1   H1B 8742   5.944   5.606   7.105 -1.9851  1.2607 -1.3724
   85CHL1    C2 8743   6.028   5.697   6.924  0.6883  0.9025 -0.0410
   85CHL1   H2A 8744   6.050   5.593   6.891 -0.2035  0.1821  1.5378
   85CHL1   H2B 8745   6.108   5.768   6.894  1.3169  0.6392  0.9322
   85CHL1   C20 8746   5.959   5.792   7.835 -0.3292  0.7759  0.4217
   85CHL1   H20 8747   6.057   5.750   7.804 -1.3632 -0.7681 -0.9664
   85CHL1   C21 8748   5.911   5.690   7.933 -0.2044 -0.2035 -0.6405
   85CHL1  H21A 8749   5.974   5.680   8.025 -1.1314 -0.0899  0.0156
   85CHL1  H21B 8750   5.899   5.591   7.886  1.1193 -0.5511 -0.3057
   85CHL1  H21C 8751   5.809   5.713   7.969  0.8085  0.5118  2.1053
   85CHL1   C22 8752   5.994   5.920   7.905 -0.4479 -0.4640 -0.2797
   85CHL1  H22A 8753   6.014   6.011   7.843  0.1811 -0.7322 -0.4807
   85CHL1  H22B 8754   5.902   5.943   7.962 -0.3620  1.7941 -0.9290
   85CHL1   C23 8755   6.118   5.911   8.002 -0.2180  0.4540  0.1916
   85CHL1  H23A 8756   6.115   5.828   8.076  1.9581  0.0430 -0.1245
   85CHL1  H23B 8757   6.198   5.886   7.930  0.0145  1.6010  0.0307
   85CHL1   C24 8758   6.160   6.043   8.058  0.6068  0.1044  0.3259
   85CHL1  H24A 8759   6.197   6.091   7.964  0.1329 -0.1246  0.0172
   85CHL1  H24B 8760   6.070   6.095   8.099 -0.2111 -0.1633 -1.0444
   85CHL1   C25 8761   6.279   6.049   8.156  0.0500 -0.7827  0.6429
   85CHL1   H25 8762   6.369   6.016   8.100 -1.0300  0.0052 -1.6923
   85CHL1   C26 8763   6.316   6.201   8.191 -0.1639 -0.3874  0.2625
   85CHL1  H26A 8764   6.370   6.253   8.109  0.8459  0.2677  1.2900
   85CHL1  H26B 8765   6.224   6.259   8.211  0.1362  0.4149 -0.6159
   85CHL1  H26C 8766   6.379   6.210   8.283  2.5365 -1.5315 -1.3295
   85CHL1   C27 8767   6.259   5.960   8.278 -0.5403  0.3488 -0.6694
   85CHL1  H27A 8768   6.299   5.857   8.266 -1.1920 -0.0641  0.5495
   85CHL1  H27B 8769   6.317   5.999   8.365 -0.8333  0.9261 -0.7308
   85CHL1  H27C 8770   6.151   5.962   8.301 -0.7732  0.5827 -1.7175
   86CHL1    C3 8771   1.824   2.437   6.842 -0.0021 -0.5017  1.2976
   86CHL1    H3 8772   1.780   2.335   6.845 -2.8687  0.4850 -1.4240
   86CHL1    O3 8773   1.871   2.447   6.705 -0.8992  0.5231  0.3176
   86CHL1   H3' 8774   1.914   2.533   6.703 -0.4417  0.2905 -0.2060
   86CHL1    C4 8775   1.714   2.541   6.868  0.5066  0.4627 -0.1447
   86CHL1   H4A 8776   1.739   2.644   6.833  0.7207  0.6529  0.5485
   86CHL1   H4B 8777   1.636   2.519   6.792  2.4610  0.3567 -2.2139
   86CHL1    C5 8778   1.681   2.544   7.014  0.3740 -0.0978 -0.3516
   86CHL1    C6 8779   1.552   2.528   7.045  0.1928 -0.1288  0.2139
   86CHL1    H6 8780   1.479   2.514   6.964 -0.1426  0.6889  0.3700
   86CHL1    C7 8781   1.496   2.521   7.188 -0.5190 -0.5164 -0.4103
   86CHL1   H7A 8782   1.400   2.575   7.201  0.3597  1.1793 -0.6795
   86CHL1   H7B 8783   1.473   2.415   7.213 -1.2565 -0.4603 -0.8270
   86CHL1    C8 8784   1.597   2.580   7.293 -1.1171  0.0287 -0.3617
   86CHL1    H8 8785   1.590   2.690   7.280 -0.5732  0.0823 -0.2103
   86CHL1   C14 8786   1.562   2.542   7.434  0.4522  0.9614  0.1089
   86CHL1   H14 8787   1.572   2.432   7.445  0.1953  1.0096  0.9349
   86CHL1   C15 8788   1.422   2.584   7.477  0.5306 -0.0651 -0.5230
   86CHL1  H15A 8789   1.407   2.691   7.450 -0.3156 -0.0735 -0.1175
   86CHL1  H15B 8790   1.334   2.528   7.438  0.5005 -0.9129  0.7240
   86CHL1   C16 8791   1.420   2.562   7.624 -0.1497 -0.0673 -0.1768
   86CHL1  H16A 8792   1.384   2.649   7.683  0.9037  0.6522 -0.5683
   86CHL1  H16B 8793   1.363   2.477   7.666 -3.0921  1.1200 -1.4848
   86CHL1   C17 8794   1.572   2.539   7.671  0.1134 -0.0408 -0.0112
   86CHL1   H17 8795   1.586   2.429   7.673 -1.0760 -0.2044 -0.1044
   86CHL1   C13 8796   1.661   2.585   7.547 -0.2859 -0.3355 -0.2715
   86CHL1   C18 8797   1.671   2.737   7.555 -0.2182 -0.5639 -0.4167
   86CHL1  H18A 8798   1.714   2.780   7.462  2.2821  0.8071  1.2445
   86CHL1  H18B 8799   1.572   2.780   7.581 -0.5512 -1.9249  0.7070
   86CHL1  H18C 8800   1.752   2.767   7.626 -0.4685  3.5867 -1.6238
   86CHL1   C12 8801   1.802   2.521   7.524  0.2839  0.3184  0.0559
   86CHL1  H12A 8802   1.872   2.559   7.602 -0.1769 -0.0121  0.6375
   86CHL1  H12B 8803   1.780   2.412   7.526  0.9403  0.0565 -2.7627
   86CHL1   C11 8804   1.843   2.562   7.383 -0.2519 -0.4394 -0.2991
   86CHL1  H11A 8805   1.883   2.666   7.383  1.2874 -1.0092 -1.1139
   86CHL1  H11B 8806   1.938   2.510   7.360 -0.9207 -1.1470 -1.5713
   86CHL1    C9 8807   1.740   2.528   7.277 -0.5965 -0.2289  0.5491
   86CHL1    H9 8808   1.725   2.418   7.281  0.7295 -0.4126  0.9644
   86CHL1   C10 8809   1.792   2.552   7.126  0.3232  0.1022 -0.0159
   86CHL1   C19 8810   1.843   2.694   7.105  0.9734 -0.4161 -0.4820
   86CHL1  H19A 8811   1.877   2.716   7.001 -0.6760  1.2978 -0.7182
   86CHL1  H19B 8812   1.777   2.775   7.141  0.4450 -1.0535  0.0031
   86CHL1  H19C 8813   1.934   2.703   7.168  0.2187 -1.3326  0.7867
   86CHL1    C1 8814   1.894   2.448   7.091 -0.1479 -0.1933  0.3142
   86CHL1   H1A 8815   1.981   2.477   7.154 -0.5327  0.8196  0.3923
   86CHL1   H1B 8816   1.867   2.344   7.119 -3.9580 -0.2786 -2.8733
   86CHL1    C2 8817   1.941   2.454   6.942 -0.7029  0.7255 -0.3264
   86CHL1   H2A 8818   2.015   2.373   6.928 -0.7250  0.2718  1.7386
   86CHL1   H2B 8819   2.002   2.546   6.927  0.5278 -0.1387 -0.8188
   86CHL1   C20 8820   1.597   2.592   7.810 -0.2543 -0.0613 -0.7668
   86CHL1   H20 8821   1.593   2.703   7.810  4.9855  0.3991 -1.4128
   86CHL1   C21 8822   1.746   2.560   7.836  1.2247 -0.3919  0.2785
   86CHL1  H21A 8823   1.771   2.565   7.945  0.0155  0.2757  0.5381
   86CHL1  H21B 8824   1.813   2.634   7.787 -1.9155  1.2344 -1.8577
   86CHL1  H21C 8825   1.773   2.458   7.801  1.5268 -0.0378 -0.5458
   86CHL1   C22 8826   1.493   2.543   7.914  0.1025  0.3538 -0.0396
   86CHL1  H22A 8827   1.391   2.565   7.876 -0.0275 -0.4372 -0.1785
   86CHL1  H22B 8828   1.501   2.432   7.922 -0.0167  0.4292  1.3976
   86CHL1   C23 8829   1.515   2.593   8.057  0.1771 -0.1396 -0.3249
   86CHL1  H23A 8830   1.445   2.551   8.132  0.5264  0.3334  0.2712
   86CHL1  H23B 8831   1.621   2.573   8.086  1.3605  2.4873 -2.3781
   86CHL1   C24 8832   1.486   2.745   8.078 -0.7971  1.0626 -0.9578
   86CHL1  H24A 8833   1.561   2.810   8.028 -1.3441  2.1391 -0.4193
   86CHL1  H24B 8834   1.384   2.764   8.039 -0.7941  1.6919 -0.6686
   86CHL1   C25 8835   1.479   2.780   8.224 -0.3070 -0.5575  0.0519
   86CHL1   H25 8836   1.393   2.720   8.260 -2.1681  1.5963 -0.5448
   86CHL1   C26 8837   1.608   2.755   8.298 -0.0014  0.3631 -0.0182
   86CHL1  H26A 8838   1.627   2.647   8.286 -1.8402  0.1627 -1.5523
   86CHL1  H26B 8839   1.689   2.820   8.259 -0.0459  1.5028  1.6711
   86CHL1  H26C 8840   1.583   2.782   8.403 -0.8978 -1.2201  0.1922
   86CHL1   C27 8841   1.428   2.927   8.233 -0.1335 -0.3582 -0.4413
   86CHL1  H27A 8842   1.504   2.991   8.183 -0.8151  0.3027 -0.6428
   86CHL1  H27B 8843   1.332   2.945   8.180  0.3145  0.3378 -1.0370
   86CHL1  H27C 8844   1.412   2.961   8.338  0.0411 -0.4887 -0.3726
   87CHL1    C3 8845   2.643   3.313   6.860  0.0273 -0.6286  0.3287
   87CHL1    H3 8846   2.738   3.366   6.878 -0.5785  0.2502  1.0500
   87CHL1    O3 8847   2.638   3.246   6.740  0.1304  0.0384  0.2229
   87CHL1   H3' 8848   2.547   3.219   6.731  0.1483  0.3628 -1.3100
   87CHL1    C4 8849   2.615   3.207   6.969  0.1035  0.1897 -0.3666
   87CHL1   H4A 8850   2.520   3.151   6.956  1.3746 -1.9806 -0.7232
   87CHL1   H4B 8851   2.696   3.131   6.964 -0.9300 -0.8578 -2.6123
   87CHL1    C5 8852   2.609   3.277   7.103  0.1607  0.1601 -0.0771
   87CHL1    C6 8853   2.695   3.249   7.198  0.0143  0.1330  0.3914
   87CHL1    H6 8854   2.773   3.172   7.183 -1.2205 -1.0541 -0.1653
   87CHL1    C7 8855   2.688   3.313   7.334  0.4739  0.3747 -0.3401
   87CHL1   H7A 8856   2.701   3.238   7.415 -2.7180  0.3809  0.3004
   87CHL1   H7B 8857   2.768   3.387   7.354 -0.4456  1.7887 -1.6637
   87CHL1    C8 8858   2.557   3.391   7.363  0.2856  0.4885  0.3780
   87CHL1    H8 8859   2.485   3.308   7.383  0.5612 -0.1221 -1.0435
   87CHL1   C14 8860   2.581   3.475   7.486 -0.4417 -0.9738  0.0630
   87CHL1   H14 8861   2.662   3.548   7.462 -1.2105 -0.7003 -1.8856
   87CHL1   C15 8862   2.637   3.410   7.621 -0.1179 -0.4331  1.0139
   87CHL1  H15A 8863   2.584   3.315   7.644  0.0039 -0.4269  1.3195
   87CHL1  H15B 8864   2.744   3.380   7.616 -0.7727 -3.0383  1.1701
   87CHL1   C16 8865   2.601   3.512   7.729 -0.6641 -0.4935 -0.0081
   87CHL1  H16A 8866   2.545   3.453   7.804  0.9505 -1.0110  0.8177
   87CHL1  H16B 8867   2.698   3.547   7.771 -1.4689  2.2173 -0.1744
   87CHL1   C17 8868   2.501   3.617   7.663 -0.3140  0.1293  0.2983
   87CHL1   H17 8869   2.564   3.703   7.636 -0.8432 -0.2235 -2.3065
   87CHL1   C13 8870   2.462   3.552   7.533 -0.5085  1.1669 -0.0809
   87CHL1   C18 8871   2.355   3.442   7.554  1.0266  0.1414 -0.2537
   87CHL1  H18A 8872   2.383   3.365   7.629  0.2972 -0.9276 -1.0484
   87CHL1  H18B 8873   2.262   3.492   7.587  0.0504  0.2459 -2.8978
   87CHL1  H18C 8874   2.311   3.394   7.464  0.1155  2.2507 -0.9730
   87CHL1   C12 8875   2.415   3.647   7.427  0.1151 -0.0916  0.2051
   87CHL1  H12A 8876   2.327   3.711   7.451 -0.0998 -0.4076  0.2812
   87CHL1  H12B 8877   2.492   3.721   7.398 -1.8149  0.9087 -2.8297
   87CHL1   C11 8878   2.391   3.572   7.295 -0.2408  0.1958 -0.1607
   87CHL1  H11A 8879   2.295   3.517   7.301  0.6951 -1.5685 -0.4625
   87CHL1  H11B 8880   2.375   3.638   7.207 -0.6574  0.8136  0.3711
   87CHL1    C9 8881   2.508   3.478   7.254  0.0209  0.4233  0.3558
   87CHL1    H9 8882   2.602   3.536   7.239  1.1108 -0.3907  3.3510
   87CHL1   C10 8883   2.500   3.387   7.123  0.4814  0.5283 -0.3097
   87CHL1   C19 8884   2.360   3.319   7.121  0.0310 -0.0296 -0.3905
   87CHL1  H19A 8885   2.335   3.247   7.202  1.4937 -0.0110  0.0937
   87CHL1  H19B 8886   2.290   3.405   7.135 -1.0692 -1.1809  1.4828
   87CHL1  H19C 8887   2.342   3.277   7.019 -0.4522 -0.1189 -0.2718
   87CHL1    C1 8888   2.507   3.475   6.997  0.2184 -0.3370 -0.3575
   87CHL1   H1A 8889   2.422   3.547   7.002  0.1956 -0.4523  2.0329
   87CHL1   H1B 8890   2.599   3.536   7.007 -0.2290  0.1931  0.7064
   87CHL1    C2 8891   2.528   3.406   6.863  1.0441  0.5117 -0.1686
   87CHL1   H2A 8892   2.544   3.485   6.786 -1.2013 -0.1083 -1.3663
   87CHL1   H2B 8893   2.429   3.356   6.848  1.6078 -1.2127  1.4929
   87CHL1   C20 8894   2.389   3.656   7.763 -0.6120  0.0800  0.2417
   87CHL1   H20 8895   2.337   3.562   7.791  0.0916  0.1485  1.8981
   87CHL1   C21 8896   2.282   3.753   7.700  0.3542  0.0712 -1.0020
   87CHL1  H21A 8897   2.343   3.829   7.646 -0.5001  1.5957  0.0808
   87CHL1  H21B 8898   2.213   3.795   7.777 -0.7655 -2.8889 -0.2560
   87CHL1  H21C 8899   2.219   3.687   7.637  0.2069  0.3433 -1.1388
   87CHL1   C22 8900   2.443   3.737   7.886 -0.1969  0.3857  0.5861
   87CHL1  H22A 8901   2.528   3.681   7.929 -1.6248 -1.0588  1.6881
   87CHL1  H22B 8902   2.475   3.839   7.858 -0.8466  0.5570  0.4498
   87CHL1   C23 8903   2.343   3.746   8.011  0.0715  0.1064 -0.1661
   87CHL1  H23A 8904   2.271   3.831   8.012  1.1316  1.0238 -0.4903
   87CHL1  H23B 8905   2.279   3.655   7.999  0.4628  0.0354 -1.8512
   87CHL1   C24 8906   2.409   3.713   8.153 -0.6459  0.0206 -0.7571
   87CHL1  H24A 8907   2.450   3.610   8.151 -2.0873 -0.5892 -0.4826
   87CHL1  H24B 8908   2.494   3.784   8.159 -0.2603 -0.2554 -2.4761
   87CHL1   C25 8909   2.308   3.727   8.268 -0.6600  0.6111  0.1036
   87CHL1   H25 8910   2.239   3.811   8.242  0.9438  2.2154  0.8144
   87CHL1   C26 8911   2.238   3.596   8.279 -0.1528 -0.0775  0.3958
   87CHL1  H26A 8912   2.305   3.512   8.308 -0.9321 -1.0555 -0.5326
   87CHL1  H26B 8913   2.164   3.577   8.360  2.4601 -1.3604  2.6552
   87CHL1  H26C 8914   2.189   3.582   8.180 -3.6814  1.1692  1.8321
   87CHL1   C27 8915   2.376   3.765   8.399  0.3392 -0.1253  0.5910
   87CHL1  H27A 8916   2.453   3.845   8.394 -1.1712  1.3034 -1.3129
   87CHL1  H27B 8917   2.301   3.801   8.473  0.7926 -0.3362  1.1619
   87CHL1  H27C 8918   2.434   3.684   8.448  2.6464  1.1655  0.1329
   88CHL1    C3 8919   6.013   0.715   6.832 -0.5410 -0.9796 -0.3281
   88CHL1    H3 8920   5.905   0.709   6.860 -0.6260  0.3624 -0.3144
   88CHL1    O3 8921   6.027   0.709   6.693  0.1259  0.2878 -0.6524
   88CHL1   H3' 8922   6.059   0.799   6.678 -0.2275  0.4399 -0.5117
   88CHL1    C4 8923   6.056   0.843   6.888 -0.3259 -0.1458  0.5899
   88CHL1   H4A 8924   6.160   0.861   6.854 -1.0541 -0.2586 -1.8727
   88CHL1   H4B 8925   5.992   0.925   6.848 -1.3451  1.2281  4.5659
   88CHL1    C5 8926   6.040   0.843   7.040  0.5156  0.2609  0.0301
   88CHL1    C6 8927   5.968   0.945   7.109  0.4550  1.0331  0.5785
   88CHL1    H6 8928   5.913   1.015   7.045 -0.8421  0.7512  1.3447
   88CHL1    C7 8929   5.957   0.951   7.253  0.2325 -0.0355 -0.3177
   88CHL1   H7A 8930   5.974   1.052   7.295  0.1089 -0.1704  0.0605
   88CHL1   H7B 8931   5.854   0.918   7.281  0.4923 -1.6642 -1.1567
   88CHL1    C8 8932   6.064   0.856   7.321  0.6293  0.4168  0.4190
   88CHL1    H8 8933   6.167   0.898   7.310  1.2498 -0.9664  0.6933
   88CHL1   C14 8934   6.039   0.851   7.472  0.2909  0.1935 -0.4956
   88CHL1   H14 8935   5.931   0.836   7.491  0.5051  0.5266  1.2097
   88CHL1   C15 8936   6.055   0.981   7.564  0.1533  0.6179 -0.0434
   88CHL1  H15A 8937   6.154   1.026   7.541  0.8530  0.7298  2.8111
   88CHL1  H15B 8938   5.971   1.053   7.552  0.9106  1.6238  0.4925
   88CHL1   C16 8939   6.056   0.919   7.708  0.3041 -0.7367 -0.0812
   88CHL1  H16A 8940   6.145   0.955   7.764 -0.2769  1.1581 -0.2839
   88CHL1  H16B 8941   5.965   0.947   7.765  1.3597 -2.8620  2.8753
   88CHL1   C17 8942   6.063   0.765   7.695  0.2504  0.0922  0.2731
   88CHL1   H17 8943   5.957   0.734   7.700  0.2180  0.2588  0.6113
   88CHL1   C13 8944   6.113   0.746   7.548 -0.6908  0.5259 -0.6152
   88CHL1   C18 8945   6.269   0.767   7.545  0.6488 -0.4868 -0.8772
   88CHL1  H18A 8946   6.296   0.869   7.582 -1.7524 -0.3086  0.6413
   88CHL1  H18B 8947   6.314   0.699   7.621  1.2686  2.7709  1.9420
   88CHL1  H18C 8948   6.307   0.754   7.442  2.9620 -0.1395 -0.1344
   88CHL1   C12 8949   6.066   0.613   7.490  0.2797  0.0112  0.7145
   88CHL1  H12A 8950   6.123   0.537   7.547  1.2961 -0.5012 -0.9065
   88CHL1  H12B 8951   5.956   0.596   7.497  0.5303 -1.8656  0.5993
   88CHL1   C11 8952   6.094   0.598   7.341 -0.3468  0.1807 -0.0461
   88CHL1  H11A 8953   6.203   0.582   7.346 -0.5722 -1.0615  2.4274
   88CHL1  H11B 8954   6.062   0.499   7.303 -2.3006  0.2209  1.3495
   88CHL1    C9 8955   6.049   0.719   7.254  0.7372 -0.5200 -0.2026
   88CHL1    H9 8956   5.941   0.695   7.243  0.6050  0.2724 -0.6730
   88CHL1   C10 8957   6.103   0.727   7.112 -0.4218  0.2226  0.0488
   88CHL1   C19 8958   6.255   0.749   7.116 -0.1762 -0.2001 -0.3299
   88CHL1  H19A 8959   6.294   0.723   7.015  1.8398 -0.7025  0.5207
   88CHL1  H19B 8960   6.279   0.856   7.135 -2.4195  0.7951 -2.5291
   88CHL1  H19C 8961   6.317   0.684   7.182  0.3064  0.6943  0.1188
   88CHL1    C1 8962   6.075   0.595   7.045  0.2454 -0.4975  0.2863
   88CHL1   H1A 8963   6.150   0.519   7.075  0.6609  0.5438  2.0429
   88CHL1   H1B 8964   5.972   0.566   7.076 -0.9335  1.7349 -1.1947
   88CHL1    C2 8965   6.080   0.586   6.892 -0.2492  0.0328 -0.1832
   88CHL1   H2A 8966   6.045   0.489   6.850  0.4755 -0.4784  0.3908
   88CHL1   H2B 8967   6.188   0.599   6.869  0.1839  1.2215  2.2256
   88CHL1   C20 8968   6.135   0.682   7.809 -0.1906 -0.3749  0.6277
   88CHL1   H20 8969   6.195   0.603   7.760  0.9119 -0.1625  1.5917
   88CHL1   C21 8970   6.043   0.609   7.901  0.9644 -0.1831 -0.3950
   88CHL1  H21A 8971   5.953   0.565   7.853 -1.1140  2.7304  0.5549
   88CHL1  H21B 8972   5.997   0.681   7.972 -2.0830 -2.5804  0.2711
   88CHL1  H21C 8973   6.089   0.529   7.963 -0.0607  1.7494  3.1461
   88CHL1   C22 8974   6.237   0.761   7.892 -0.3555 -0.6570 -0.8402
   88CHL1  H22A 8975   6.294   0.827   7.823 -0.8941 -0.8051 -1.4457
   88CHL1  H22B 8976   6.182   0.825   7.964 -0.6153 -2.2695  0.4416
   88CHL1   C23 8977   6.341   0.680   7.966 -0.8679 -0.1097  0.1755
   88CHL1  H23A 8978   6.294   0.593   8.016  1.0186 -2.6171 -2.1648
   88CHL1  H23B 8979   6.419   0.632   7.904 -0.5207 -0.5683  0.9595
   88CHL1   C24 8980   6.416   0.759   8.073  0.7919  1.2457 -1.0421
   88CHL1  H24A 8981   6.457   0.851   8.026 -1.1588  2.2925 -0.7728
   88CHL1  H24B 8982   6.341   0.798   8.145  0.6737 -2.6202  1.1835
   88CHL1   C25 8983   6.531   0.688   8.152  0.4945 -0.6940  0.3943
   88CHL1   H25 8984   6.571   0.763   8.224  0.0752 -0.0282 -0.0559
   88CHL1   C26 8985   6.480   0.563   8.224  1.0962  0.1798  0.2675
   88CHL1  H26A 8986   6.573   0.516   8.263  1.4860  0.2275 -0.5753
   88CHL1  H26B 8987   6.416   0.603   8.306 -3.0229 -2.6456 -1.2530
   88CHL1  H26C 8988   6.414   0.504   8.158 -0.4547  0.6906  1.3023
   88CHL1   C27 8989   6.647   0.653   8.064  0.0330 -0.3193  0.0898
   88CHL1  H27A 8990   6.737   0.615   8.116  1.5076  0.8161 -1.5237
   88CHL1  H27B 8991   6.610   0.572   7.998  0.2684 -2.7736  2.7948
   88CHL1  H27C 8992   6.673   0.740   7.999 -1.7973  2.3808  2.6974
   89CHL1    C3 8993   2.974   2.457   6.935  0.0119  0.2087  0.7703
   89CHL1    H3 8994   2.972   2.347   6.947 -1.6950  0.0655 -0.5220
   89CHL1    O3 8995   2.970   2.492   6.795 -0.1943  0.0398 -0.0039
   89CHL1   H3' 8996   3.059   2.524   6.780 -0.0437 -0.7212 -0.8241
   89CHL1    C4 8997   2.853   2.509   6.998 -0.3731  0.2522 -0.3190
   89CHL1   H4A 8998   2.855   2.614   6.964 -2.5285  0.6442  0.5911
   89CHL1   H4B 8999   2.756   2.465   6.963 -1.2249  2.0143 -0.2802
   89CHL1    C5 9000   2.862   2.496   7.150 -0.0885 -0.0501 -0.0056
   89CHL1    C6 9001   2.769   2.434   7.225  0.2256 -0.1998  0.3760
   89CHL1    H6 9002   2.683   2.393   7.169  0.2660 -1.6993  1.3569
   89CHL1    C7 9003   2.747   2.421   7.371  0.2111 -0.2250 -0.3068
   89CHL1   H7A 9004   2.657   2.476   7.407  0.6458 -1.1294  2.3856
   89CHL1   H7B 9005   2.736   2.316   7.405  0.6404 -0.5934 -1.2736
   89CHL1    C8 9006   2.866   2.499   7.445  0.1393 -0.2159 -0.1383
   89CHL1    H8 9007   2.843   2.608   7.452  3.1675  0.4937  0.0961
   89CHL1   C14 9008   2.888   2.438   7.583 -0.2181 -0.2382 -0.2892
   89CHL1   H14 9009   2.927   2.336   7.564  0.4355 -0.3114  1.2705
   89CHL1   C15 9010   2.771   2.432   7.686  0.3572  0.4503  0.9851
   89CHL1  H15A 9011   2.720   2.529   7.704  2.0296  1.3380  1.2207
   89CHL1  H15B 9012   2.695   2.356   7.657 -0.5867  1.9975 -0.8129
   89CHL1   C16 9013   2.848   2.393   7.810  0.4197  0.1851  0.2385
   89CHL1  H16A 9014   2.816   2.426   7.911  0.0265  2.2127 -0.5094
   89CHL1  H16B 9015   2.863   2.284   7.826 -0.6928 -0.2425 -1.4040
   89CHL1   C17 9016   3.000   2.432   7.793  0.0159 -0.3725 -0.3182
   89CHL1   H17 9017   3.047   2.334   7.769 -1.4364 -0.5707 -2.6681
   89CHL1   C13 9018   3.009   2.505   7.666  0.3618 -0.3702 -0.0824
   89CHL1   C18 9019   2.982   2.651   7.685  0.8208 -0.8268 -0.8741
   89CHL1  H18A 9020   2.888   2.677   7.740  0.8848 -1.1330 -0.6171
   89CHL1  H18B 9021   3.065   2.703   7.738  0.5586 -0.5301 -0.7473
   89CHL1  H18C 9022   2.975   2.704   7.588  2.2130 -0.4324 -0.7772
   89CHL1   C12 9023   3.138   2.484   7.588  0.0774  0.2760 -0.1835
   89CHL1  H12A 9024   3.228   2.531   7.633  1.1798 -1.3148 -0.6223
   89CHL1  H12B 9025   3.171   2.378   7.599  1.2472  0.4763 -1.5479
   89CHL1   C11 9026   3.125   2.542   7.446  0.4124  0.2427  0.3220
   89CHL1  H11A 9027   3.119   2.653   7.450  0.7391  0.2846 -0.1799
   89CHL1  H11B 9028   3.222   2.526   7.392  0.8726 -0.1742  1.2536
   89CHL1    C9 9029   2.997   2.484   7.365 -0.2267 -0.3531  0.0359
   89CHL1    H9 9030   3.011   2.373   7.361 -1.1016 -0.4289 -1.3710
   89CHL1   C10 9031   2.987   2.538   7.225  0.4665 -0.1508 -0.0270
   89CHL1   C19 9032   2.973   2.691   7.225 -0.4389 -0.2210  0.1340
   89CHL1  H19A 9033   2.972   2.739   7.125  0.4725 -0.0688  0.1931
   89CHL1  H19B 9034   2.875   2.720   7.270 -0.4201  1.4988 -0.8733
   89CHL1  H19C 9035   3.059   2.743   7.273 -0.7967  0.4361  0.0758
   89CHL1    C1 9036   3.105   2.486   7.146 -0.5229  0.1082 -0.2918
   89CHL1   H1A 9037   3.192   2.543   7.185 -0.5561  0.4588 -0.7166
   89CHL1   H1B 9038   3.130   2.380   7.168  0.9476  0.7381  1.2866
   89CHL1    C2 9039   3.105   2.516   6.999  0.2718 -0.8669 -0.1813
   89CHL1   H2A 9040   3.197   2.481   6.947  1.3731  0.1479  1.0122
   89CHL1   H2B 9041   3.112   2.627   6.987  4.6616 -0.8975  0.4062
   89CHL1   C20 9042   3.078   2.482   7.924  0.3149  0.0496  0.2424
   89CHL1   H20 9043   3.172   2.529   7.887  1.0892 -1.6970 -0.0667
   89CHL1   C21 9044   3.112   2.349   8.000  0.1175  0.0195 -0.1803
   89CHL1  H21A 9045   3.021   2.287   8.016 -0.4114  0.0101 -2.8335
   89CHL1  H21B 9046   3.172   2.363   8.093 -0.7347 -0.7792  0.5062
   89CHL1  H21C 9047   3.172   2.294   7.924 -1.3795 -0.6437 -0.9294
   89CHL1   C22 9048   2.996   2.586   8.005 -0.0855  0.6297 -0.8273
   89CHL1  H22A 9049   2.979   2.676   7.943 -1.3165  0.4363 -0.8022
   89CHL1  H22B 9050   2.892   2.554   8.029  0.1004 -1.1336 -2.1955
   89CHL1   C23 9051   3.071   2.626   8.141  0.8069  0.1740 -0.0362
   89CHL1  H23A 9052   3.068   2.539   8.210  3.9836 -0.9513 -1.1692
   89CHL1  H23B 9053   3.176   2.646   8.113  0.9441 -2.0764 -1.4326
   89CHL1   C24 9054   2.992   2.747   8.215  0.2754  0.9402  0.4063
   89CHL1  H24A 9055   2.990   2.840   8.154 -0.5022  1.9599  1.9265
   89CHL1  H24B 9056   2.885   2.717   8.221  0.1971  1.2447  0.5793
   89CHL1   C25 9057   3.032   2.770   8.362  0.3934  0.0527  0.1112
   89CHL1   H25 9058   3.012   2.668   8.399 -0.6715 -0.5844 -2.0376
   89CHL1   C26 9059   3.173   2.812   8.383  0.1833 -0.4014  0.9044
   89CHL1  H26A 9060   3.191   2.910   8.335 -0.2462 -1.1488 -0.8663
   89CHL1  H26B 9061   3.185   2.828   8.492 -1.3005 -1.3163  1.2343
   89CHL1  H26C 9062   3.246   2.736   8.346 -0.9532 -0.5780 -1.1376
   89CHL1   C27 9063   2.934   2.880   8.425 -0.2573  0.2917  0.5776
   89CHL1  H27A 9064   2.983   2.977   8.399  2.4194 -0.9888  0.5045
   89CHL1  H27B 9065   2.834   2.888   8.377 -1.0251  0.3440  2.1297
   89CHL1  H27C 9066   2.921   2.865   8.534 -1.5113 -0.0999  0.3896
   90CHL1    C3 9067   1.802   6.426   7.083  0.5862  0.4905  0.7285
   90CHL1    H3 9068   1.733   6.502   7.125  0.2758  0.0067  1.1141
   90CHL1    O3 9069   1.788   6.438   6.940 -0.0467 -0.3170 -0.7253
   90CHL1   H3' 9070   1.874   6.411   6.906  0.9764  1.2663  0.4346
   90CHL1    C4 9071   1.947   6.445   7.131 -0.8927 -0.0977  0.0629
   90CHL1   H4A 9072   2.002   6.364   7.079 -2.5648  0.4377 -2.7310
   90CHL1   H4B 9073   1.975   6.545   7.091 -1.9763 -0.0187 -0.5412
   90CHL1    C5 9074   1.967   6.431   7.282  0.0320 -0.9489 -0.0269
   90CHL1    C6 9075   2.017   6.539   7.352  0.6189 -0.0015  0.2781
   90CHL1    H6 9076   2.057   6.628   7.302  0.2944  0.7344  1.3037
   90CHL1    C7 9077   2.035   6.531   7.499  0.2413  0.3308  0.6198
   90CHL1   H7A 9078   2.142   6.545   7.523 -0.1399  0.4808  2.3976
   90CHL1   H7B 9079   1.991   6.615   7.557 -2.0110 -1.1630  1.1952
   90CHL1    C8 9080   2.008   6.395   7.567 -0.4310  0.9471  0.6111
   90CHL1    H8 9081   2.104   6.339   7.559 -0.2526  1.1953  0.9781
   90CHL1   C14 9082   1.984   6.412   7.716  0.5769 -0.2108 -0.2008
   90CHL1   H14 9083   1.883   6.456   7.720  1.4995  1.9501  1.0159
   90CHL1   C15 9084   2.067   6.513   7.796 -0.1410  0.5946  1.1621
   90CHL1  H15A 9085   2.176   6.494   7.779 -0.2561 -0.3261  1.3665
   90CHL1  H15B 9086   2.038   6.620   7.791  0.9974  0.8827 -0.5553
   90CHL1   C16 9087   2.037   6.469   7.937 -0.7094  0.1886  0.0466
   90CHL1  H16A 9088   2.139   6.443   7.972 -1.8425 -3.3509  1.1201
   90CHL1  H16B 9089   1.998   6.550   8.002  0.0192  0.3954  0.2361
   90CHL1   C17 9090   1.938   6.350   7.940  0.4592  0.2987 -0.1050
   90CHL1   H17 9091   1.841   6.402   7.935  0.1570 -0.2523 -0.0701
   90CHL1   C13 9092   1.956   6.291   7.797 -0.1314  0.0735 -0.1800
   90CHL1   C18 9093   2.082   6.201   7.788 -0.1854 -0.6195 -0.7673
   90CHL1  H18A 9094   2.073   6.117   7.860  0.8391 -2.7709 -3.0203
   90CHL1  H18B 9095   2.095   6.158   7.687  0.6872  1.1254 -1.4463
   90CHL1  H18C 9096   2.169   6.263   7.820  0.2036 -2.0350  1.1033
   90CHL1   C12 9097   1.833   6.219   7.733  0.6581  0.3903  0.1651
   90CHL1  H12A 9098   1.796   6.127   7.782 -1.0090  0.4940 -0.7988
   90CHL1  H12B 9099   1.754   6.297   7.732  0.8826  0.6202 -0.1327
   90CHL1   C11 9100   1.852   6.203   7.582 -0.3063  0.4894 -0.1704
   90CHL1  H11A 9101   1.927   6.124   7.561  1.0992  1.4477  0.9862
   90CHL1  H11B 9102   1.756   6.159   7.547 -0.3675 -2.2428  2.9267
   90CHL1    C9 9103   1.893   6.327   7.500  0.7427  0.1276 -0.3553
   90CHL1    H9 9104   1.817   6.407   7.511  0.9080  0.0293  2.0038
   90CHL1   C10 9105   1.909   6.306   7.349 -0.6358  0.5356 -0.2101
   90CHL1   C19 9106   2.007   6.185   7.316  0.0184  0.4834  0.4103
   90CHL1  H19A 9107   2.014   6.170   7.206  0.1901  1.1791  0.3216
   90CHL1  H19B 9108   2.109   6.200   7.356  0.5664 -0.5701 -0.5282
   90CHL1  H19C 9109   1.962   6.090   7.351  2.0935 -0.5213  0.4592
   90CHL1    C1 9110   1.768   6.284   7.284  0.7371  0.4223  0.3117
   90CHL1   H1A 9111   1.731   6.182   7.307 -0.5087  0.8092  0.0593
   90CHL1   H1B 9112   1.702   6.353   7.340 -0.2435 -0.4879  0.3019
   90CHL1    C2 9113   1.749   6.293   7.129 -0.3114  0.8552 -0.1705
   90CHL1   H2A 9114   1.643   6.285   7.098 -1.2132 -1.8548  3.0057
   90CHL1   H2B 9115   1.801   6.211   7.075 -1.9935  0.0095 -0.5611
   90CHL1   C20 9116   1.944   6.260   8.059 -0.0174 -0.3729  0.1518
   90CHL1   H20 9117   2.048   6.226   8.077 -0.7343 -2.0901  1.3292
   90CHL1   C21 9118   1.857   6.132   8.041  0.0734 -0.0489  0.0117
   90CHL1  H21A 9119   1.905   6.057   7.976  1.1528 -1.0834  1.8950
   90CHL1  H21B 9120   1.753   6.157   8.010  0.0419  2.0834  1.5566
   90CHL1  H21C 9121   1.842   6.079   8.138 -1.0626 -2.2231 -1.2941
   90CHL1   C22 9122   1.898   6.321   8.195  0.0851 -0.0874  0.5342
   90CHL1  H22A 9123   1.905   6.432   8.195  0.9562 -0.0522 -2.2218
   90CHL1  H22B 9124   1.789   6.301   8.209  0.4224 -1.2230  1.6883
   90CHL1   C23 9125   1.970   6.249   8.315  0.9030 -0.3062 -0.2840
   90CHL1  H23A 9126   1.948   6.141   8.321 -1.2267  0.1288  0.8787
   90CHL1  H23B 9127   2.079   6.269   8.304  1.2391 -0.2265  2.4578
   90CHL1   C24 9128   1.918   6.307   8.444  0.7300  0.8433 -0.5728
   90CHL1  H24A 9129   1.925   6.417   8.430  0.0754  0.7731 -1.5332
   90CHL1  H24B 9130   1.809   6.290   8.453  1.0201 -0.6857  0.3810
   90CHL1   C25 9131   1.987   6.250   8.574  0.4031 -0.3408 -0.4172
   90CHL1   H25 9132   2.095   6.261   8.551  0.3686 -1.0662 -0.9526
   90CHL1   C26 9133   1.950   6.341   8.694  0.2929 -0.0496  0.7392
   90CHL1  H26A 9134   2.015   6.329   8.783 -3.0688 -0.1513  3.3920
   90CHL1  H26B 9135   1.970   6.445   8.659 -1.7639 -0.3234 -1.5217
   90CHL1  H26C 9136   1.846   6.329   8.732  0.3253  0.1704  0.9017
   90CHL1   C27 9137   1.943   6.104   8.602  0.1442 -0.4462 -0.7534
   90CHL1  H27A 9138   1.833   6.107   8.622  0.3953  0.4702  0.6082
   90CHL1  H27B 9139   1.968   6.033   8.520  0.3294 -1.5753  0.2421
   90CHL1  H27C 9140   1.996   6.067   8.692  0.5084 -0.3268 -0.9165
   91CHL1    C3 9141   3.458   6.394   7.202  0.0124 -0.3484 -0.6641
   91CHL1    H3 9142   3.530   6.478   7.221 -1.8556  0.7610  2.2279
   91CHL1    O3 9143   3.437   6.364   7.066  0.1766 -0.3703 -0.7721
   91CHL1   H3' 9144   3.369   6.424   7.034 -1.3783 -1.5847  0.0964
   91CHL1    C4 9145   3.507   6.271   7.273  0.2031  0.0209 -0.3664
   91CHL1   H4A 9146   3.432   6.191   7.254 -1.9166  2.2436 -2.0631
   91CHL1   H4B 9147   3.599   6.244   7.216 -1.8012 -1.3950 -3.1510
   91CHL1    C5 9148   3.518   6.282   7.427  0.1725  0.0510 -0.1142
   91CHL1    C6 9149   3.634   6.247   7.484 -0.1075 -0.5408 -0.3403
   91CHL1    H6 9150   3.715   6.202   7.424  1.0835 -0.2596  1.0157
   91CHL1    C7 9151   3.658   6.254   7.631 -0.5585 -0.0027 -0.4236
   91CHL1   H7A 9152   3.705   6.163   7.674  0.7024  0.8237  0.0248
   91CHL1   H7B 9153   3.734   6.335   7.637 -0.3419 -0.2614  0.5481
   91CHL1    C8 9154   3.539   6.288   7.719 -0.4891  0.2492  0.4957
   91CHL1    H8 9155   3.486   6.191   7.734  2.4224 -1.4624  0.5361
   91CHL1   C14 9156   3.575   6.344   7.852 -0.5651 -0.8917  0.3282
   91CHL1   H14 9157   3.629   6.439   7.834 -3.5711  1.1213  1.2176
   91CHL1   C15 9158   3.677   6.265   7.938  0.0883 -0.2517 -0.2519
   91CHL1  H15A 9159   3.655   6.156   7.926  0.0991 -0.2175 -0.6019
   91CHL1  H15B 9160   3.782   6.276   7.902  0.4666 -2.4823  0.0054
   91CHL1   C16 9161   3.657   6.323   8.079 -0.6863 -0.1213  0.3900
   91CHL1  H16A 9162   3.654   6.251   8.164 -0.3574  0.1660  0.6463
   91CHL1  H16B 9163   3.736   6.393   8.113  2.3692 -1.8500 -2.5330
   91CHL1   C17 9164   3.525   6.413   8.077  0.4809 -0.3202  0.4101
   91CHL1   H17 9165   3.547   6.522   8.071  1.2078 -0.5074 -0.4962
   91CHL1   C13 9166   3.458   6.376   7.944  0.6168  0.3136  0.7350
   91CHL1   C18 9167   3.377   6.249   7.974 -0.4514  0.2188  0.6348
   91CHL1  H18A 9168   3.428   6.187   8.051 -0.4888  1.5452  1.7651
   91CHL1  H18B 9169   3.274   6.266   8.011 -0.7375 -2.1147  1.0881
   91CHL1  H18C 9170   3.352   6.191   7.882  0.1017 -0.1056  0.6811
   91CHL1   C12 9171   3.375   6.480   7.873  0.0186 -0.1419 -0.3974
   91CHL1  H12A 9172   3.287   6.508   7.935 -0.0894  1.6425 -1.2717
   91CHL1  H12B 9173   3.433   6.573   7.856 -0.1499  0.0545  0.0818
   91CHL1   C11 9174   3.331   6.431   7.735  0.4543 -0.3620 -0.8467
   91CHL1  H11A 9175   3.248   6.357   7.744 -1.8928  2.1429 -0.4399
   91CHL1  H11B 9176   3.288   6.519   7.683  0.0939  0.5208  0.8592
   91CHL1    C9 9177   3.444   6.386   7.645 -0.4389 -0.1805  0.5533
   91CHL1    H9 9178   3.511   6.474   7.637 -0.4314  0.1739  3.4409
   91CHL1   C10 9179   3.401   6.336   7.502 -0.3401  0.5891  0.0561
   91CHL1   C19 9180   3.295   6.221   7.508 -0.0640  0.3965 -0.0219
   91CHL1  H19A 9181   3.206   6.249   7.569 -0.9946 -1.5591 -0.4066
   91CHL1  H19B 9182   3.241   6.201   7.414 -2.5766  1.7662  1.0254
   91CHL1  H19C 9183   3.339   6.125   7.544  2.4141  0.3217 -2.8597
   91CHL1    C1 9184   3.344   6.459   7.428 -0.7393  0.1885 -0.2769
   91CHL1   H1A 9185   3.250   6.500   7.472  0.4144  2.9130 -0.1461
   91CHL1   H1B 9186   3.423   6.537   7.438 -1.7456  1.1403  0.4952
   91CHL1    C2 9187   3.327   6.442   7.273  0.1211  0.1760 -0.5017
   91CHL1   H2A 9188   3.283   6.531   7.222  0.7342  0.1304 -1.1264
   91CHL1   H2B 9189   3.241   6.373   7.266 -0.3709  0.8652 -1.6713
   91CHL1   C20 9190   3.441   6.393   8.209 -0.0915 -0.2892  0.1820
   91CHL1   H20 9191   3.408   6.288   8.226 -1.4242 -0.0443 -0.7393
   91CHL1   C21 9192   3.312   6.485   8.202  0.1231  0.3724  0.2777
   91CHL1  H21A 9193   3.234   6.454   8.129 -0.0268 -0.7854  0.9040
   91CHL1  H21B 9194   3.348   6.589   8.186  2.2930 -0.0512  1.8908
   91CHL1  H21C 9195   3.252   6.480   8.296 -1.0139  1.2238 -0.3767
   91CHL1   C22 9196   3.521   6.434   8.334  0.6198  0.3749 -0.4396
   91CHL1  H22A 9197   3.606   6.363   8.343 -0.1497 -0.4085  1.1186
   91CHL1  H22B 9198   3.575   6.530   8.327  0.3947  0.5088 -0.3525
   91CHL1   C23 9199   3.449   6.415   8.476  0.0677 -0.1142 -0.3200
   91CHL1  H23A 9200   3.354   6.472   8.481 -1.6073 -2.8029  1.0111
   91CHL1  H23B 9201   3.418   6.308   8.476  1.1294 -0.4284 -0.8311
   91CHL1   C24 9202   3.535   6.446   8.597  0.6640  0.1035 -0.5018
   91CHL1  H24A 9203   3.628   6.392   8.572  0.2593 -0.5781 -0.5547
   91CHL1  H24B 9204   3.555   6.555   8.600 -1.3717  0.5035  1.2726
   91CHL1   C25 9205   3.479   6.394   8.731 -0.4331  0.4256  0.0680
   91CHL1   H25 9206   3.490   6.284   8.721  5.1203  0.5347  1.7626
   91CHL1   C26 9207   3.564   6.436   8.848  0.2594  0.8397 -0.5727
   91CHL1  H26A 9208   3.520   6.396   8.941 -1.4222 -2.3759 -2.5494
   91CHL1  H26B 9209   3.669   6.400   8.840 -0.1158 -0.1954 -1.1786
   91CHL1  H26C 9210   3.566   6.547   8.854  1.0992  0.7600  1.7089
   91CHL1   C27 9211   3.332   6.424   8.744  0.4386  0.0386  0.0042
   91CHL1  H27A 9212   3.269   6.405   8.655 -1.1300  2.3454  0.5132
   91CHL1  H27B 9213   3.301   6.351   8.822 -0.1940 -0.0341 -0.3132
   91CHL1  H27C 9214   3.316   6.529   8.777 -0.5839 -0.2714  0.5431
   92CHL1    C3 9215   6.485   0.912   6.757  0.1118  0.1270 -0.5418
   92CHL1    H3 9216   6.400   0.858   6.804 -0.4689  2.3687  1.1144
   92CHL1    O3 9217   6.475   0.890   6.616  0.3268 -0.4180  0.3880
   92CHL1   H3' 9218   6.555   0.842   6.593  0.7404 -0.3205  1.5835
   92CHL1    C4 9219   6.465   1.059   6.800 -0.3427 -0.0698 -0.1318
   92CHL1   H4A 9220   6.541   1.124   6.753 -1.2138  0.9105 -0.2164
   92CHL1   H4B 9221   6.370   1.094   6.753 -0.3171  0.6374  0.3428
   92CHL1    C5 9222   6.473   1.071   6.948  0.1872 -0.7522  0.0090
   92CHL1    C6 9223   6.373   1.123   7.014  0.5591 -0.4333 -0.0520
   92CHL1    H6 9224   6.287   1.162   6.959  0.8502 -0.0008 -0.2027
   92CHL1    C7 9225   6.369   1.141   7.164  0.4984  0.2994  0.9360
   92CHL1   H7A 9226   6.346   1.247   7.184 -1.3437  0.0390  0.3872
   92CHL1   H7B 9227   6.288   1.075   7.201  0.1538  0.4074  0.3840
   92CHL1    C8 9228   6.508   1.114   7.236  0.3809 -0.7403 -0.1358
   92CHL1    H8 9229   6.571   1.206   7.235  0.4137 -0.7653 -0.3317
   92CHL1   C14 9230   6.481   1.081   7.383  0.6463 -0.1599 -0.5542
   92CHL1   H14 9231   6.412   0.994   7.393 -0.1844  0.4960 -0.4645
   92CHL1   C15 9232   6.418   1.188   7.476  0.0983 -0.6475 -0.1346
   92CHL1  H15A 9233   6.464   1.289   7.464 -2.7894  0.9422  1.2731
   92CHL1  H15B 9234   6.310   1.210   7.468  0.0591 -0.2146  1.2533
   92CHL1   C16 9235   6.450   1.149   7.621  1.0161  0.4255 -0.0670
   92CHL1  H16A 9236   6.481   1.233   7.687 -0.0089 -0.3929  1.5268
   92CHL1  H16B 9237   6.365   1.108   7.679  1.0296  0.7553  0.1891
   92CHL1   C17 9238   6.564   1.047   7.609 -0.5119  0.7808  0.0414
   92CHL1   H17 9239   6.519   0.946   7.614  0.5098  0.2516 -0.9696
   92CHL1   C13 9240   6.615   1.056   7.460  0.0946 -0.6701 -0.4552
   92CHL1   C18 9241   6.709   1.176   7.445 -0.0831 -0.2649  0.3136
   92CHL1  H18A 9242   6.746   1.186   7.341 -2.0781  1.3133 -0.2970
   92CHL1  H18B 9243   6.670   1.270   7.489 -1.0550  0.3475 -1.7633
   92CHL1  H18C 9244   6.799   1.147   7.505  0.1908 -0.3771 -0.1475
   92CHL1   C12 9245   6.667   0.919   7.404  0.2026  0.0653  0.2004
   92CHL1  H12A 9246   6.764   0.893   7.453 -0.0331 -0.7975  0.2281
   92CHL1  H12B 9247   6.594   0.849   7.450  0.7894 -0.4663  0.3414
   92CHL1   C11 9248   6.695   0.923   7.255 -0.2242  0.4226 -0.1147
   92CHL1  H11A 9249   6.794   0.967   7.230  0.9279 -2.8580 -1.9090
   92CHL1  H11B 9250   6.700   0.819   7.216 -1.1398  0.7235 -1.0641
   92CHL1    C9 9251   6.576   0.993   7.172  0.5098 -0.5605  0.5931
   92CHL1    H9 9252   6.499   0.914   7.185  0.7801 -0.6893  1.5023
   92CHL1   C10 9253   6.596   1.003   7.015 -0.1482  0.1190 -0.2407
   92CHL1   C19 9254   6.734   1.072   6.990 -0.5792 -0.1682 -0.5575
   92CHL1  H19A 9255   6.738   1.181   7.008  1.7385 -0.5177  1.4809
   92CHL1  H19B 9256   6.820   1.025   7.043 -0.9791  0.4129  0.6411
   92CHL1  H19C 9257   6.750   1.063   6.880  0.0726  2.4735 -0.7378
   92CHL1    C1 9258   6.615   0.860   6.964 -0.3501 -0.4807 -0.1433
   92CHL1   H1A 9259   6.714   0.823   6.996 -0.2605 -1.5800 -1.5752
   92CHL1   H1B 9260   6.536   0.796   7.009  0.0466  1.1289  3.1354
   92CHL1    C2 9261   6.611   0.841   6.810  0.6068  0.1408 -0.5463
   92CHL1   H2A 9262   6.603   0.731   6.791 -2.2720  0.3177 -0.8282
   92CHL1   H2B 9263   6.702   0.886   6.764  0.7673 -0.7632 -1.1603
   92CHL1   C20 9264   6.662   1.059   7.728  0.0548  0.0721 -0.7202
   92CHL1   H20 9265   6.712   1.158   7.730 -2.2844  1.4297 -3.2752
   92CHL1   C21 9266   6.776   0.962   7.712 -0.1212  0.3633  0.6620
   92CHL1  H21A 9267   6.840   0.984   7.624 -1.8763  0.5315 -0.6077
   92CHL1  H21B 9268   6.728   0.863   7.698  0.2130  0.0954  1.3483
   92CHL1  H21C 9269   6.847   0.960   7.798  1.4499 -0.1890 -0.5994
   92CHL1   C22 9270   6.585   1.036   7.860  0.0645 -0.4609 -0.4088
   92CHL1  H22A 9271   6.489   1.092   7.870  1.2770  1.4166  1.5235
   92CHL1  H22B 9272   6.559   0.929   7.847 -1.8005  0.2779 -4.5907
   92CHL1   C23 9273   6.654   1.060   8.000 -0.1841  0.2327  0.2176
   92CHL1  H23A 9274   6.584   1.041   8.084 -0.1864  1.2499  0.4645
   92CHL1  H23B 9275   6.746   1.001   8.016 -0.6250 -1.1738 -1.9039
   92CHL1   C24 9276   6.677   1.208   8.012  0.1218 -0.7701 -0.2567
   92CHL1  H24A 9277   6.718   1.231   8.112 -1.0700 -1.3052  0.3696
   92CHL1  H24B 9278   6.751   1.232   7.932  0.9585  2.1871  1.2547
   92CHL1   C25 9279   6.575   1.318   7.979 -0.1114  1.1265 -0.4187
   92CHL1   H25 9280   6.525   1.295   7.883  0.5032  1.7034 -0.8890
   92CHL1   C26 9281   6.477   1.335   8.101 -0.3222  0.7791 -0.1386
   92CHL1  H26A 9282   6.420   1.242   8.122  1.2039  0.1333  1.3894
   92CHL1  H26B 9283   6.527   1.368   8.194 -0.6175  2.8683 -0.6622
   92CHL1  H26C 9284   6.411   1.418   8.069 -0.1012 -0.0686 -3.2165
   92CHL1   C27 9285   6.640   1.457   7.956 -0.2206  0.5010  0.0279
   92CHL1  H27A 9286   6.716   1.474   8.035 -1.5045 -0.4257  1.5015
   92CHL1  H27B 9287   6.692   1.451   7.857  2.8991  1.3709  1.4892
   92CHL1  H27C 9288   6.568   1.540   7.960  0.6716  1.4606 -2.1249
   93CHL1    C3 9289   4.701   4.769   7.056  0.2014  0.1198 -1.1545
   93CHL1    H3 9290   4.596   4.734   7.068  0.3565 -0.2854 -0.9806
   93CHL1    O3 9291   4.717   4.808   6.922  0.6625 -0.4953  0.5390
   93CHL1   H3' 9292   4.812   4.812   6.903  0.5889 -0.6788  0.1209
   93CHL1    C4 9293   4.729   4.880   7.162  0.4668 -0.8069  0.7217
   93CHL1   H4A 9294   4.833   4.905   7.134 -0.5415 -0.6645 -3.6828
   93CHL1   H4B 9295   4.673   4.971   7.132  0.2043 -1.3430 -0.4892
   93CHL1    C5 9296   4.719   4.845   7.303 -0.4287  1.7612  0.7627
   93CHL1    C6 9297   4.644   4.917   7.386 -0.0199 -0.6587  0.4702
   93CHL1    H6 9298   4.588   5.008   7.360 -0.2943 -1.0845 -0.4691
   93CHL1    C7 9299   4.648   4.891   7.531 -0.4986 -0.0574  0.1859
   93CHL1   H7A 9300   4.665   4.978   7.597 -0.9283 -0.3840  0.7394
   93CHL1   H7B 9301   4.543   4.864   7.558  0.1563 -2.2041  0.8052
   93CHL1    C8 9302   4.746   4.786   7.583  0.3452  0.4673 -0.8605
   93CHL1    H8 9303   4.840   4.840   7.604 -0.1185 -0.1428  4.0779
   93CHL1   C14 9304   4.706   4.744   7.723  0.2626  0.1006 -0.0991
   93CHL1   H14 9305   4.608   4.694   7.711  0.5842 -0.8658  1.1341
   93CHL1   C15 9306   4.684   4.854   7.832  0.0740  0.5057 -0.0292
   93CHL1  H15A 9307   4.770   4.924   7.838  1.8552 -1.2823 -2.4654
   93CHL1  H15B 9308   4.593   4.905   7.794 -0.7754 -0.2295  0.9417
   93CHL1   C16 9309   4.690   4.765   7.961 -0.4572 -0.3570 -0.1463
   93CHL1  H16A 9310   4.768   4.810   8.026 -0.4335  0.8053 -0.9518
   93CHL1  H16B 9311   4.605   4.764   8.032 -0.0696  0.1816  0.3390
   93CHL1   C17 9312   4.728   4.618   7.921 -0.2175  0.6185  0.1743
   93CHL1   H17 9313   4.635   4.563   7.896  1.1084 -0.7378 -1.9437
   93CHL1   C13 9314   4.800   4.637   7.788 -0.0758  0.1749  0.2082
   93CHL1   C18 9315   4.941   4.703   7.819  1.4156 -0.2050  0.0685
   93CHL1  H18A 9316   4.936   4.792   7.885 -1.3163 -1.4388  1.7239
   93CHL1  H18B 9317   4.999   4.629   7.879 -0.3138 -0.1684  1.9148
   93CHL1  H18C 9318   4.980   4.727   7.718 -2.0007  1.0943 -1.0832
   93CHL1   C12 9319   4.807   4.516   7.694 -0.4632 -0.3438 -0.5865
   93CHL1  H12A 9320   4.883   4.440   7.722 -1.2400 -0.8424  0.2096
   93CHL1  H12B 9321   4.710   4.461   7.689  0.1893 -1.4167 -2.4249
   93CHL1   C11 9322   4.832   4.551   7.547  0.0663  0.1136  0.0206
   93CHL1  H11A 9323   4.941   4.572   7.540  0.0779 -0.2266 -1.0818
   93CHL1  H11B 9324   4.817   4.456   7.491  2.2187 -0.9762  1.1764
   93CHL1    C9 9325   4.755   4.668   7.483 -0.3159  0.1254  0.6956
   93CHL1    H9 9326   4.650   4.632   7.480 -0.6522  1.1143 -0.3739
   93CHL1   C10 9327   4.793   4.721   7.342  0.0915 -0.4119  0.6376
   93CHL1   C19 9328   4.940   4.760   7.356  0.6220 -0.5914 -0.5991
   93CHL1  H19A 9329   5.005   4.679   7.395 -0.6174 -0.7838  1.1825
   93CHL1  H19B 9330   4.985   4.799   7.262  1.4147 -1.0077 -0.3994
   93CHL1  H19C 9331   4.952   4.843   7.430  1.9324  0.6891 -2.1629
   93CHL1    C1 9332   4.773   4.609   7.241  0.3248 -0.2595 -0.2617
   93CHL1   H1A 9333   4.841   4.528   7.275 -0.3868 -0.7726 -0.0222
   93CHL1   H1B 9334   4.672   4.562   7.251 -0.3892  1.3679  0.4300
   93CHL1    C2 9335   4.800   4.648   7.091 -0.5263  0.4547  0.8912
   93CHL1   H2A 9336   4.792   4.564   7.019  1.2913  1.8046 -1.0206
   93CHL1   H2B 9337   4.901   4.693   7.078 -0.4251  0.5333  1.9301
   93CHL1   C20 9338   4.800   4.552   8.037 -0.2222  0.5876 -0.9182
   93CHL1   H20 9339   4.887   4.617   8.062 -0.5217  0.2433  1.2226
   93CHL1   C21 9340   4.869   4.419   8.013 -0.7930 -0.1531  1.0227
   93CHL1  H21A 9341   4.799   4.343   7.973  1.4511 -1.1527 -1.3222
   93CHL1  H21B 9342   4.919   4.377   8.102 -0.3143  1.9289  1.8005
   93CHL1  H21C 9343   4.937   4.417   7.925 -3.1696 -2.0328 -0.8994
   93CHL1   C22 9344   4.718   4.563   8.170 -0.0431  0.3081 -0.2238
   93CHL1  H22A 9345   4.683   4.666   8.194  1.4556  0.5610  1.0176
   93CHL1  H22B 9346   4.632   4.493   8.170 -0.2601  0.4895  2.0460
   93CHL1   C23 9347   4.793   4.529   8.293 -0.2523 -0.1378 -0.5264
   93CHL1  H23A 9348   4.718   4.515   8.375 -2.8002 -0.3760 -2.7436
   93CHL1  H23B 9349   4.837   4.427   8.287 -2.2052 -1.1883  1.2984
   93CHL1   C24 9350   4.915   4.625   8.325  0.4328  0.1041 -0.5763
   93CHL1  H24A 9351   4.996   4.614   8.249  0.6625 -1.0381 -0.1749
   93CHL1  H24B 9352   4.873   4.728   8.318 -0.2714 -0.2405 -1.6544
   93CHL1   C25 9353   4.978   4.590   8.458  0.3672 -0.3056  0.1275
   93CHL1   H25 9354   4.906   4.608   8.541 -1.1296 -0.7135 -1.0302
   93CHL1   C26 9355   5.009   4.434   8.482  0.1676  0.5398 -0.4336
   93CHL1  H26A 9356   5.074   4.417   8.571 -1.5811  0.5757  0.9042
   93CHL1  H26B 9357   4.915   4.378   8.496 -0.2487  1.0462 -1.1261
   93CHL1  H26C 9358   5.067   4.407   8.392  2.0059  4.9157 -0.8517
   93CHL1   C27 9359   5.107   4.675   8.486  0.4191 -0.8546  0.1977
   93CHL1  H27A 9360   5.082   4.782   8.501  1.4229 -0.6542  0.5135
   93CHL1  H27B 9361   5.176   4.642   8.566  0.0051 -0.5643  0.6763
   93CHL1  H27C 9362   5.175   4.653   8.400 -0.7032 -2.1017 -0.4210
   94CHL1    C3 9363   0.956   1.958   6.944  0.3956 -0.2414  0.4431
   94CHL1    H3 9364   1.061   1.984   6.918  1.5698  0.1828  4.8601
   94CHL1    O3 9365   0.908   1.946   6.812 -0.0271  0.0900 -0.1617
   94CHL1   H3' 9366   0.872   2.029   6.778  1.0686  0.2093 -1.0576
   94CHL1    C4 9367   0.960   1.823   7.015 -0.0135  0.4652  0.3768
   94CHL1   H4A 9368   0.857   1.785   7.002  0.6963 -0.9891 -1.3759
   94CHL1   H4B 9369   1.027   1.757   6.956 -1.4328  0.1157 -0.8981
   94CHL1    C5 9370   0.991   1.847   7.160  0.4504 -0.1140  0.2219
   94CHL1    C6 9371   1.091   1.777   7.217 -0.1233 -0.2961 -0.1391
   94CHL1    H6 9372   1.156   1.715   7.152  1.2255  2.3219 -1.4714
   94CHL1    C7 9373   1.118   1.779   7.370 -0.5826 -0.4246  0.1445
   94CHL1   H7A 9374   1.128   1.676   7.411  2.2545  0.9168  3.3046
   94CHL1   H7B 9375   1.212   1.836   7.389 -1.1778  1.2977 -1.7191
   94CHL1    C8 9376   1.012   1.853   7.454 -0.2969  0.2682  1.1902
   94CHL1    H8 9377   0.923   1.787   7.467  0.6976 -1.9119 -2.0377
   94CHL1   C14 9378   1.069   1.882   7.590 -0.4497 -0.0637  0.6153
   94CHL1   H14 9379   1.152   1.952   7.569 -0.8606 -0.0169 -0.9626
   94CHL1   C15 9380   1.116   1.762   7.677 -0.5585 -0.2291 -0.2108
   94CHL1  H15A 9381   1.043   1.678   7.677  0.1640 -0.8760 -0.3891
   94CHL1  H15B 9382   1.210   1.726   7.628 -0.4785 -0.3914  0.0612
   94CHL1   C16 9383   1.124   1.824   7.816  0.2708 -0.1003 -0.0626
   94CHL1  H16A 9384   1.071   1.767   7.894 -1.6791  0.6895 -0.7609
   94CHL1  H16B 9385   1.228   1.834   7.854 -0.7911 -1.6522  3.6168
   94CHL1   C17 9386   1.060   1.968   7.811  0.5448 -0.4088 -0.1305
   94CHL1   H17 9387   1.144   2.037   7.788  1.5186 -0.1976  3.5054
   94CHL1   C13 9388   0.975   1.963   7.683 -0.6422  0.9249 -0.7035
   94CHL1   C18 9389   0.853   1.873   7.718  0.3917 -0.7488  0.5460
   94CHL1  H18A 9390   0.781   1.930   7.782  0.7704 -0.7055  0.9413
   94CHL1  H18B 9391   0.805   1.830   7.628  1.8856  0.6393 -0.9692
   94CHL1  H18C 9392   0.883   1.790   7.786  1.5801  1.1534  2.4805
   94CHL1   C12 9393   0.946   2.093   7.607  0.4948 -0.7542  0.1223
   94CHL1  H12A 9394   0.874   2.157   7.662  1.8033  0.7509  0.1387
   94CHL1  H12B 9395   1.038   2.156   7.602  1.0552 -1.5368  0.2956
   94CHL1   C11 9396   0.878   2.067   7.471 -0.0017 -0.3063  0.3967
   94CHL1  H11A 9397   0.790   2.007   7.504  0.0477 -1.2510 -1.0740
   94CHL1  H11B 9398   0.834   2.161   7.430 -2.0247 -1.2259  0.3465
   94CHL1    C9 9399   0.963   1.984   7.380  0.1116 -0.4269 -0.2801
   94CHL1    H9 9400   1.058   2.039   7.359 -0.2869  0.4208  0.0778
   94CHL1   C10 9401   0.910   1.950   7.235 -0.3370 -1.3143 -0.2358
   94CHL1   C19 9402   0.762   1.903   7.256  0.3977 -0.6715  0.2318
   94CHL1  H19A 9403   0.760   1.813   7.321  0.7036  0.9040  2.5965
   94CHL1  H19B 9404   0.697   1.984   7.295  0.2035 -0.7370  0.0405
   94CHL1  H19C 9405   0.710   1.885   7.160 -0.2397  2.1750 -0.0539
   94CHL1    C1 9406   0.930   2.074   7.151 -0.2625 -0.3161  0.0217
   94CHL1   H1A 9407   0.879   2.151   7.213  0.3774 -0.9882  1.4286
   94CHL1   H1B 9408   1.036   2.107   7.143 -0.9892  1.7742 -2.5063
   94CHL1    C2 9409   0.880   2.067   7.012 -0.1309 -0.3038  0.4419
   94CHL1   H2A 9410   0.906   2.161   6.959  2.2653 -1.8899 -1.3912
   94CHL1   H2B 9411   0.774   2.034   7.017  0.0772 -1.0965 -0.2060
   94CHL1   C20 9412   0.996   2.007   7.949  0.0464 -0.7335  0.0927
   94CHL1   H20 9413   0.907   1.943   7.964  1.3195 -2.6568 -0.2246
   94CHL1   C21 9414   0.937   2.147   7.936  0.5807 -0.2918  0.5635
   94CHL1  H21A 9415   0.906   2.193   8.033 -2.3250 -0.9850  0.0732
   94CHL1  H21B 9416   0.845   2.151   7.874 -0.2570  1.6975  1.8017
   94CHL1  H21C 9417   1.009   2.216   7.887 -0.2090 -0.4694 -0.9157
   94CHL1   C22 9418   1.089   1.979   8.066  0.3387 -0.7133  0.2268
   94CHL1  H22A 9419   1.035   2.001   8.161  2.5680  0.9301  1.2185
   94CHL1  H22B 9420   1.139   1.881   8.070  0.2559 -0.7538  0.2721
   94CHL1   C23 9421   1.214   2.072   8.076 -0.0308 -0.1514 -0.2041
   94CHL1  H23A 9422   1.278   2.056   7.987 -3.2099 -1.3982 -2.4543
   94CHL1  H23B 9423   1.196   2.180   8.092 -1.6880 -0.5993  1.4298
   94CHL1   C24 9424   1.305   2.027   8.192  0.6115  0.5306  0.5272
   94CHL1  H24A 9425   1.240   2.030   8.282 -2.7445  1.9710 -1.7319
   94CHL1  H24B 9426   1.324   1.918   8.178  2.7412  0.7255  1.4954
   94CHL1   C25 9427   1.430   2.116   8.211 -0.5411  0.2551  0.1498
   94CHL1   H25 9428   1.396   2.221   8.228 -1.8759 -0.5284  2.9821
   94CHL1   C26 9429   1.500   2.073   8.341 -0.2007 -0.3880 -0.1581
   94CHL1  H26A 9430   1.597   2.128   8.350 -1.1843  1.2814  0.7531
   94CHL1  H26B 9431   1.431   2.094   8.426 -0.5914 -0.4355 -0.4635
   94CHL1  H26C 9432   1.534   1.969   8.322  0.6873  0.3466 -3.0737
   94CHL1   C27 9433   1.536   2.120   8.091  0.3278 -0.4501 -0.1721
   94CHL1  H27A 9434   1.502   2.161   7.993  0.8504 -1.2152 -0.6854
   94CHL1  H27B 9435   1.622   2.177   8.133  0.6072  0.3697 -1.7453
   94CHL1  H27C 9436   1.570   2.015   8.080 -0.9325 -0.6972 -2.0646
   95CHL1    C3 9437   0.690   1.388   6.656 -0.5077 -0.2073 -0.2034
   95CHL1    H3 9438   0.762   1.304   6.663  0.7906  0.8893  0.0822
   95CHL1    O3 9439   0.665   1.424   6.520  0.0077  0.0704 -0.2123
   95CHL1   H3' 9440   0.595   1.489   6.529  0.5702  0.6576 -0.0022
   95CHL1    C4 9441   0.559   1.358   6.733 -0.8321  0.8462 -0.6200
   95CHL1   H4A 9442   0.496   1.446   6.707  0.5970  1.5543 -1.8752
   95CHL1   H4B 9443   0.508   1.266   6.698  2.5589 -2.4270  2.1958
   95CHL1    C5 9444   0.567   1.336   6.882 -0.1687 -1.0068 -0.4951
   95CHL1    C6 9445   0.510   1.234   6.944 -0.3461 -0.2435 -0.6028
   95CHL1    H6 9446   0.452   1.157   6.891 -1.0997 -0.7241  0.8947
   95CHL1    C7 9447   0.524   1.219   7.092  0.1677  0.0410  0.0053
   95CHL1   H7A 9448   0.425   1.226   7.142  0.7024  1.5196  0.9100
   95CHL1   H7B 9449   0.570   1.120   7.114 -1.0143 -0.5783 -0.1942
   95CHL1    C8 9450   0.599   1.335   7.170 -0.0946 -0.2141  0.3471
   95CHL1    H8 9451   0.530   1.420   7.185 -0.9388 -0.7493 -0.4335
   95CHL1   C14 9452   0.659   1.284   7.300  0.1994 -0.4524 -0.6815
   95CHL1   H14 9453   0.736   1.209   7.272 -0.6429 -0.8913 -1.9009
   95CHL1   C15 9454   0.566   1.200   7.385 -0.5763 -0.1978 -0.0742
   95CHL1  H15A 9455   0.469   1.253   7.375  1.2767  3.5526  0.3939
   95CHL1  H15B 9456   0.566   1.093   7.354  0.5798  0.3657 -2.1943
   95CHL1   C16 9457   0.619   1.223   7.529 -0.5135  0.1296 -0.1020
   95CHL1  H16A 9458   0.543   1.258   7.602 -0.6722 -1.2795  0.4360
   95CHL1  H16B 9459   0.668   1.126   7.552  3.0975  0.8688 -3.5451
   95CHL1   C17 9460   0.742   1.309   7.520 -0.1977  0.3501  1.0258
   95CHL1   H17 9461   0.830   1.242   7.504 -0.7012 -0.8535  2.8819
   95CHL1   C13 9462   0.721   1.390   7.390 -0.3870  0.4285  0.4736
   95CHL1   C18 9463   0.613   1.496   7.417  1.1645 -0.5071  0.2512
   95CHL1  H18A 9464   0.651   1.581   7.478  1.4610 -0.9766  0.7295
   95CHL1  H18B 9465   0.591   1.550   7.322  1.9558 -0.1068  0.2825
   95CHL1  H18C 9466   0.516   1.468   7.463 -0.4045  3.5362 -0.2387
   95CHL1   C12 9467   0.832   1.455   7.308 -0.6398  0.0957  0.2658
   95CHL1  H12A 9468   0.877   1.541   7.362 -1.1579 -0.5652  1.7796
   95CHL1  H12B 9469   0.910   1.378   7.294 -0.0032  0.8815 -0.6292
   95CHL1   C11 9470   0.790   1.505   7.170 -0.3516  0.4495 -0.0272
   95CHL1  H11A 9471   0.728   1.596   7.189  0.0347  0.3862  1.6631
   95CHL1  H11B 9472   0.876   1.541   7.110  1.0393 -2.1380  0.2929
   95CHL1    C9 9473   0.713   1.392   7.082  0.5826 -0.7757 -0.2568
   95CHL1    H9 9474   0.786   1.312   7.057 -0.5237 -1.0569 -2.8804
   95CHL1   C10 9475   0.659   1.448   6.952 -0.1921  0.8237  0.1775
   95CHL1   C19 9476   0.583   1.577   6.970 -0.2358  0.4434  0.0116
   95CHL1  H19A 9477   0.652   1.664   6.973  0.6819 -0.2738  0.1431
   95CHL1  H19B 9478   0.515   1.587   6.883 -0.9565 -0.9213  0.3903
   95CHL1  H19C 9479   0.517   1.577   7.060 -0.9928 -0.5317 -0.5232
   95CHL1    C1 9480   0.783   1.464   6.864 -0.0258 -0.5148 -0.0297
   95CHL1   H1A 9481   0.835   1.548   6.915 -0.3261 -1.1679  1.4190
   95CHL1   H1B 9482   0.850   1.376   6.862 -0.0908 -0.6012  1.0506
   95CHL1    C2 9483   0.756   1.506   6.720 -0.7244 -0.0237 -0.0929
   95CHL1   H2A 9484   0.843   1.547   6.664 -0.1657 -1.4401 -0.3089
   95CHL1   H2B 9485   0.692   1.597   6.718  0.1000  0.6664  2.1024
   95CHL1   C20 9486   0.780   1.388   7.647  0.7341  0.3346  0.2181
   95CHL1   H20 9487   0.713   1.475   7.637 -1.2023 -0.9265  1.5221
   95CHL1   C21 9488   0.929   1.409   7.647 -0.3701 -0.1520 -0.2980
   95CHL1  H21A 9489   0.962   1.474   7.731  1.0901  1.3310 -1.9403
   95CHL1  H21B 9490   0.958   1.463   7.554  0.1145  0.6188  0.2860
   95CHL1  H21C 9491   0.981   1.312   7.660  1.4185  0.6530 -1.1314
   95CHL1   C22 9492   0.740   1.317   7.784 -0.5689  0.3614 -0.9521
   95CHL1  H22A 9493   0.633   1.289   7.793 -0.0485 -0.9611  2.1492
   95CHL1  H22B 9494   0.805   1.226   7.787  1.2147  1.4788 -2.8386
   95CHL1   C23 9495   0.767   1.394   7.913 -0.9089 -0.3384 -0.2622
   95CHL1  H23A 9496   0.741   1.334   8.003 -0.1507  0.5201  0.5559
   95CHL1  H23B 9497   0.874   1.422   7.921 -0.6071 -1.6282  0.4855
   95CHL1   C24 9498   0.681   1.519   7.923 -0.5541 -0.2548 -0.8716
   95CHL1  H24A 9499   0.722   1.586   7.844  4.4263 -1.3410  0.5027
   95CHL1  H24B 9500   0.575   1.491   7.906 -0.9221  0.6351 -0.1519
   95CHL1   C25 9501   0.675   1.591   8.061 -0.0108 -0.1248  0.1785
   95CHL1   H25 9502   0.645   1.513   8.134 -0.6880  0.1764  0.2373
   95CHL1   C26 9503   0.812   1.645   8.095 -0.1290  0.3911  0.9311
   95CHL1  H26A 9504   0.837   1.724   8.021  0.3189 -2.2590 -1.9741
   95CHL1  H26B 9505   0.816   1.697   8.193 -0.7818  3.5188 -0.5726
   95CHL1  H26C 9506   0.891   1.567   8.105 -1.0889 -0.9930 -1.4767
   95CHL1   C27 9507   0.570   1.701   8.054 -0.1763 -0.0522  0.9601
   95CHL1  H27A 9508   0.596   1.786   7.986 -1.4839 -0.9026 -0.6968
   95CHL1  H27B 9509   0.470   1.666   8.020  0.8677 -1.7324 -0.5334
   95CHL1  H27C 9510   0.556   1.742   8.156  1.2356 -1.0663  1.5876
   96CHL1    C3 9511   5.476   5.385   6.736  0.4387  0.3374 -0.5255
   96CHL1    H3 9512   5.455   5.276   6.747  2.1117  0.0551  0.2261
   96CHL1    O3 9513   5.500   5.409   6.601 -0.0089  0.3992 -0.4022
   96CHL1   H3' 9514   5.559   5.484   6.592 -0.5421  1.6349  4.0286
   96CHL1    C4 9515   5.358   5.472   6.783  0.6654  0.2698 -0.1237
   96CHL1   H4A 9516   5.376   5.580   6.763  1.3167 -0.1050 -1.6901
   96CHL1   H4B 9517   5.267   5.451   6.724 -0.7673  2.1349  1.3122
   96CHL1    C5 9518   5.329   5.480   6.930  0.3725 -0.3919  0.3691
   96CHL1    C6 9519   5.210   5.462   6.978  0.1053  0.3047 -0.0090
   96CHL1    H6 9520   5.123   5.455   6.911 -1.5810  0.8342  2.0252
   96CHL1    C7 9521   5.177   5.478   7.127 -0.0814 -0.0637  0.4360
   96CHL1   H7A 9522   5.094   5.551   7.133 -1.8965 -2.0410  0.4327
   96CHL1   H7B 9523   5.138   5.385   7.172 -0.0550 -0.6816 -0.7763
   96CHL1    C8 9524   5.297   5.530   7.211 -0.3164 -0.8169  0.0118
   96CHL1    H8 9525   5.291   5.640   7.198 -0.1461 -0.5524  1.9207
   96CHL1   C14 9526   5.269   5.515   7.356 -0.1216  0.3130 -0.2961
   96CHL1   H14 9527   5.254   5.406   7.368  2.0924 -0.5206 -3.6353
   96CHL1   C15 9528   5.136   5.578   7.418 -0.5338 -0.0870 -0.3787
   96CHL1  H15A 9529   5.134   5.687   7.395  3.3221  0.0662 -0.6608
   96CHL1  H15B 9530   5.040   5.527   7.394 -1.4186  1.4719 -0.3182
   96CHL1   C16 9531   5.163   5.558   7.569 -0.3297 -0.1103  0.0869
   96CHL1  H16A 9532   5.133   5.653   7.619 -0.4722  0.2559 -0.6635
   96CHL1  H16B 9533   5.110   5.468   7.604  0.2734 -0.8258 -0.7916
   96CHL1   C17 9534   5.319   5.530   7.584  0.6968 -0.3751  0.0534
   96CHL1   H17 9535   5.316   5.420   7.599 -1.6934 -0.5033 -1.0143
   96CHL1   C13 9536   5.381   5.559   7.451 -0.1931  0.0523 -0.2192
   96CHL1   C18 9537   5.393   5.719   7.450 -0.3670  0.2787  0.0025
   96CHL1  H18A 9538   5.399   5.745   7.343  1.6987  0.5813  0.1424
   96CHL1  H18B 9539   5.313   5.772   7.507  0.2966  1.9257 -0.5486
   96CHL1  H18C 9540   5.490   5.751   7.492  0.0759  0.7168 -1.3133
   96CHL1   C12 9541   5.504   5.479   7.415 -0.2331  0.7021  0.5323
   96CHL1  H12A 9542   5.593   5.506   7.475  1.2493 -0.5296 -1.0262
   96CHL1  H12B 9543   5.483   5.370   7.421  0.5249  0.4794 -0.6055
   96CHL1   C11 9544   5.539   5.517   7.269 -0.9029 -0.1898  0.0565
   96CHL1  H11A 9545   5.562   5.625   7.255  0.8647 -0.4680  0.6870
   96CHL1  H11B 9546   5.634   5.460   7.264 -0.1899  0.8783  1.0749
   96CHL1    C9 9547   5.431   5.473   7.166 -0.1466 -0.1269 -0.3420
   96CHL1    H9 9548   5.423   5.363   7.179 -0.0346 -0.1678 -0.6084
   96CHL1   C10 9549   5.456   5.496   7.020 -0.0799  0.0051 -0.9182
   96CHL1   C19 9550   5.504   5.644   7.007 -0.1339  0.5306  0.1056
   96CHL1  H19A 9551   5.440   5.714   7.064 -0.8315 -0.8412  1.0645
   96CHL1  H19B 9552   5.606   5.652   7.048 -1.1007  0.8961  2.6180
   96CHL1  H19C 9553   5.520   5.678   6.902  1.5727  0.3164  0.2767
   96CHL1    C1 9554   5.567   5.406   6.969 -0.2402  0.0761  0.1344
   96CHL1   H1A 9555   5.660   5.425   7.028 -0.4382 -0.8193  0.7586
   96CHL1   H1B 9556   5.522   5.307   6.992 -2.3736  1.5251  2.7239
   96CHL1    C2 9557   5.597   5.420   6.821 -0.3593  0.2643  0.5834
   96CHL1   H2A 9558   5.683   5.355   6.796 -0.5454 -0.0485  0.7420
   96CHL1   H2B 9559   5.624   5.523   6.790  1.9294 -0.3061  0.5339
   96CHL1   C20 9560   5.374   5.592   7.716 -0.0423 -0.4653  0.2708
   96CHL1   H20 9561   5.352   5.701   7.714 -0.4252 -0.5459 -1.9764
   96CHL1   C21 9562   5.530   5.567   7.727  0.2400 -0.5995 -0.2816
   96CHL1  H21A 9563   5.549   5.458   7.720 -0.5995 -0.7124 -1.0135
   96CHL1  H21B 9564   5.568   5.607   7.824  1.8383 -1.2611 -0.6126
   96CHL1  H21C 9565   5.588   5.620   7.648 -1.1462  1.0575 -0.2497
   96CHL1   C22 9566   5.304   5.534   7.844 -0.1121  0.1434 -0.2166
   96CHL1  H22A 9567   5.194   5.549   7.839 -0.2987 -0.7460  0.8682
   96CHL1  H22B 9568   5.319   5.424   7.845 -0.4418  0.0881  1.0122
   96CHL1   C23 9569   5.354   5.586   7.982  0.2374  0.3461 -0.0506
   96CHL1  H23A 9570   5.457   5.551   8.004  0.2077  1.0585  1.3628
   96CHL1  H23B 9571   5.350   5.697   7.986 -1.4516  0.3621 -1.2091
   96CHL1   C24 9572   5.258   5.520   8.091 -0.2846 -0.7039 -0.1495
   96CHL1  H24A 9573   5.155   5.542   8.056  0.0439 -0.6471 -1.1129
   96CHL1  H24B 9574   5.272   5.409   8.089 -0.8307 -0.8556  2.0880
   96CHL1   C25 9575   5.275   5.578   8.232  0.5352  0.5002 -0.1336
   96CHL1   H25 9576   5.264   5.687   8.218 -1.0454  0.7281  2.2897
   96CHL1   C26 9577   5.165   5.531   8.335 -0.1763  0.4555  0.0520
   96CHL1  H26A 9578   5.070   5.558   8.285 -1.1156 -1.8003  0.4948
   96CHL1  H26B 9579   5.181   5.422   8.350  0.7313  0.9510  3.5277
   96CHL1  H26C 9580   5.173   5.590   8.429 -2.0429  2.5926 -1.0533
   96CHL1   C27 9581   5.409   5.551   8.299 -0.0346 -0.4412  1.6885
   96CHL1  H27A 9582   5.485   5.595   8.230 -1.7826  0.6950  0.4274
   96CHL1  H27B 9583   5.409   5.597   8.400 -0.6232  0.4754  1.2802
   96CHL1  H27C 9584   5.435   5.444   8.315 -0.0732 -0.7676 -0.1322
   97OSM      N 9585   6.821   0.953  11.055 -0.0321  0.4875 -0.5158
   97OSM    C15 9586   6.885   0.821  11.035 -0.6481  0.1829 -0.2439
   97OSM   H15A 9587   6.833   0.755  10.968  2.3805 -2.2694 -0.4499
   97OSM   H15B 9588   6.896   0.761  11.125  0.3871  2.5369  1.2872
   97OSM   H15C 9589   6.986   0.835  11.000 -1.0534 -0.4996 -1.7701
   97OSM    C14 9590   6.893   1.030  11.165  0.3168  0.8533  0.5859
   97OSM   H14A 9591   6.852   1.126  11.191  1.6350  1.2689  1.1544
   97OSM   H14B 9592   6.993   1.056  11.135 -0.9003  1.2230 -3.8775
   97OSM   H14C 9593   6.914   0.971  11.253 -0.5778 -0.3356  0.0387
   97OSM    C13 9594   6.814   1.031  10.930 -0.2291  0.0127  0.1510
   97OSM   H13A 9595   6.771   1.128  10.947  0.7528  0.6449 -0.8419
   97OSM   H13B 9596   6.758   0.974  10.857  0.9540 -1.8409  0.6072
   97OSM   H13C 9597   6.908   1.051  10.880 -0.5821  1.6920  0.1316
   97OSM    C12 9598   6.680   0.936  11.106 -0.0573  0.4290  0.6682
   97OSM   H12A 9599   6.682   0.875  11.196  0.1745 -3.5535 -1.8100
   97OSM   H12B 9600   6.627   0.867  11.042  2.4606 -0.1584 -0.8998
   97OSM    C11 9601   6.594   1.061  11.150 -0.5365  0.4105  0.0753
   97OSM   H11A 9602   6.652   1.137  11.205 -0.9657  1.4314 -0.8479
   97OSM   H11B 9603   6.515   1.027  11.221  0.1842  2.0242  1.7141
   97OSM      P 9604   6.543   1.269  10.995 -0.2197 -0.2244 -0.2184
   97OSM    O13 9605   6.408   1.334  10.979 -0.3617 -0.1301  0.3827
   97OSM    O14 9606   6.642   1.346  11.076  0.2941 -0.2015  0.2483
   97OSM    O11 9607   6.610   1.248  10.854 -0.1799 -0.2570 -0.0387
   97OSM    O12 9608   6.526   1.113  11.031  0.5640 -0.3218 -0.3237
   97OSM    C1S 9609   6.555   1.167  10.751 -0.4867  0.0706  0.0514
   97OSM    H1S 9610   6.444   1.166  10.753 -0.5795 -0.8087 -2.1509
   97OSM    H1T 9611   6.581   1.060  10.770  0.5365  0.2443 -0.3404
   97OSM     NF 9612   6.528   1.123  10.516  0.6524  0.3341 -0.4359
   97OSM    HNF 9613   6.573   1.038  10.492  0.8517 -0.3842  2.1128
   97OSM    C2S 9614   6.597   1.207  10.609 -0.8270 -0.1585 -0.4689
   97OSM    H2S 9615   6.566   1.312  10.591 -0.2238  0.3017  1.0163
   97OSM    C3S 9616   6.752   1.198  10.603 -0.1308  0.1174 -0.4648
   97OSM    H3S 9617   6.778   1.095  10.634 -1.2730  0.1042  0.5306
   97OSM     O3 9618   6.819   1.278  10.703  0.7706 -0.0449  0.1048
   97OSM    HO3 9619   6.764   1.292  10.781  2.6283 -0.7157  1.6163
   97OSM    C4S 9620   6.810   1.228  10.473  0.7772  0.8218  0.5303
   97OSM    H4S 9621   6.813   1.135  10.415 -4.7154  0.4896  0.3048
   97OSM    C5S 9622   6.848   1.345  10.411 -0.7963 -0.2888  0.0885
   97OSM    H5S 9623   6.838   1.441  10.464  1.6925  0.3696 -0.5048
   97OSM    C6S 9624   6.913   1.367  10.274  0.9177  0.2375 -0.1006
   97OSM    H6S 9625   7.010   1.419  10.286  0.5725  1.1431 -1.0548
   97OSM    H6T 9626   6.846   1.433  10.214  1.4979  0.8342 -0.1055
   97OSM    C7S 9627   6.942   1.241  10.199  0.1551 -0.1640 -0.2596
   97OSM    H7S 9628   6.843   1.197  10.173 -0.0614  0.9124 -1.3492
   97OSM    H7T 9629   6.984   1.167  10.270 -1.6518 -1.8927 -0.8899
   97OSM    C8S 9630   7.021   1.254  10.077 -1.1516  0.1511  0.2036
   97OSM    H8S 9631   7.117   1.306  10.099 -2.1111  1.4070  1.6282
   97OSM    H8T 9632   6.971   1.314   9.999  0.9484  2.2645  0.3812
   97OSM    C9S 9633   7.056   1.115  10.006  0.0008 -0.6686 -0.3586
   97OSM    H9S 9634   6.962   1.063   9.977 -0.3952 -0.8890  1.2159
   97OSM    H9T 9635   7.092   1.056  10.093  2.6639  1.2434 -0.0518
   97OSM   C10S 9636   7.158   1.132   9.896  0.4250  0.3198  0.2415
   97OSM   H10S 9637   7.180   1.032   9.852  1.0261 -1.2706  3.7852
   97OSM   H10T 9638   7.250   1.173   9.943  2.0343 -3.0350  0.3465
   97OSM   C11S 9639   7.108   1.230   9.795  0.3771 -0.2165  0.3853
   97OSM   H11S 9640   7.129   1.333   9.831  2.4210  0.0459 -1.3496
   97OSM   H11T 9641   6.999   1.214   9.777 -0.2335  0.9478  2.6979
   97OSM   C12S 9642   7.191   1.222   9.667 -0.1468 -0.0474  0.2788
   97OSM   H12S 9643   7.214   1.114   9.655 -0.6267 -0.2073  0.7569
   97OSM   H12T 9644   7.295   1.250   9.692  0.9394 -1.9606 -1.7354
   97OSM   C13S 9645   7.132   1.292   9.546 -0.0559 -0.2252  0.2277
   97OSM   H13S 9646   7.150   1.399   9.569  2.6066 -0.8316  1.3130
   97OSM   H13T 9647   7.023   1.277   9.533  0.1630 -0.2055 -1.9650
   97OSM   C14S 9648   7.208   1.261   9.418 -0.6075  0.0798 -1.0293
   97OSM   H14S 9649   7.157   1.167   9.388 -1.0363 -0.7512  1.9837
   97OSM   H14T 9650   7.313   1.236   9.442 -0.9068 -1.6740 -1.3697
   97OSM   C15S 9651   7.218   1.382   9.321 -0.8226  0.1620  0.8168
   97OSM   H15S 9652   7.280   1.455   9.377  0.7945  1.3582 -2.2653
   97OSM   H15T 9653   7.115   1.423   9.310  0.2525  3.0215  0.6841
   97OSM   C16S 9654   7.295   1.347   9.191 -0.2871 -0.2684  0.6124
   97OSM   H16S 9655   7.400   1.319   9.213  0.1839 -0.2704 -1.4699
   97OSM   H16T 9656   7.295   1.439   9.128  3.0585  0.2327  1.1810
   97OSM   C17S 9657   7.213   1.250   9.108  0.0453  0.0239  0.1580
   97OSM   H17S 9658   7.115   1.302   9.110  0.5877  1.0777  0.2429
   97OSM   H17T 9659   7.203   1.144   9.138 -0.5740 -0.1159 -0.5029
   97OSM   C18S 9660   7.271   1.251   8.965 -0.2497  0.6799  0.8731
   97OSM   H18S 9661   7.366   1.193   8.963 -0.5046  0.1972  2.0183
   97OSM   H18T 9662   7.280   1.357   8.932 -0.2788  1.1986  2.4491
   97OSM   H18U 9663   7.208   1.196   8.891 -3.7080 -0.4457  4.3211
   97OSM    C1F 9664   6.411   1.138  10.475 -0.8714  0.1436  0.5406
   97OSM     OF 9665   6.346   1.236  10.510  0.3807  0.7084 -0.0915
   97OSM    C2F 9666   6.365   1.038  10.375  0.1095  0.5343  0.0087
   97OSM    H2F 9667   6.440   0.958  10.358  1.6535  1.8875  0.0835
   97OSM    H2G 9668   6.361   1.088  10.276 -2.6731 -1.1344 -0.8170
   97OSM    C3F 9669   6.225   0.993  10.411 -0.3455  0.1967  0.3010
   97OSM    H3F 9670   6.158   1.082  10.415 -1.8332 -0.8702 -0.0485
   97OSM    H3G 9671   6.209   0.939  10.506  2.0616  1.8319  1.7586
   97OSM    C4F 9672   6.173   0.912  10.292 -0.7393 -0.1156  1.2983
   97OSM    H4F 9673   6.209   0.807  10.299 -2.3254 -0.7470  0.5994
   97OSM    H4G 9674   6.211   0.949  10.195 -0.7707 -2.4064  0.3536
   97OSM    C5F 9675   6.025   0.917  10.283  0.7648 -0.2730  0.3017
   97OSM    H5F 9676   5.986   1.019  10.259  0.9838 -0.5329 -1.2815
   97OSM    H5G 9677   5.983   0.904  10.385  3.5095 -3.0247  1.2234
   97OSM    C6F 9678   5.967   0.819  10.178 -0.1211 -0.4464 -0.6515
   97OSM    H6F 9679   5.856   0.824  10.174 -0.1684 -1.8046 -2.0159
   97OSM    H6G 9680   5.989   0.714  10.207 -3.0443 -0.8211  0.5637
   97OSM    C7F 9681   6.005   0.842  10.030 -0.3752  0.7694  0.1230
   97OSM    H7F 9682   5.956   0.769   9.962  0.1290  0.6857 -0.1581
   97OSM    H7G 9683   6.113   0.817  10.037 -0.6220  0.1224  2.2737
   97OSM    C8F 9684   5.978   0.979   9.993  0.1552  0.6741  0.1569
   97OSM    H8F 9685   6.014   0.983   9.888 -2.3236  1.0069 -0.7641
   97OSM    H8G 9686   6.028   1.057  10.053 -0.8643 -0.0252  1.9838
   97OSM    C9F 9687   5.830   1.003   9.988  0.6133  0.0366  0.4476
   97OSM    H9F 9688   5.784   1.042  10.080  0.9973  0.4997  0.4462
   97OSM   C10F 9689   5.738   0.964   9.896 -0.4331 -0.4754  0.6067
   97OSM   H10F 9690   5.634   0.997   9.907  0.4492  2.5549  0.8017
   97OSM   C11F 9691   5.764   0.880   9.773 -0.6112 -0.7908  0.4942
   97OSM   H11F 9692   5.672   0.835   9.731 -0.8141 -1.4828  1.6205
   97OSM   H11G 9693   5.836   0.798   9.795  0.2771 -1.2984 -3.5110
   97OSM   C12F 9694   5.838   0.952   9.663  0.3259 -0.4934 -0.2668
   97OSM   H12F 9695   5.929   0.997   9.710 -0.9414 -0.3837  2.2565
   97OSM   H12G 9696   5.772   1.036   9.631  0.6395 -0.1734 -0.0919
   97OSM   C13F 9697   5.886   0.861   9.542  0.2229 -0.6868 -0.3779
   97OSM   H13F 9698   5.804   0.792   9.517  0.2770 -0.8425 -0.1322
   97OSM   H13G 9699   5.966   0.791   9.575 -0.6457 -1.9105 -0.8041
   97OSM   C14F 9700   5.910   0.950   9.418  0.3391  0.2280 -0.4057
   97OSM   H14F 9701   5.981   1.030   9.448  1.5821 -1.9364  2.9848
   97OSM   H14G 9702   5.810   0.992   9.394 -0.5824 -0.5627  1.7909
   97OSM   C15F 9703   5.946   0.879   9.292 -0.3275  0.4939  0.3517
   97OSM   H15F 9704   5.875   0.797   9.268  0.7718 -0.2649 -0.4175
   97OSM   H15G 9705   6.044   0.828   9.308  0.1983  0.3287 -2.8438
   97OSM   C16F 9706   5.966   0.965   9.167 -0.2321 -0.6297  0.7290
   97OSM   H16F 9707   6.054   1.024   9.199 -0.3356 -0.9620  1.6559
   97OSM   H16G 9708   5.895   1.048   9.146  3.0599  2.4848  0.9356
   97OSM   C17F 9709   6.024   0.881   9.048 -0.4416 -0.1544 -0.1786
   97OSM   H17F 9710   6.035   0.953   8.964  1.9269  2.1092  1.9411
   97OSM   H17G 9711   5.951   0.799   9.031 -0.0647 -0.8414  1.3808
   97OSM   C18F 9712   6.165   0.816   9.070  0.1392 -0.2577  0.0450
   97OSM   H18F 9713   6.232   0.901   9.095  0.4802  0.1566 -2.0495
   97OSM   H18G 9714   6.193   0.764   8.975 -0.6948 -0.3465 -0.1590
   97OSM   H18H 9715   6.164   0.745   9.155  1.9634 -1.1382 -0.5997
   98OSM      N 9716   4.063   0.196  10.962  0.1142  0.3044  0.5900
   98OSM    C15 9717   4.174   0.237  11.050  0.1454 -0.1859  0.0391
   98OSM   H15A 9718   4.249   0.285  10.990  0.2870  0.2944  0.5982
   98OSM   H15B 9719   4.228   0.156  11.099  1.6705  1.1024  0.5595
   98OSM   H15C 9720   4.132   0.306  11.122  1.2338 -0.1743  0.6868
   98OSM    C14 9721   3.957   0.135  11.045  0.3669 -0.1956 -0.2080
   98OSM   H14A 9722   3.993   0.059  11.112  0.6836 -0.1402 -0.3153
   98OSM   H14B 9723   3.877   0.092  10.985 -1.0763 -0.2149  1.6490
   98OSM   H14C 9724   3.915   0.210  11.110 -0.4588 -0.3919 -0.4980
   98OSM    C13 9725   3.995   0.312  10.899  0.0800 -0.2163 -0.1430
   98OSM   H13A 9726   3.916   0.281  10.832 -0.8275  2.0154 -0.2020
   98OSM   H13B 9727   4.063   0.353  10.825 -2.8693  3.3310 -1.2191
   98OSM   H13C 9728   3.951   0.386  10.964 -0.4935  2.4790 -3.2937
   98OSM    C12 9729   4.113   0.097  10.853  0.8116 -0.5052  0.3049
   98OSM   H12A 9730   4.028   0.051  10.807  0.0727  0.5231  0.6054
   98OSM   H12B 9731   4.162   0.013  10.899  0.7444 -0.8121 -0.1741
   98OSM    C11 9732   4.196   0.152  10.736 -0.0163  0.0053 -0.5414
   98OSM   H11A 9733   4.128   0.202  10.663  1.9815  1.2760 -1.6378
   98OSM   H11B 9734   4.235   0.057  10.693 -2.1390 -1.5799  0.8425
   98OSM      P 9735   4.440   0.217  10.800  0.3472 -0.2156  0.0779
   98OSM    O13 9736   4.509   0.338  10.851  0.6065 -0.0854  1.0074
   98OSM    O14 9737   4.450   0.096  10.880  0.3800 -0.3923 -0.2393
   98OSM    O11 9738   4.505   0.187  10.654  0.2714 -0.3091  0.2035
   98OSM    O12 9739   4.293   0.256  10.777  0.0385 -0.0295  0.0355
   98OSM    C1S 9740   4.469   0.253  10.531 -0.0055  0.4019 -0.2771
   98OSM    H1S 9741   4.537   0.340  10.522  0.9510 -0.2897 -0.0138
   98OSM    H1T 9742   4.367   0.296  10.523  0.8473  2.6484  0.1295
   98OSM     NF 9743   4.475   0.213  10.280 -0.4547 -0.6467  0.0602
   98OSM    HNF 9744   4.396   0.175  10.234 -0.3826 -1.4204  0.5558
   98OSM    C2S 9745   4.496   0.157  10.410  0.0535  0.0719 -0.8358
   98OSM    H2S 9746   4.605   0.135  10.409 -0.1460 -1.0065 -0.0939
   98OSM    C3S 9747   4.419   0.018  10.438 -0.1085  0.1999  0.7629
   98OSM    H3S 9748   4.312   0.041  10.452 -0.2762 -0.3068  0.3457
   98OSM     O3 9749   4.456  -0.050  10.551  0.0005 -0.1356 -0.3183
   98OSM    HO3 9750   4.496   0.022  10.600 -2.5623  1.2941 -0.1436
   98OSM    C4S 9751   4.445  -0.077  10.329  0.1189 -0.2979 -0.2370
   98OSM    H4S 9752   4.552  -0.098  10.317  0.6541 -0.3499  3.4149
   98OSM    C5S 9753   4.348  -0.138  10.252 -0.4769  0.1861  0.3882
   98OSM    H5S 9754   4.244  -0.110  10.277 -0.4346 -0.2867  1.1162
   98OSM    C6S 9755   4.375  -0.242  10.147 -0.6122  0.1685 -0.5493
   98OSM    H6S 9756   4.357  -0.347  10.179  2.0493 -0.1975 -0.0431
   98OSM    H6T 9757   4.484  -0.242  10.130 -0.1428  0.5780  1.9676
   98OSM    C7S 9758   4.304  -0.196  10.022 -1.0978  0.4016 -0.5146
   98OSM    H7S 9759   4.320  -0.087  10.009  0.7438  0.4275  1.4522
   98OSM    H7T 9760   4.193  -0.197  10.030 -1.0184  0.4909  0.8136
   98OSM    C8S 9761   4.356  -0.259   9.891  1.1293 -0.9775  0.6242
   98OSM    H8S 9762   4.328  -0.366   9.892  1.8289 -1.1710  1.8336
   98OSM    H8T 9763   4.467  -0.255   9.889  1.2413 -2.2023  2.4614
   98OSM    C9S 9764   4.308  -0.201   9.752  0.0265 -0.0212 -0.6469
   98OSM    H9S 9765   4.343  -0.098   9.734 -0.4775  0.3392  0.3417
   98OSM    H9T 9766   4.199  -0.182   9.759 -0.1535 -0.1994 -2.4992
   98OSM   C10S 9767   4.348  -0.283   9.627 -0.2132 -0.4412 -0.5079
   98OSM   H10S 9768   4.275  -0.251   9.549  0.7343  0.6145 -0.9981
   98OSM   H10T 9769   4.318  -0.387   9.649  0.2656 -0.8258 -1.5603
   98OSM   C11S 9770   4.490  -0.268   9.588 -0.3375  0.3022  0.0112
   98OSM   H11S 9771   4.550  -0.277   9.682 -0.8107  1.8017  0.4989
   98OSM   H11T 9772   4.507  -0.162   9.559 -1.3525  1.1838  2.4057
   98OSM   C12S 9773   4.539  -0.363   9.475  0.1383 -0.4111  0.5009
   98OSM   H12S 9774   4.506  -0.467   9.493  2.0871 -0.8355  2.0029
   98OSM   H12T 9775   4.650  -0.358   9.485  0.4874 -1.9566 -1.7201
   98OSM   C13S 9776   4.496  -0.313   9.339 -0.1706 -0.3370 -0.0400
   98OSM   H13S 9777   4.535  -0.209   9.333 -0.7691  0.0733  2.1943
   98OSM   H13T 9778   4.385  -0.311   9.336 -0.1402  1.4194 -0.9991
   98OSM   C14S 9779   4.537  -0.399   9.208 -0.7306  0.0127  0.4091
   98OSM   H14S 9780   4.498  -0.502   9.200  0.5825 -0.4840  0.1621
   98OSM   H14T 9781   4.648  -0.393   9.207 -0.7932  3.6783  0.4965
   98OSM   C15S 9782   4.498  -0.318   9.081 -0.3756  0.7081 -0.1314
   98OSM   H15S 9783   4.531  -0.213   9.095 -0.0310  0.5280  0.4334
   98OSM   H15T 9784   4.387  -0.317   9.074 -0.3158  1.9979 -1.1830
   98OSM   C16S 9785   4.573  -0.380   8.960  0.1548  0.5089  0.7825
   98OSM   H16S 9786   4.581  -0.490   8.973  3.1846  0.4946 -0.4150
   98OSM   H16T 9787   4.674  -0.336   8.964 -0.3200  1.6134  1.0791
   98OSM   C17S 9788   4.510  -0.353   8.820 -0.0632  0.9290 -0.2044
   98OSM   H17S 9789   4.452  -0.259   8.835 -1.1497  0.2591 -0.1000
   98OSM   H17T 9790   4.440  -0.435   8.794 -0.8857  1.9442 -1.3093
   98OSM   C18S 9791   4.612  -0.348   8.713 -0.6837 -0.2857 -0.7659
   98OSM   H18S 9792   4.682  -0.268   8.743 -1.7434  0.4141 -0.0815
   98OSM   H18T 9793   4.565  -0.331   8.613  0.1378  1.5293 -0.8686
   98OSM   H18U 9794   4.666  -0.444   8.699 -1.5602 -1.0833  1.0377
   98OSM    C1F 9795   4.540   0.320  10.218 -0.3265  0.7278  0.1802
   98OSM     OF 9796   4.628   0.382  10.281  0.5096  0.1645  0.0740
   98OSM    C2F 9797   4.498   0.362  10.087  0.3585 -0.4730  0.0547
   98OSM    H2F 9798   4.549   0.454  10.051 -1.3469  0.5557  0.1524
   98OSM    H2G 9799   4.392   0.395  10.081  0.3236  0.1255  2.9328
   98OSM    C3F 9800   4.498   0.248   9.990 -0.1664 -0.3805 -0.5469
   98OSM    H3F 9801   4.425   0.173  10.028 -0.3237  0.2691  0.4658
   98OSM    H3G 9802   4.598   0.200   9.989 -0.3047 -0.6855 -1.6608
   98OSM    C4F 9803   4.461   0.290   9.847 -0.3041 -0.4408 -0.0090
   98OSM    H4F 9804   4.545   0.362   9.841 -0.7635  0.1004 -0.0286
   98OSM    H4G 9805   4.366   0.346   9.841 -0.7961 -1.3286 -0.9201
   98OSM    C5F 9806   4.459   0.176   9.748  0.0439 -0.6465  0.5552
   98OSM    H5F 9807   4.361   0.126   9.756 -0.1364 -0.0654  2.3547
   98OSM    H5G 9808   4.544   0.109   9.773  0.2133  0.6780  4.1341
   98OSM    C6F 9809   4.476   0.237   9.601  0.2061  0.1465 -0.7565
   98OSM    H6F 9810   4.584   0.263   9.605  1.1099 -3.1826  2.6600
   98OSM    H6G 9811   4.415   0.328   9.587  0.7794  0.5570 -0.6290
   98OSM    C7F 9812   4.451   0.133   9.490  0.3866 -0.3724 -0.6422
   98OSM    H7F 9813   4.344   0.108   9.506  0.3685 -1.0626 -1.7378
   98OSM    H7G 9814   4.516   0.045   9.507 -1.4197 -1.4572  1.0683
   98OSM    C8F 9815   4.480   0.183   9.346  0.0475  0.0275 -0.4851
   98OSM    H8F 9816   4.499   0.087   9.293  0.4477  0.8694 -1.9375
   98OSM    H8G 9817   4.572   0.245   9.345 -0.3618  0.8043  2.1848
   98OSM    C9F 9818   4.371   0.251   9.273  0.1381  0.9230  0.1209
   98OSM    H9F 9819   4.366   0.361   9.276  1.1504  0.9814 -0.2422
   98OSM   C10F 9820   4.270   0.191   9.206 -0.7886  0.2247  1.3990
   98OSM   H10F 9821   4.191   0.256   9.165  1.8006  2.2676 -0.6693
   98OSM   C11F 9822   4.239   0.043   9.186  0.0900 -0.4882  0.4620
   98OSM   H11F 9823   4.178   0.001   9.269 -2.2480  0.1603 -0.8333
   98OSM   H11G 9824   4.333  -0.017   9.183  0.6715  0.4200  0.1050
   98OSM   C12F 9825   4.179   0.018   9.054 -0.1685 -0.6695 -0.2971
   98OSM   H12F 9826   4.256   0.031   8.975  1.9434 -0.8016  1.6589
   98OSM   H12G 9827   4.094   0.083   9.022 -0.1220 -1.4181 -2.0984
   98OSM   C13F 9828   4.104  -0.123   9.047 -0.7200 -0.6464  0.0818
   98OSM   H13F 9829   4.025  -0.112   9.125  0.4583  1.9889  1.0442
   98OSM   H13G 9830   4.173  -0.202   9.082 -0.4431 -0.2475  0.4557
   98OSM   C14F 9831   4.035  -0.145   8.906  0.3329  0.2524  0.5818
   98OSM   H14F 9832   3.957  -0.068   8.884  0.6815  0.8191  1.2820
   98OSM   H14G 9833   3.988  -0.244   8.927 -0.5002  0.4380 -0.3282
   98OSM   C15F 9834   4.135  -0.152   8.789 -0.2561 -0.5210 -0.3700
   98OSM   H15F 9835   4.216  -0.224   8.813  2.1556  1.9811 -0.6230
   98OSM   H15G 9836   4.191  -0.056   8.784  2.6762 -2.1945 -2.4101
   98OSM   C16F 9837   4.075  -0.185   8.654  0.6327 -0.4335 -0.0808
   98OSM   H16F 9838   3.969  -0.153   8.647  0.7973  0.0601 -0.3369
   98OSM   H16G 9839   4.066  -0.294   8.633 -0.9918 -0.8459  2.3320
   98OSM   C17F 9840   4.157  -0.120   8.544  0.9624  0.2749  0.0901
   98OSM   H17F 9841   4.266  -0.137   8.559  1.3581  1.3723 -1.3445
   98OSM   H17G 9842   4.144  -0.010   8.553  1.4759  0.3371  0.0717
   98OSM   C18F 9843   4.127  -0.182   8.408  0.4116  0.0329 -0.6054
   98OSM   H18F 9844   4.022  -0.162   8.379 -0.2029  0.9739  1.9687
   98OSM   H18G 9845   4.139  -0.293   8.415 -2.0500 -0.2713  0.0388
   98OSM   H18H 9846   4.194  -0.138   8.332 -1.7379  2.0357 -1.4697
   99OSM      N 9847   0.784   0.833  11.140  0.1706 -0.3450  0.4350
   99OSM    C15 9848   0.694   0.719  11.152  0.4317  0.5729  0.1754
   99OSM   H15A 9849   0.627   0.730  11.235 -1.1810 -1.8534 -0.7153
   99OSM   H15B 9850   0.749   0.629  11.173  0.6142  0.9902  1.5410
   99OSM   H15C 9851   0.638   0.699  11.062 -2.3478 -3.4313  2.5238
   99OSM    C14 9852   0.714   0.955  11.097 -0.1611  0.3840  0.4435
   99OSM   H14A 9853   0.782   1.038  11.103  0.7251 -0.1752 -1.4193
   99OSM   H14B 9854   0.629   0.991  11.154 -0.6683 -0.4623  0.2493
   99OSM   H14C 9855   0.681   0.949  10.995  2.1301  0.5495 -0.3569
   99OSM    C13 9856   0.844   0.856  11.274  0.0064 -0.9206  0.0550
   99OSM   H13A 9857   0.902   0.947  11.276  0.5899 -1.2903  0.9919
   99OSM   H13B 9858   0.913   0.774  11.289  1.2811  0.2518  0.8296
   99OSM   H13C 9859   0.770   0.863  11.353 -0.9066 -0.2978 -0.8428
   99OSM    C12 9860   0.895   0.799  11.035 -0.5631 -0.3725 -0.1275
   99OSM   H12A 9861   0.938   0.702  11.057 -0.7409 -1.2661 -3.1925
   99OSM   H12B 9862   0.968   0.878  11.035 -0.7469 -0.1710 -2.0662
   99OSM    C11 9863   0.856   0.790  10.888  0.3723 -0.4556 -0.3674
   99OSM   H11A 9864   0.777   0.713  10.879 -0.1950  0.0992 -0.1648
   99OSM   H11B 9865   0.943   0.757  10.827  0.3298 -2.2204  0.4358
   99OSM      P 9866   0.908   1.029  10.805 -0.3981 -0.3972 -0.0007
   99OSM    O13 9867   0.834   1.156  10.820 -0.3710  0.3982 -0.6210
   99OSM    O14 9868   1.032   1.018  10.886  0.1238 -0.0124 -0.5077
   99OSM    O11 9869   0.947   1.007  10.650 -0.1636 -0.3456  0.0543
   99OSM    O12 9870   0.806   0.914  10.840 -0.4124 -0.5714  0.1685
   99OSM    C1S 9871   0.874   0.914  10.564 -0.0006 -0.0161  0.9203
   99OSM    H1S 9872   0.766   0.928  10.583 -0.3478  0.6295 -1.2210
   99OSM    H1T 9873   0.898   0.809  10.590 -2.7258 -0.6918  1.0304
   99OSM     NF 9874   0.813   0.877  10.341  0.0414 -0.2264 -0.1923
   99OSM    HNF 9875   0.811   0.778  10.330  0.7778 -0.2255 -0.4221
   99OSM    C2S 9876   0.918   0.934  10.421 -0.2679  0.4835  0.0051
   99OSM    H2S 9877   0.924   1.043  10.402  0.7610  0.2217 -1.3035
   99OSM    C3S 9878   1.060   0.867  10.407  0.8700  0.2907  0.4661
   99OSM    H3S 9879   1.053   0.767  10.456 -1.9443 -0.1183 -0.5591
   99OSM     O3 9880   1.165   0.926  10.472  0.3448  0.0302  0.3571
   99OSM    HO3 9881   1.138   0.988  10.540  1.8628  1.1409 -0.0161
   99OSM    C4S 9882   1.097   0.838  10.264 -0.5453 -0.4843 -0.4488
   99OSM    H4S 9883   1.069   0.918  10.194  0.9716 -0.1157 -0.6755
   99OSM    C5S 9884   1.157   0.732  10.215  0.1018 -0.3314  0.6605
   99OSM    H5S 9885   1.203   0.668  10.292  1.3109  0.6545  0.7947
   99OSM    C6S 9886   1.179   0.705  10.066  0.0288  0.0650  0.1206
   99OSM    H6S 9887   1.118   0.616  10.042  0.4740 -0.3007  0.3261
   99OSM    H6T 9888   1.279   0.672  10.033 -0.9463 -3.3615  0.2679
   99OSM    C7S 9889   1.128   0.806   9.967 -0.1778 -0.0228 -0.2377
   99OSM    H7S 9890   1.214   0.875   9.950 -0.4985  0.0567 -1.6383
   99OSM    H7T 9891   1.040   0.864  10.001  2.4677  4.2857  0.0758
   99OSM    C8S 9892   1.109   0.759   9.821 -0.2201  0.8997 -0.1594
   99OSM    H8S 9893   1.023   0.689   9.811  1.3090 -0.8827 -1.4684
   99OSM    H8T 9894   1.199   0.701   9.792  0.9091  3.0116 -1.0290
   99OSM    C9S 9895   1.089   0.878   9.723  0.1893 -0.0011  0.2758
   99OSM    H9S 9896   1.089   0.967   9.788 -1.2476 -0.3564  0.7873
   99OSM    H9T 9897   0.991   0.868   9.671  0.7210 -1.7591 -0.4655
   99OSM   C10S 9898   1.203   0.892   9.617 -0.1163  0.3820 -0.2111
   99OSM   H10S 9899   1.223   0.797   9.564  0.3667 -1.0544  2.3394
   99OSM   H10T 9900   1.295   0.908   9.677  1.1527 -3.7274 -0.7372
   99OSM   C11S 9901   1.180   0.998   9.515  0.3255 -0.7366  0.2146
   99OSM   H11S 9902   1.155   1.093   9.568 -0.2314 -0.9245  0.2973
   99OSM   H11T 9903   1.084   0.971   9.466 -0.5330  0.7370  0.9962
   99OSM   C12S 9904   1.280   1.013   9.408 -0.5175 -0.4454  0.3206
   99OSM   H12S 9905   1.367   1.076   9.437 -1.0938  1.7357 -2.3144
   99OSM   H12T 9906   1.313   0.909   9.389 -0.0716 -0.2817  0.2105
   99OSM   C13S 9907   1.227   1.086   9.288  0.0896  0.0008  0.4726
   99OSM   H13S 9908   1.179   1.182   9.320 -1.1312 -0.2971 -0.3701
   99OSM   H13T 9909   1.152   1.021   9.238  0.9541 -0.6586  0.0250
   99OSM   C14S 9910   1.337   1.124   9.185 -0.0094 -0.4473 -0.6192
   99OSM   H14S 9911   1.380   1.037   9.132  2.5734 -0.1438  0.8310
   99OSM   H14T 9912   1.423   1.176   9.232  0.5072 -2.8573  1.3517
   99OSM   C15S 9913   1.291   1.221   9.078 -0.1940 -0.1855 -0.6989
   99OSM   H15S 9914   1.267   1.320   9.122  0.4609  0.3494 -1.5118
   99OSM   H15T 9915   1.195   1.181   9.038 -1.3711 -1.0611  2.6676
   99OSM   C16S 9916   1.397   1.248   8.972  0.2228  0.4241 -0.0933
   99OSM   H16S 9917   1.422   1.153   8.921 -2.2732 -0.6603  0.5742
   99OSM   H16T 9918   1.485   1.299   9.019 -0.9522  3.2713 -0.7697
   99OSM   C17S 9919   1.338   1.349   8.872  0.2971 -0.2987  0.0981
   99OSM   H17S 9920   1.333   1.443   8.931  1.8853 -0.7435  1.0040
   99OSM   H17T 9921   1.236   1.324   8.836  0.4831 -0.0031 -0.6423
   99OSM   C18S 9922   1.431   1.373   8.757 -0.1640  0.3879 -0.5964
   99OSM   H18S 9923   1.527   1.415   8.794  0.3117  0.9209 -2.3322
   99OSM   H18T 9924   1.383   1.449   8.692  1.4879  1.6656 -0.3934
   99OSM   H18U 9925   1.451   1.278   8.701 -0.5312  0.9504 -1.7023
   99OSM    C1F 9926   0.710   0.954  10.313  1.0860 -0.4539  0.3333
   99OSM     OF 9927   0.709   1.067  10.357 -0.2661  0.2311  0.6722
   99OSM    C2F 9928   0.598   0.905  10.229  0.2264 -0.4193  0.2869
   99OSM    H2F 9929   0.496   0.928  10.268  0.4728 -0.1030  0.7592
   99OSM    H2G 9930   0.598   0.794  10.220 -1.6983 -0.4262 -0.1702
   99OSM    C3F 9931   0.595   0.981  10.087 -0.6939  0.8315 -0.0867
   99OSM    H3F 9932   0.516   0.946  10.018  1.5017 -1.2053 -1.7437
   99OSM    H3G 9933   0.587   1.088  10.116  0.3401  0.4983  1.5813
   99OSM    C4F 9934   0.721   0.955   9.994  0.1002  0.6048  0.3197
   99OSM    H4F 9935   0.730   0.846   9.972 -3.2508 -0.2389  2.3776
   99OSM    H4G 9936   0.818   0.983  10.041  0.1720  1.1271 -0.1438
   99OSM    C5F 9937   0.708   1.032   9.859 -0.5623  0.4878  0.4083
   99OSM    H5F 9938   0.798   1.090   9.828  0.1647 -0.6661  0.2914
   99OSM    H5G 9939   0.626   1.106   9.872 -1.1301  0.0769 -0.7440
   99OSM    C6F 9940   0.676   0.947   9.739 -0.4908  0.0680  0.2507
   99OSM    H6F 9941   0.589   0.880   9.756  1.8213 -2.8593  1.2359
   99OSM    H6G 9942   0.756   0.872   9.724 -0.5417  0.3327 -1.6050
   99OSM    C7F 9943   0.652   1.028   9.610  0.4215 -0.3628  0.6232
   99OSM    H7F 9944   0.600   1.122   9.638  2.9691  2.5410 -3.3363
   99OSM    H7G 9945   0.584   0.979   9.536  0.4835 -0.4470  0.6208
   99OSM    C8F 9946   0.772   1.072   9.527  0.1322 -0.0949 -0.4238
   99OSM    H8F 9947   0.859   1.101   9.590 -2.3705  2.0436  2.3187
   99OSM    H8G 9948   0.739   1.160   9.467  1.0101  0.1437 -0.5747
   99OSM    C9F 9949   0.811   0.955   9.445 -0.1767 -0.0030 -0.0757
   99OSM    H9F 9950   0.829   0.865   9.505  0.3265 -1.6317 -2.4991
   99OSM   C10F 9951   0.840   0.961   9.311 -0.1627  0.3416  0.5139
   99OSM   H10F 9952   0.888   0.882   9.250 -0.4124  1.4834 -1.2427
   99OSM   C11F 9953   0.843   1.089   9.226  0.6011  0.0600  0.2417
   99OSM   H11F 9954   0.949   1.105   9.196  0.2958  0.3141 -0.7528
   99OSM   H11G 9955   0.822   1.180   9.287  2.3245 -0.7696  2.1850
   99OSM   C12F 9956   0.749   1.088   9.106 -0.3853 -0.5177 -0.3439
   99OSM   H12F 9957   0.768   1.185   9.055  0.4218 -0.6699 -0.3518
   99OSM   H12G 9958   0.641   1.080   9.129 -0.7511  0.1006 -1.7794
   99OSM   C13F 9959   0.780   0.976   8.994 -0.1384 -0.7119 -0.6959
   99OSM   H13F 9960   0.722   0.891   9.036  0.9038 -1.1955 -0.1965
   99OSM   H13G 9961   0.890   0.958   8.989  0.1672  1.2085 -2.9125
   99OSM   C14F 9962   0.730   1.022   8.857  0.5825  0.4566  0.6266
   99OSM   H14F 9963   0.717   1.132   8.857 -0.0744  0.4385 -2.0455
   99OSM   H14G 9964   0.627   0.980   8.852  0.5472  0.2018  2.5434
   99OSM   C15F 9965   0.822   0.977   8.749  0.6900 -0.3285  0.4944
   99OSM   H15F 9966   0.766   0.969   8.654  0.0756 -1.5703  0.9343
   99OSM   H15G 9967   0.869   0.879   8.770 -0.1333 -0.9124 -0.3410
   99OSM   C16F 9968   0.935   1.087   8.722  0.0529 -0.8065 -0.1257
   99OSM   H16F 9969   0.989   1.096   8.819 -1.5457 -0.6298  0.7817
   99OSM   H16G 9970   0.889   1.185   8.697  0.0398 -0.8182 -0.1471
   99OSM   C17F 9971   1.024   1.059   8.600 -0.6960  0.9211  0.3163
   99OSM   H17F 9972   0.972   1.060   8.502 -1.2054  2.5690  0.5704
   99OSM   H17G 9973   1.072   0.959   8.616 -0.9810  0.6764 -0.3474
   99OSM   C18F 9974   1.145   1.160   8.597 -0.0664 -0.5290  0.6900
   99OSM   H18F 9975   1.102   1.262   8.594  1.8360  0.3147 -1.9728
   99OSM   H18G 9976   1.207   1.139   8.507  0.1689  0.0306  0.7211
   99OSM   H18H 9977   1.221   1.161   8.678  0.6495  3.8547  0.1853
  100OSM      N 9978   2.168   0.773  10.772 -0.0362  1.3675 -0.1697
  100OSM    C15 9979   2.066   0.736  10.874  0.3654 -0.5231 -0.4980
  100OSM   H15A 9980   2.134   0.730  10.958  2.4182 -0.6634 -2.1054
  100OSM   H15B 9981   2.009   0.645  10.860 -1.0257 -0.4766  3.6135
  100OSM   H15C 9982   1.988   0.810  10.886  0.3201 -0.6078 -0.2704
  100OSM    C14 9983   2.251   0.882  10.827 -0.3974  0.1091 -0.4161
  100OSM   H14A 9984   2.212   0.977  10.794 -0.0368  0.3912 -0.0341
  100OSM   H14B 9985   2.351   0.875  10.787 -0.1059  2.7129 -0.3304
  100OSM   H14C 9986   2.248   0.889  10.934  0.9271 -1.4170 -0.2336
  100OSM    C13 9987   2.255   0.648  10.760 -0.4022 -0.5063  0.8319
  100OSM   H13A 9988   2.347   0.660  10.706 -1.1524 -3.5522 -1.4328
  100OSM   H13B 9989   2.202   0.574  10.701  0.4741  0.2676 -1.0062
  100OSM   H13C 9990   2.277   0.609  10.858  2.9615 -0.4238  0.2122
  100OSM    C12 9991   2.104   0.800  10.636  0.8281  0.6273  0.0352
  100OSM   H12A 9992   2.019   0.735  10.626  1.5105 -0.3826  0.6072
  100OSM   H12B 9993   2.181   0.802  10.561  0.9870 -0.8761  0.1299
  100OSM    C11 9994   2.038   0.936  10.620  0.3757 -0.2944 -0.1353
  100OSM   H11A 9995   1.968   0.938  10.707 -0.6639 -0.8431 -0.9280
  100OSM   H11B 9996   1.977   0.942  10.528  0.2452 -1.8946 -0.1863
  100OSM      P 9997   2.090   1.190  10.659  0.0320  0.1704  0.3250
  100OSM    O13 9998   2.036   1.187  10.795  0.3101  0.3473 -0.2199
  100OSM    O14 9999   2.200   1.280  10.621  0.5295 -0.1121 -0.1919
  100OSM    O1110000   1.971   1.213  10.556  0.4609  0.0350 -0.0869
  100OSM    O1210001   2.131   1.045  10.619 -1.1537  0.3599 -0.6472
  100OSM    C1S10002   1.990   1.222  10.412 -0.8740  0.3272 -0.3406
  100OSM    H1S10003   1.977   1.116  10.384 -2.9706 -1.0370  4.7598
  100OSM    H1T10004   2.097   1.238  10.387 -0.4341 -0.1606  1.1152
  100OSM     NF10005   1.934   1.344  10.202 -0.5834 -0.3948  0.1322
  100OSM    HNF10006   2.000   1.415  10.180 -0.3222 -0.9801 -1.0417
  100OSM    C2S10007   1.886   1.317  10.333  0.2960  0.1395 -0.2100
  100OSM    H2S10008   1.789   1.265  10.329 -0.8217  1.8761  1.9512
  100OSM    C3S10009   1.853   1.437  10.424  0.3007  0.8197  0.7791
  100OSM    H3S10010   1.952   1.483  10.441  0.3662  1.1780 -0.4751
  100OSM     O310011   1.792   1.406  10.544  0.8803 -0.3857  0.2694
  100OSM    HO310012   1.771   1.313  10.550  0.1275 -0.2455 -0.0939
  100OSM    C4S10013   1.764   1.535  10.353 -0.6864  0.0745 -0.4131
  100OSM    H4S10014   1.816   1.605  10.286  0.4530 -0.2358  0.1233
  100OSM    C5S10015   1.629   1.545  10.350 -0.9371  0.6248  0.8583
  100OSM    H5S10016   1.576   1.468  10.408 -0.2096 -0.1704  0.5058
  100OSM    C6S10017   1.550   1.630  10.265  0.7971  0.3818  0.0407
  100OSM    H6S10018   1.487   1.687  10.337  0.3317 -0.7307  0.5408
  100OSM    H6T10019   1.485   1.570  10.197  0.4460  1.1381 -0.3017
  100OSM    C7S10020   1.613   1.741  10.180 -0.8637 -0.3084 -0.5799
  100OSM    H7S10021   1.703   1.694  10.134 -0.0050 -2.0592  2.5944
  100OSM    H7T10022   1.644   1.830  10.240 -0.2303 -1.3547  0.7125
  100OSM    C8S10023   1.509   1.795  10.076  0.1285  0.7113 -0.2073
  100OSM    H8S10024   1.424   1.845  10.127 -2.2311 -0.2554 -2.8812
  100OSM    H8T10025   1.463   1.718  10.010 -0.1439  2.1533 -1.7703
  100OSM    C9S10026   1.575   1.885   9.972 -0.0408 -0.1487  0.4496
  100OSM    H9S10027   1.651   1.820   9.923 -0.7888  0.0851 -1.0718
  100OSM    H9T10028   1.615   1.971  10.031 -1.0891  0.6289  0.0533
  100OSM   C10S10029   1.488   1.964   9.876  0.0679  0.1543  0.5067
  100OSM   H10S10030   1.406   2.014   9.931 -1.5286 -2.8077  1.0276
  100OSM   H10T10031   1.431   1.896   9.809  1.1434  0.3884 -0.6833
  100OSM   C11S10032   1.570   2.073   9.794 -0.2461  0.1963 -0.7588
  100OSM   H11S10033   1.630   2.022   9.716 -0.0468  1.6203 -1.5766
  100OSM   H11T10034   1.637   2.120   9.870 -1.1958  0.5300 -0.1029
  100OSM   C12S10035   1.480   2.179   9.731  0.7166  0.5341  0.0872
  100OSM   H12S10036   1.408   2.228   9.800  0.6333 -0.7994  0.9984
  100OSM   H12T10037   1.397   2.134   9.672  1.5453 -1.8122  0.5863
  100OSM   C13S10038   1.541   2.294   9.640  0.1354 -0.3179  0.2231
  100OSM   H13S10039   1.582   2.243   9.550 -0.3776 -1.3293  0.5581
  100OSM   H13T10040   1.611   2.341   9.712  1.0325 -1.3323  0.0368
  100OSM   C14S10041   1.443   2.397   9.586 -0.3303 -0.6489 -0.2268
  100OSM   H14S10042   1.502   2.481   9.544  1.7094 -0.5772  2.5159
  100OSM   H14T10043   1.386   2.436   9.673  0.8930  0.2173  0.2030
  100OSM   C15S10044   1.341   2.347   9.480  0.4080  0.0201 -0.0887
  100OSM   H15S10045   1.291   2.433   9.429  1.3530  0.9473  0.5020
  100OSM   H15T10046   1.261   2.291   9.533 -0.2194  1.4103  0.5071
  100OSM   C16S10047   1.398   2.266   9.365  0.7875 -0.0749  0.2333
  100OSM   H16S10048   1.424   2.163   9.396  1.9476 -0.8239 -2.8463
  100OSM   H16T10049   1.488   2.317   9.324  0.7932  1.0110  1.5440
  100OSM   C17S10050   1.289   2.247   9.260 -0.4546  0.5513  0.1358
  100OSM   H17S10051   1.269   2.341   9.204 -0.3058 -0.3068 -1.4155
  100OSM   H17T10052   1.197   2.215   9.313 -1.0627 -0.7954 -1.6500
  100OSM   C18S10053   1.321   2.127   9.163 -0.6007  0.6874  0.6881
  100OSM   H18S10054   1.412   2.148   9.104 -2.0257 -1.0707 -2.4004
  100OSM   H18T10055   1.233   2.133   9.095 -0.5495  2.2385  0.7196
  100OSM   H18U10056   1.336   2.029   9.214  0.4220  0.2551 -0.4117
  100OSM    C1F10057   1.939   1.251  10.102 -0.1296 -0.3425 -0.5070
  100OSM     OF10058   1.889   1.143  10.121  0.4065 -0.6337 -0.1508
  100OSM    C2F10059   2.006   1.287   9.973 -0.4953  0.1239 -0.9941
  100OSM    H2F10060   2.032   1.195   9.915  0.2638  0.8237 -1.7756
  100OSM    H2G10061   2.094   1.346  10.004 -0.4008  0.2466 -1.4843
  100OSM    C3F10062   1.923   1.381   9.892 -0.1446 -0.2527 -0.1712
  100OSM    H3F10063   1.953   1.480   9.932  3.4381 -0.8833 -0.9676
  100OSM    H3G10064   1.817   1.352   9.908  0.4189 -3.2733 -1.1135
  100OSM    C4F10065   1.948   1.373   9.738 -0.6832  0.1362  0.4070
  100OSM    H4F10066   1.891   1.456   9.690  3.7115  3.3659  0.2333
  100OSM    H4G10067   1.910   1.277   9.696  0.5922 -0.7169  1.1459
  100OSM    C5F10068   2.099   1.382   9.700 -0.4143  0.4004 -1.1465
  100OSM    H5F10069   2.151   1.295   9.747 -2.4152 -0.2446 -0.0218
  100OSM    H5G10070   2.134   1.479   9.742 -1.0997  1.5247 -3.0737
  100OSM    C6F10071   2.125   1.366   9.549 -0.4513 -0.3825  0.5973
  100OSM    H6F10072   2.218   1.419   9.520  0.8644 -2.8601  0.0208
  100OSM    H6G10073   2.043   1.415   9.492  1.0187 -0.6445 -1.8872
  100OSM    C7F10074   2.137   1.221   9.499  0.4277 -0.5581 -0.7114
  100OSM    H7F10075   2.030   1.193   9.488 -0.5051  1.2706  2.3388
  100OSM    H7G10076   2.187   1.164   9.580  0.2707 -0.0183 -0.2168
  100OSM    C8F10077   2.202   1.198   9.363 -0.5684 -0.9599 -0.4750
  100OSM    H8F10078   2.142   1.228   9.274 -0.2799 -1.8243 -0.9834
  100OSM    H8G10079   2.206   1.087   9.358 -1.8812 -1.0045 -0.8083
  100OSM    C9F10080   2.339   1.262   9.349  0.7645 -0.7903  0.7321
  100OSM    H9F10081   2.407   1.249   9.434  0.6802 -0.5806  0.8298
  100OSM   C10F10082   2.380   1.329   9.238  0.0105 -0.3067  0.4889
  100OSM   H10F10083   2.477   1.380   9.237  0.2244 -0.6548 -2.0404
  100OSM   C11F10084   2.304   1.363   9.109 -0.3683 -0.3505  0.5415
  100OSM   H11F10085   2.363   1.430   9.043 -0.9786  0.6235  0.9654
  100OSM   H11G10086   2.206   1.410   9.133 -0.4190 -0.2605  0.1681
  100OSM   C12F10087   2.278   1.239   9.021  0.1081 -0.2572  0.0831
  100OSM   H12F10088   2.217   1.268   8.933  1.7031  1.1856 -0.6212
  100OSM   H12G10089   2.211   1.168   9.073 -0.5223  0.5842  0.4456
  100OSM   C13F10090   2.404   1.165   8.980 -0.3844  0.0560 -0.1435
  100OSM   H13F10091   2.444   1.121   9.074 -2.0898 -0.5837  0.3290
  100OSM   H13G10092   2.486   1.222   8.932  0.6795 -0.6821  0.7327
  100OSM   C14F10093   2.367   1.042   8.889 -0.3449  0.0613 -0.3456
  100OSM   H14F10094   2.322   1.057   8.788 -2.2994 -2.1557  0.1122
  100OSM   H14G10095   2.291   0.980   8.941 -0.5744  1.6933  1.3563
  100OSM   C15F10096   2.498   0.966   8.855 -0.0988 -0.0187  0.3604
  100OSM   H15F10097   2.550   0.940   8.950  2.1968 -0.6996 -1.0199
  100OSM   H15G10098   2.571   1.016   8.789  0.3382 -0.2801  0.6416
  100OSM   C16F10099   2.471   0.840   8.783  0.6669 -0.0403  0.2702
  100OSM   H16F10100   2.422   0.870   8.688  0.0967 -1.8876 -0.0611
  100OSM   H16G10101   2.398   0.775   8.837  0.5666  0.4914  0.7839
  100OSM   C17F10102   2.599   0.751   8.755  0.2583 -0.8154 -0.2199
  100OSM   H17F10103   2.673   0.826   8.719  1.5769 -1.0144  1.9335
  100OSM   H17G10104   2.584   0.678   8.673  0.2631 -1.9587  0.7771
  100OSM   C18F10105   2.647   0.672   8.879 -0.6537  0.5752 -0.6834
  100OSM   H18F10106   2.576   0.604   8.931  1.1633 -0.6164  0.3575
  100OSM   H18G10107   2.699   0.736   8.954  0.2629 -0.7839 -0.1095
  100OSM   H18H10108   2.734   0.610   8.847 -0.9150  0.5826 -1.4180
  101OSM      N10109   0.478   2.788  11.062  0.4874 -0.3655  0.0814
  101OSM    C1510110   0.444   2.826  10.919  0.4946 -0.2410 -0.5982
  101OSM   H15A10111   0.535   2.840  10.861  2.1280 -0.9860  1.6480
  101OSM   H15B10112   0.384   2.915  10.909  0.2065 -0.3035  0.5035
  101OSM   H15C10113   0.392   2.741  10.877 -0.9320  0.7099 -0.8106
  101OSM    C1410114   0.590   2.693  11.060  0.5968  0.3229 -0.5238
  101OSM   H14A10115   0.540   2.600  11.037 -0.0071 -0.0181  1.9051
  101OSM   H14B10116   0.627   2.676  11.160  0.3483  0.2513 -0.4434
  101OSM   H14C10117   0.669   2.714  10.990 -0.1652  2.4542 -0.8264
  101OSM    C1310118   0.537   2.909  11.125 -0.2912  0.7475  0.4309
  101OSM   H13A10119   0.615   2.952  11.065  0.0562 -1.9030 -1.1481
  101OSM   H13B10120   0.582   2.881  11.220  1.2509  0.5059 -0.3431
  101OSM   H13C10121   0.462   2.986  11.133 -0.9837  0.0697  0.6171
  101OSM    C1210122   0.353   2.739  11.133  0.3291 -0.6822 -0.4779
  101OSM   H12A10123   0.387   2.722  11.234 -0.8167  3.4541  0.8140
  101OSM   H12B10124   0.311   2.646  11.095  0.5118 -0.3199 -1.6061
  101OSM    C1110125   0.244   2.851  11.138 -0.2197  0.0201  0.3013
  101OSM   H11A10126   0.288   2.945  11.178  0.4414 -0.4339  0.6699
  101OSM   H11B10127   0.176   2.815  11.218 -2.1987  1.1034 -0.8163
  101OSM      P10128   0.039   2.952  11.010 -0.0548 -0.0709 -0.1230
  101OSM    O1310129  -0.084   2.871  11.020 -0.2161  0.1453  0.8116
  101OSM    O1410130   0.054   3.064  11.109 -0.5718  0.5400 -0.2091
  101OSM    O1110131   0.052   3.001  10.859  0.2600  0.0569 -0.2859
  101OSM    O1210132   0.169   2.860  11.018  0.6912 -0.3378 -0.3976
  101OSM    C1S10133   0.060   2.896  10.758  0.1116 -0.0731 -0.6862
  101OSM    H1S10134  -0.046   2.866  10.742  0.0336 -2.1804  2.8691
  101OSM    H1T10135   0.124   2.810  10.786 -0.5063 -0.6456 -0.9911
  101OSM     NF10136   0.097   2.865  10.519 -0.1094 -0.0855  0.3854
  101OSM    HNF10137   0.178   2.833  10.471 -0.5904 -3.5386  1.6419
  101OSM    C2S10138   0.115   2.955  10.624  0.1045 -0.5662  0.1792
  101OSM    H2S10139   0.046   3.037  10.597 -0.6303 -1.2250  0.0373
  101OSM    C3S10140   0.265   3.009  10.642  0.8104 -1.0183  0.4372
  101OSM    H3S10141   0.333   2.928  10.678  0.9417 -0.7159  0.8663
  101OSM     O310142   0.270   3.110  10.752  0.5226 -0.0265 -0.5455
  101OSM    HO310143   0.191   3.091  10.802  1.5109  0.3294  1.2293
  101OSM    C4S10144   0.319   3.078  10.518  0.4463 -0.1750  0.2458
  101OSM    H4S10145   0.286   3.183  10.512 -2.6030 -0.7758  3.3408
  101OSM    C5S10146   0.384   3.010  10.415 -0.7462  0.1671  0.1509
  101OSM    H5S10147   0.392   2.902  10.430 -4.3044 -0.1467  0.6281
  101OSM    C6S10148   0.430   3.071  10.285 -1.0386 -0.1871 -0.9051
  101OSM    H6S10149   0.540   3.056  10.280 -0.8449 -0.0425  1.5491
  101OSM    H6T10150   0.429   3.182  10.293  2.0862 -0.1967  1.8835
  101OSM    C7S10151   0.349   3.027  10.156 -0.5752  0.4009 -0.1983
  101OSM    H7S10152   0.358   2.918  10.139  1.3907  0.7364 -1.5988
  101OSM    H7T10153   0.403   3.069  10.069  0.0053 -2.2671 -1.2031
  101OSM    C8S10154   0.202   3.068  10.159 -0.0443  0.1413 -0.0513
  101OSM    H8S10155   0.205   3.169  10.205 -2.4791 -0.9626  2.8890
  101OSM    H8T10156   0.146   3.003  10.230  0.2745  0.2785  0.3297
  101OSM    C9S10157   0.134   3.077  10.019 -0.6208 -0.0438 -1.4517
  101OSM    H9S10158   0.189   3.160   9.971  0.2134  1.0786  1.2334
  101OSM    H9T10159   0.028   3.111  10.028 -0.4303  0.3389 -0.4854
  101OSM   C10S10160   0.141   2.939   9.947 -0.1130 -0.4081 -0.4919
  101OSM   H10S10161   0.061   2.873   9.987  0.7869 -0.2368  1.7451
  101OSM   H10T10162   0.236   2.882   9.963  0.3671  0.2612 -0.9201
  101OSM   C11S10163   0.112   2.940   9.792 -0.2681 -0.5688 -0.3186
  101OSM   H11S10164   0.011   2.978   9.767 -0.5327 -0.2989  1.0708
  101OSM   H11T10165   0.130   2.839   9.750 -2.1448 -0.5880 -1.1617
  101OSM   C12S10166   0.204   3.040   9.711 -0.1208  0.1914 -0.2627
  101OSM   H12S10167   0.307   2.998   9.711  0.2222  1.0220 -0.5356
  101OSM   H12T10168   0.203   3.140   9.759  0.9031  0.3130 -0.4656
  101OSM   C13S10169   0.156   3.051   9.573 -0.2416  0.2294 -0.1022
  101OSM   H13S10170   0.073   3.124   9.579 -1.2334 -0.8493 -0.1795
  101OSM   H13T10171   0.129   2.949   9.537  0.4781 -0.9530  2.4683
  101OSM   C14S10172   0.266   3.099   9.484  1.4890  0.3632  0.1665
  101OSM   H14S10173   0.354   3.032   9.488 -0.1749 -1.9015  0.7432
  101OSM   H14T10174   0.292   3.203   9.514  1.4316  0.1109  1.0988
  101OSM   C15S10175   0.208   3.106   9.338 -0.3280  0.1163 -0.1306
  101OSM   H15S10176   0.285   3.153   9.273 -0.0423 -1.3592 -0.9079
  101OSM   H15T10177   0.112   3.160   9.333 -0.7177 -0.6203 -0.8930
  101OSM   C16S10178   0.177   2.974   9.266 -0.3353  0.1784 -0.6106
  101OSM   H16S10179   0.129   2.908   9.341 -1.0328  0.6322 -0.6491
  101OSM   H16T10180   0.275   2.941   9.225 -0.0138  1.4241 -0.9122
  101OSM   C17S10181   0.076   2.982   9.151  0.0765 -0.3667  0.5801
  101OSM   H17S10182   0.094   3.071   9.087  2.3216 -0.4432  1.0129
  101OSM   H17T10183  -0.020   3.008   9.200 -1.3162 -1.6763 -1.3121
  101OSM   C18S10184   0.051   2.851   9.084  0.2629  0.4086  0.0662
  101OSM   H18S10185   0.022   2.776   9.161 -1.2523 -2.2085 -2.8104
  101OSM   H18T10186   0.135   2.811   9.024  0.1233  1.3326 -0.7838
  101OSM   H18U10187  -0.045   2.851   9.026 -1.6152 -0.7754  2.9655
  101OSM    C1F10188  -0.023   2.825  10.475  0.0756  0.2119 -0.9485
  101OSM     OF10189  -0.133   2.842  10.526  0.5474 -0.1916 -0.2182
  101OSM    C2F10190  -0.022   2.732  10.359 -0.2619  0.2502  0.3364
  101OSM    H2F10191  -0.003   2.630  10.398  0.1952  0.7809  1.5677
  101OSM    H2G10192   0.063   2.760  10.294  1.4149  0.1641  2.3673
  101OSM    C3F10193  -0.156   2.725  10.276 -0.0439 -0.2891  0.6390
  101OSM    H3F10194  -0.194   2.828  10.262  0.1353 -0.4803 -1.4690
  101OSM    H3G10195  -0.235   2.668  10.331 -1.5689  0.4067 -0.7514
  101OSM    C4F10196  -0.121   2.671  10.136 -0.8592 -0.0065  0.7516
  101OSM    H4F10197  -0.065   2.576  10.145  0.4599  0.5404 -0.9768
  101OSM    H4G10198  -0.057   2.747  10.085  2.3190 -1.2892  2.5330
  101OSM    C5F10199  -0.241   2.642  10.044 -0.0701  0.3465 -0.1594
  101OSM    H5F10200  -0.286   2.743  10.036  0.2541  0.3842 -1.7750
  101OSM    H5G10201  -0.315   2.582  10.102 -0.2199  1.1450  0.4911
  101OSM    C6F10202  -0.218   2.578   9.905  0.3346 -0.3528  0.2115
  101OSM    H6F10203  -0.223   2.646   9.818 -2.4909  0.3454  0.8243
  101OSM    H6G10204  -0.118   2.529   9.900 -0.1559 -1.4704  0.9188
  101OSM    C7F10205  -0.326   2.471   9.865  0.3872 -0.4516  0.1636
  101OSM    H7F10206  -0.307   2.381   9.929  2.6690 -1.0114 -1.2040
  101OSM    H7G10207  -0.311   2.428   9.764 -0.0689 -0.4563  0.0987
  101OSM    C8F10208  -0.473   2.518   9.879  0.7275  0.3798 -0.0394
  101OSM    H8F10209  -0.477   2.599   9.803 -0.0964  1.4182  1.0664
  101OSM    H8G10210  -0.498   2.559   9.979  0.2821  2.1213 -0.8251
  101OSM    C9F10211  -0.565   2.401   9.844 -0.2887  0.0682 -0.4811
  101OSM    H9F10212  -0.563   2.330   9.927  0.9162 -0.0324 -0.5765
  101OSM   C10F10213  -0.640   2.380   9.735 -0.1214  0.1588  0.4692
  101OSM   H10F10214  -0.708   2.295   9.717  0.5718 -0.3138  0.0254
  101OSM   C11F10215  -0.641   2.472   9.615  0.4798  0.0861 -0.1991
  101OSM   H11F10216  -0.561   2.443   9.545 -0.6313 -0.1515 -1.4117
  101OSM   H11G10217  -0.635   2.578   9.648 -0.4509  0.0743  0.0513
  101OSM   C12F10218  -0.776   2.459   9.535 -0.3200 -0.1443 -0.0330
  101OSM   H12F10219  -0.867   2.495   9.587 -0.3908 -1.1888  0.5885
  101OSM   H12G10220  -0.803   2.353   9.513  0.0179 -0.4698  1.0863
  101OSM   C13F10221  -0.772   2.527   9.401 -0.5766 -0.6734  0.0580
  101OSM   H13F10222  -0.748   2.635   9.398 -0.7113 -0.6308  0.4351
  101OSM   H13G10223  -0.871   2.516   9.350  0.0186 -1.0832 -1.0456
  101OSM   C14F10224  -0.670   2.469   9.304  0.4844  0.0969 -0.4308
  101OSM   H14F10225  -0.652   2.360   9.314  1.2975  0.1151 -1.5418
  101OSM   H14G10226  -0.570   2.515   9.315  1.3520 -1.8599  0.4071
  101OSM   C15F10227  -0.701   2.507   9.159 -0.5145  0.7323  0.2946
  101OSM   H15F10228  -0.806   2.483   9.133 -0.3020  0.6472 -0.5234
  101OSM   H15G10229  -0.648   2.445   9.083 -0.8013 -0.1465  0.7972
  101OSM   C16F10230  -0.660   2.656   9.138  0.5107 -0.3056 -0.3457
  101OSM   H16F10231  -0.562   2.677   9.187  1.3083  1.3862 -2.5256
  101OSM   H16G10232  -0.734   2.716   9.194 -0.4184 -1.2777 -0.5134
  101OSM   C17F10233  -0.653   2.703   8.990  0.4179  0.0084  0.3566
  101OSM   H17F10234  -0.751   2.713   8.939  0.4303 -0.5292  0.2114
  101OSM   H17G10235  -0.600   2.616   8.945  0.4183 -0.0686  0.5040
  101OSM   C18F10236  -0.564   2.829   8.990 -0.2369  0.3604 -0.2405
  101OSM   H18F10237  -0.480   2.818   9.062 -0.6534 -3.1814 -0.1222
  101OSM   H18G10238  -0.620   2.920   9.019  0.5871  0.7196  0.2348
  101OSM   H18H10239  -0.521   2.842   8.889 -0.0767  0.4085 -0.1656
  102OSM      N10240   2.770   4.283  10.859  0.0743 -0.5777  1.2918
  102OSM    C1510241   2.855   4.349  10.968  0.3599  0.0691  0.5867
  102OSM   H15A10242   2.956   4.363  10.934  0.4793 -0.3958  0.7413
  102OSM   H15B10243   2.854   4.289  11.058 -1.0342 -1.8344 -0.6233
  102OSM   H15C10244   2.812   4.444  10.996 -0.5197  0.0778 -0.7072
  102OSM    C1410245   2.824   4.150  10.818  0.6668 -0.4978  0.0912
  102OSM   H14A10246   2.923   4.161  10.777  0.6434 -1.5614 -0.2988
  102OSM   H14B10247   2.771   4.101  10.736  3.8964  1.6834 -3.6629
  102OSM   H14C10248   2.837   4.088  10.906 -1.0895  1.4553  1.8224
  102OSM    C1310249   2.632   4.259  10.902  0.3234  0.2090  0.0736
  102OSM   H13A10250   2.627   4.213  11.000  2.0890 -2.1594 -0.8533
  102OSM   H13B10251   2.576   4.208  10.825  1.6007 -1.3517  0.1384
  102OSM   H13C10252   2.593   4.359  10.895  1.3930  0.9110  2.8172
  102OSM    C1210253   2.767   4.368  10.728 -0.2796 -0.0868 -0.4659
  102OSM   H12A10254   2.716   4.319  10.646  0.7298 -0.6523 -0.7773
  102OSM   H12B10255   2.872   4.369  10.702  0.3499 -0.0613  1.8795
  102OSM    C1110256   2.718   4.514  10.735 -0.4861  0.2806  0.8381
  102OSM   H11A10257   2.753   4.566  10.643  2.5751 -0.5392  1.4492
  102OSM   H11B10258   2.767   4.565  10.821 -0.9634  2.9147 -0.3425
  102OSM      P10259   2.467   4.489  10.641 -0.0530  0.0036 -0.0274
  102OSM    O1310260   2.515   4.375  10.554 -0.3777  0.1603 -0.0532
  102OSM    O1410261   2.344   4.473  10.728 -0.0733  0.0440 -0.2647
  102OSM    O1110262   2.448   4.621  10.557 -0.4313 -0.1802  0.4571
  102OSM    O1210263   2.577   4.535  10.746  0.1608 -0.4129 -0.2436
  102OSM    C1S10264   2.545   4.655  10.448 -0.2414  0.6053  0.0349
  102OSM    H1S10265   2.587   4.561  10.407 -2.2015  0.0086 -0.7066
  102OSM    H1T10266   2.627   4.718  10.489 -0.8463  1.1662  0.4188
  102OSM     NF10267   2.566   4.715  10.205  0.3318 -0.3233  0.4393
  102OSM    HNF10268   2.622   4.796  10.186  1.0364 -0.7584  0.6214
  102OSM    C2S10269   2.484   4.730  10.328 -0.5092 -0.6630 -0.1267
  102OSM    H2S10270   2.381   4.695  10.307 -1.2261  0.4723  1.3359
  102OSM    C3S10271   2.482   4.882  10.381  0.1399 -0.0108 -0.2933
  102OSM    H3S10272   2.588   4.914  10.382  0.2943 -0.4928 -0.7894
  102OSM     O310273   2.421   4.892  10.516 -0.1302 -0.0072  0.9747
  102OSM    HO310274   2.406   4.798  10.526 -2.7785  0.2944  0.4235
  102OSM    C4S10275   2.398   4.965  10.284  0.3464 -0.1666 -0.4261
  102OSM    H4S10276   2.302   4.918  10.262  0.0772 -1.9118  3.6825
  102OSM    C5S10277   2.435   5.085  10.244 -0.7574  0.2987 -0.0229
  102OSM    H5S10278   2.536   5.123  10.264 -0.2243 -0.6665 -0.8035
  102OSM    C6S10279   2.345   5.172  10.158  0.2045 -0.1741  0.2860
  102OSM    H6S10280   2.308   5.261  10.214  3.9986  1.3806  0.6610
  102OSM    H6T10281   2.257   5.116  10.119 -0.8262  1.6685 -0.1228
  102OSM    C7S10282   2.420   5.228  10.034 -0.4099 -0.2688  0.7271
  102OSM    H7S10283   2.469   5.146   9.976 -0.4326  0.5111 -0.4187
  102OSM    H7T10284   2.498   5.294  10.076  0.1648 -0.8640  0.6216
  102OSM    C8S10285   2.328   5.300   9.931  0.5507  0.7531 -0.4980
  102OSM    H8S10286   2.277   5.379   9.989  0.6065 -0.9337  2.0481
  102OSM    H8T10287   2.250   5.227   9.901  1.4082  0.0265 -1.0169
  102OSM    C9S10288   2.403   5.341   9.802 -0.6084 -0.6841 -0.4183
  102OSM    H9S10289   2.456   5.249   9.771 -0.8947 -2.1399  2.9949
  102OSM    H9T10290   2.479   5.418   9.826 -3.5419  2.4280 -0.3769
  102OSM   C10S10291   2.319   5.398   9.686  0.0929  0.6423 -0.2619
  102OSM   H10S10292   2.259   5.487   9.712 -2.1342 -0.5548 -1.0256
  102OSM   H10T10293   2.237   5.324   9.669  1.0033 -0.6485  0.7319
  102OSM   C11S10294   2.402   5.426   9.570 -0.5520  0.2293  0.5444
  102OSM   H11S10295   2.448   5.331   9.536 -0.8459  0.0647  0.6074
  102OSM   H11T10296   2.472   5.506   9.601 -1.6061  0.3262  2.8385
  102OSM   C12S10297   2.324   5.473   9.447  0.1194  0.0809  0.3520
  102OSM   H12S10298   2.294   5.579   9.462  1.4120  0.4378  0.4696
  102OSM   H12T10299   2.230   5.414   9.433 -0.5836  1.7528 -2.9493
  102OSM   C13S10300   2.403   5.450   9.316  0.4380  0.4952 -0.5896
  102OSM   H13S10301   2.444   5.347   9.312 -1.5543 -0.3058 -1.5315
  102OSM   H13T10302   2.473   5.535   9.296  1.7760 -0.7585 -1.4555
  102OSM   C14S10303   2.311   5.463   9.192  0.2232  0.0256 -0.3911
  102OSM   H14S10304   2.381   5.466   9.105 -2.8545  0.4736 -3.0583
  102OSM   H14T10305   2.254   5.558   9.198  0.8560  0.3626  0.5585
  102OSM   C15S10306   2.221   5.342   9.158  0.3410 -0.5182 -0.7920
  102OSM   H15S10307   2.159   5.335   9.250  0.1304 -1.8860 -1.0165
  102OSM   H15T10308   2.281   5.248   9.156  2.2267  0.6218 -0.4459
  102OSM   C16S10309   2.139   5.371   9.030  0.1407 -0.0292 -0.4900
  102OSM   H16S10310   2.213   5.375   8.947  0.0826  1.0553 -0.5029
  102OSM   H16T10311   2.096   5.472   9.044 -1.6201 -0.8049 -0.1259
  102OSM   C17S10312   2.018   5.286   8.999 -0.3057 -0.6005 -0.7271
  102OSM   H17S10313   1.976   5.250   9.095 -1.1556  1.4000 -0.3057
  102OSM   H17T10314   2.055   5.188   8.963 -0.6373 -1.3572  0.9195
  102OSM   C18S10315   1.915   5.353   8.908  0.1664 -0.3691  0.1115
  102OSM   H18S10316   1.971   5.386   8.818  1.7444  3.4919  2.2639
  102OSM   H18T10317   1.877   5.442   8.961  2.4207  0.1374  0.9566
  102OSM   H18U10318   1.837   5.283   8.869  1.2598 -1.5296 -0.0534
  102OSM    C1F10319   2.563   4.607  10.134 -0.7442  0.7256  0.0941
  102OSM     OF10320   2.504   4.510  10.170 -0.0782  0.0476 -0.0003
  102OSM    C2F10321   2.645   4.609  10.007  0.1713  0.6818  0.5261
  102OSM    H2F10322   2.724   4.685  10.025  1.4545 -0.7580  1.1717
  102OSM    H2G10323   2.587   4.647   9.921 -1.5556  0.8744  1.7219
  102OSM    C3F10324   2.706   4.471   9.978  0.0676 -0.2461 -0.1281
  102OSM    H3F10325   2.626   4.395   9.975  0.3126 -0.4868 -2.1405
  102OSM    H3G10326   2.778   4.449  10.060  1.3640  0.5202 -1.0168
  102OSM    C4F10327   2.765   4.467   9.843  0.1128 -0.1926  0.3670
  102OSM    H4F10328   2.803   4.364   9.826 -1.6693 -0.8953  0.4167
  102OSM    H4G10329   2.849   4.538   9.831 -1.9376  1.9997 -2.5553
  102OSM    C5F10330   2.666   4.514   9.726 -0.2300  0.3828 -0.1410
  102OSM    H5F10331   2.669   4.624   9.717  0.9018  0.4646  0.8940
  102OSM    H5G10332   2.569   4.465   9.749  1.0936 -2.0636  0.6001
  102OSM    C6F10333   2.711   4.460   9.588  0.3651 -0.9188 -0.1263
  102OSM    H6F10334   2.719   4.349   9.584 -0.5511 -1.0115  0.3049
  102OSM    H6G10335   2.816   4.494   9.577  0.3795 -0.8617  0.1805
  102OSM    C7F10336   2.615   4.503   9.478 -0.0483  0.0529  0.0609
  102OSM    H7F10337   2.590   4.611   9.487  3.0651  0.8326  0.5287
  102OSM    H7G10338   2.523   4.442   9.489 -0.4251  0.7129  0.7188
  102OSM    C8F10339   2.690   4.488   9.343  0.2900 -0.1184  0.0330
  102OSM    H8F10340   2.742   4.390   9.344 -1.5409 -1.1486 -0.3921
  102OSM    H8G10341   2.764   4.570   9.333  3.5592 -2.4133  2.8660
  102OSM    C9F10342   2.591   4.468   9.227 -0.0784 -0.0330 -0.1652
  102OSM    H9F10343   2.506   4.401   9.244 -0.2143  0.0099 -0.6516
  102OSM   C10F10344   2.607   4.531   9.111 -0.0891  0.9343  0.6499
  102OSM   H10F10345   2.528   4.525   9.035  0.3177 -0.9073  0.3077
  102OSM   C11F10346   2.725   4.616   9.062 -0.1895  0.0118 -0.3156
  102OSM   H11F10347   2.817   4.598   9.122 -0.1117 -0.6918 -0.6312
  102OSM   H11G10348   2.690   4.721   9.057 -1.5484 -0.1882  2.8025
  102OSM   C12F10349   2.752   4.576   8.917  0.3940 -0.6683 -0.2039
  102OSM   H12F10350   2.799   4.660   8.862 -0.4672 -0.9924 -1.4767
  102OSM   H12G10351   2.659   4.558   8.860  0.5770  0.4621 -0.8874
  102OSM   C13F10352   2.860   4.463   8.900  0.6267  0.3625  0.2650
  102OSM   H13F10353   2.816   4.367   8.936 -1.3743  1.6293  1.4020
  102OSM   H13G10354   2.952   4.487   8.957  1.3843  2.9561 -1.8475
  102OSM   C14F10355   2.901   4.441   8.753  0.2654  0.0086  0.5479
  102OSM   H14F10356   2.925   4.542   8.712  0.2610 -1.0069 -2.1853
  102OSM   H14G10357   2.814   4.406   8.694  0.3821 -0.1680  0.4806
  102OSM   C15F10358   3.018   4.338   8.715 -0.4566  0.3752 -0.0690
  102OSM   H15F10359   3.104   4.389   8.763 -1.3148  2.4774 -0.6668
  102OSM   H15G10360   3.037   4.344   8.605  1.9535 -1.3997  0.1566
  102OSM   C16F10361   2.997   4.193   8.758  0.0545  0.5750  0.1175
  102OSM   H16F10362   2.910   4.165   8.696 -0.3471  0.9128  0.5209
  102OSM   H16G10363   2.959   4.189   8.862 -0.9699 -2.3269 -0.2931
  102OSM   C17F10364   3.120   4.102   8.732  0.5538  0.2160  0.1323
  102OSM   H17F10365   3.206   4.143   8.789  1.0753  0.4272 -0.7884
  102OSM   H17G10366   3.158   4.112   8.628 -3.5948  2.3692 -1.4333
  102OSM   C18F10367   3.090   3.959   8.773  0.1117 -0.4459 -0.0328
  102OSM   H18F10368   3.163   3.886   8.732  0.5485  0.2086 -0.4249
  102OSM   H18G10369   3.002   3.925   8.714 -2.0420  0.4031  2.4958
  102OSM   H18H10370   3.078   3.957   8.884  1.0284 -0.7035  0.0718
  103OSM      N10371   0.016   1.666  10.898  0.3196  0.2271 -0.4915
  103OSM    C1510372   0.098   1.617  11.020 -0.2998  0.6186 -0.7605
  103OSM   H15A10373   0.046   1.640  11.111  0.6542  2.0261 -0.5518
  103OSM   H15B10374   0.191   1.669  11.032  0.2997 -0.7204  0.9196
  103OSM   H15C10375   0.120   1.511  11.019  1.1187  0.8910  0.2544
  103OSM    C1410376   0.030   1.819  10.906 -0.8854 -0.9119  0.0275
  103OSM   H14A10377  -0.047   1.861  10.842  0.5367 -1.0977 -1.8989
  103OSM   H14B10378   0.127   1.851  10.871 -2.0178 -0.1157 -2.6854
  103OSM   H14C10379   0.015   1.843  11.010  1.6338  0.3660  0.1466
  103OSM    C1310380   0.080   1.619  10.768 -0.3491  0.0038 -0.2177
  103OSM   H13A10381   0.176   1.667  10.753 -0.5142  0.3650 -0.1217
  103OSM   H13B10382   0.023   1.657  10.685 -2.1538  2.1891  1.8917
  103OSM   H13C10383   0.097   1.512  10.765  0.9411  0.1008  1.6681
  103OSM    C1210384  -0.128   1.625  10.920 -0.1675 -0.6618 -0.0370
  103OSM   H12A10385  -0.162   1.686  11.003  2.8492  1.0491  0.0680
  103OSM   H12B10386  -0.138   1.521  10.948  0.3084 -0.1820  2.1113
  103OSM    C1110387  -0.221   1.660  10.807 -0.2811 -0.2058 -0.3308
  103OSM   H11A10388  -0.322   1.616  10.824 -0.7724  0.1448 -2.1362
  103OSM   H11B10389  -0.187   1.616  10.711  2.3429 -0.5180  0.6448
  103OSM      P10390  -0.284   1.877  10.674 -0.2861 -0.0967 -0.1744
  103OSM    O1310391  -0.434   1.853  10.666 -0.0964 -0.1278 -0.1554
  103OSM    O1410392  -0.232   2.017  10.678  0.4665 -0.6073 -0.3650
  103OSM    O1110393  -0.210   1.796  10.557  0.1146 -0.6696 -0.0373
  103OSM    O1210394  -0.231   1.802  10.800  0.2771 -0.5342 -0.3295
  103OSM    C1S10395  -0.118   1.866  10.475 -0.6034  0.0972 -0.7363
  103OSM    H1S10396  -0.024   1.888  10.531  0.4589  0.1670 -2.4909
  103OSM    H1T10397  -0.163   1.960  10.438  1.0263  2.1648  2.0967
  103OSM     NF10398   0.030   1.859  10.276  0.2360  0.1328  0.1099
  103OSM    HNF10399  -0.001   1.895  10.188 -2.0880  0.5613  1.0502
  103OSM    C2S10400  -0.081   1.794  10.345 -0.6116  0.2408  0.4075
  103OSM    H2S10401  -0.038   1.696  10.374  2.1702  1.2856  0.1579
  103OSM    C3S10402  -0.213   1.780  10.269  0.3916 -0.0928  0.2273
  103OSM    H3S10403  -0.228   1.878  10.219  0.9508 -0.5335 -0.8702
  103OSM     O310404  -0.334   1.762  10.335  0.3902  0.4168  0.1521
  103OSM    HO310405  -0.293   1.757  10.422 -0.1094 -1.0665  0.3366
  103OSM    C4S10406  -0.194   1.690  10.145  0.0528 -0.4178  0.2439
  103OSM    H4S10407  -0.156   1.745  10.057 -3.0841 -1.1250 -1.7211
  103OSM    C5S10408  -0.205   1.555  10.131 -0.1652 -0.4133  0.2328
  103OSM    H5S10409  -0.231   1.494  10.219  1.9975 -0.5372  0.8525
  103OSM    C6S10410  -0.186   1.489  10.002  0.1817  0.4278  0.5580
  103OSM    H6S10411  -0.286   1.479   9.954 -0.2373  2.2795  0.9982
  103OSM    H6T10412  -0.147   1.386  10.017 -1.6677 -0.1535  1.7267
  103OSM    C7S10413  -0.110   1.565   9.887 -0.4352  0.2598  0.5262
  103OSM    H7S10414  -0.012   1.602   9.925 -0.4718  1.0042 -0.0854
  103OSM    H7T10415  -0.176   1.650   9.860 -1.7568 -0.6398  0.7993
  103OSM    C8S10416  -0.091   1.469   9.769  0.5214  0.0008 -0.4866
  103OSM    H8S10417  -0.177   1.400   9.757  0.9304 -0.6852  0.4569
  103OSM    H8T10418  -0.007   1.400   9.789  2.0977  1.4996 -1.6390
  103OSM    C9S10419  -0.075   1.544   9.637 -0.1848  0.4016  0.1537
  103OSM    H9S10420   0.014   1.610   9.633 -0.2454  0.6352  1.9023
  103OSM    H9T10421  -0.168   1.601   9.614  1.4804  3.2364 -0.0902
  103OSM   C10S10422  -0.047   1.439   9.526 -0.6926  0.5962 -0.0374
  103OSM   H10S10423  -0.146   1.390   9.527  0.0347 -0.9740  1.5449
  103OSM   H10T10424   0.020   1.363   9.571 -1.5926 -0.1905 -0.0063
  103OSM   C11S10425   0.003   1.493   9.393  0.2498 -0.2236  0.2590
  103OSM   H11S10426   0.108   1.531   9.400  0.1836  0.2262 -1.0173
  103OSM   H11T10427  -0.062   1.578   9.364  0.7370 -0.8305 -3.0010
  103OSM   C12S10428  -0.003   1.387   9.280 -0.1070 -0.2497 -0.4110
  103OSM   H12S10429  -0.101   1.339   9.262  0.1328  0.2031 -3.4791
  103OSM   H12T10430   0.061   1.301   9.309 -4.6007 -3.5293  0.8513
  103OSM   C13S10431   0.049   1.446   9.148 -0.1437  0.1889 -0.4202
  103OSM   H13S10432   0.158   1.464   9.160 -0.3244 -0.4373  3.0678
  103OSM   H13T10433   0.001   1.542   9.122 -2.0864 -0.8867 -1.0068
  103OSM   C14S10434   0.017   1.366   9.016  0.4573  0.3670  0.1158
  103OSM   H14S10435  -0.094   1.375   9.025  0.5127  1.4177 -0.1379
  103OSM   H14T10436   0.046   1.259   9.018  0.7369  0.4319 -0.3084
  103OSM   C15S10437   0.083   1.428   8.894 -0.0205 -0.1204 -0.1738
  103OSM   H15S10438   0.190   1.399   8.892 -0.8775 -3.7392 -0.3145
  103OSM   H15T10439   0.080   1.539   8.894 -2.3927 -0.1220  0.5414
  103OSM   C16S10440   0.013   1.381   8.761 -0.0514  0.0212  1.2222
  103OSM   H16S10441  -0.082   1.433   8.740 -0.3640 -1.0565 -0.1471
  103OSM   H16T10442   0.001   1.271   8.754  0.9949  0.0090 -1.1085
  103OSM   C17S10443   0.109   1.414   8.654 -0.1392 -0.1502  0.5422
  103OSM   H17S10444   0.207   1.366   8.679  0.5039  0.2776 -1.0376
  103OSM   H17T10445   0.144   1.519   8.658  2.7173 -1.0339  1.2573
  103OSM   C18S10446   0.060   1.369   8.515 -0.1432 -0.4087  0.7811
  103OSM   H18S10447   0.049   1.258   8.512 -0.8859 -0.3690  1.5721
  103OSM   H18T10448   0.142   1.400   8.448 -0.6985  0.8142  0.6485
  103OSM   H18U10449  -0.033   1.416   8.478  0.1190  0.3457  1.0718
  103OSM    C1F10450   0.155   1.852  10.326 -0.1311 -0.0746 -0.4213
  103OSM     OF10451   0.172   1.788  10.431 -0.0036  0.6321  0.3526
  103OSM    C2F10452   0.275   1.916  10.242 -0.0958  0.2925  0.6847
  103OSM    H2F10453   0.312   1.996  10.310  2.1786  0.9817 -1.2115
  103OSM    H2G10454   0.237   1.956  10.145  1.2938  0.2307  0.0982
  103OSM    C3F10455   0.381   1.815  10.213  0.4348  0.7770  0.1932
  103OSM    H3F10456   0.435   1.794  10.308 -0.9097 -0.7978  0.6624
  103OSM    H3G10457   0.445   1.878  10.147 -0.2750  0.9844 -0.3039
  103OSM    C4F10458   0.360   1.688  10.136 -0.6057 -0.4184  0.4672
  103OSM    H4F10459   0.315   1.611  10.202  1.6268 -0.4693  2.0724
  103OSM    H4G10460   0.460   1.647  10.108 -0.9216  0.2865 -1.8968
  103OSM    C5F10461   0.282   1.692  10.008 -0.7607 -0.3344 -0.6547
  103OSM    H5F10462   0.179   1.730  10.025 -1.7850 -2.1767 -2.1993
  103OSM    H5G10463   0.273   1.587   9.971 -1.8382 -1.7760  3.1994
  103OSM    C6F10464   0.344   1.774   9.890  1.0295  0.4498  0.0518
  103OSM    H6F10465   0.448   1.742   9.869  0.2695  0.1983 -4.1607
  103OSM    H6G10466   0.334   1.882   9.917 -1.6747 -0.2034  2.1283
  103OSM    C7F10467   0.264   1.747   9.756  0.2778  0.4030 -0.9819
  103OSM    H7F10468   0.159   1.774   9.779  0.0412 -1.1569 -0.0954
  103OSM    H7G10469   0.255   1.637   9.739 -0.5149  0.6222 -2.1085
  103OSM    C8F10470   0.290   1.824   9.628 -0.7370 -0.0094 -0.7044
  103OSM    H8F10471   0.289   1.933   9.651  2.5707  0.1901 -1.1110
  103OSM    H8G10472   0.209   1.794   9.558 -0.7639 -2.1889  0.1929
  103OSM    C9F10473   0.425   1.786   9.570 -0.6724  0.1264 -0.8139
  103OSM    H9F10474   0.511   1.782   9.638 -0.8132 -2.9687 -0.6504
  103OSM   C10F10475   0.451   1.758   9.436 -0.0511  0.5840 -0.0284
  103OSM   H10F10476   0.547   1.715   9.404 -0.9853 -3.8687  2.2615
  103OSM   C11F10477   0.346   1.760   9.331  0.1322  0.2559  0.7619
  103OSM   H11F10478   0.311   1.865   9.320 -0.2151  0.3159  2.1788
  103OSM   H11G10479   0.258   1.697   9.356  0.3129 -0.4250 -0.2714
  103OSM   C12F10480   0.390   1.716   9.190 -0.0997  0.1986  0.5841
  103OSM   H12F10481   0.316   1.696   9.110 -0.9624  1.4754  1.0349
  103OSM   H12G10482   0.434   1.615   9.203 -1.0401 -0.6652 -2.2576
  103OSM   C13F10483   0.508   1.810   9.138 -0.2578 -0.2571  0.3580
  103OSM   H13F10484   0.573   1.827   9.226 -1.5067 -0.1993  1.2868
  103OSM   H13G10485   0.464   1.909   9.115 -0.0518  0.3471  2.3634
  103OSM   C14F10486   0.589   1.769   9.013  0.3023  0.7769 -0.3338
  103OSM   H14F10487   0.521   1.754   8.926  1.6157 -0.3539 -1.2120
  103OSM   H14G10488   0.632   1.668   9.030  2.9051  1.9441  0.5186
  103OSM   C15F10489   0.703   1.862   8.958 -0.4998  0.1516  0.0561
  103OSM   H15F10490   0.657   1.952   8.913 -0.2702 -0.2351 -0.9675
  103OSM   H15G10491   0.756   1.809   8.877 -0.1015  1.4410 -0.5496
  103OSM   C16F10492   0.795   1.899   9.067 -0.3403 -0.6934 -0.1866
  103OSM   H16F10493   0.816   1.812   9.133 -1.6870 -0.2166  0.9351
  103OSM   H16G10494   0.732   1.974   9.120 -0.4585 -0.0384 -1.2292
  103OSM   C17F10495   0.928   1.956   9.021  0.5250  0.2251 -0.3833
  103OSM   H17F10496   1.003   1.884   8.983  0.6123  0.7449 -1.2303
  103OSM   H17G10497   0.975   2.001   9.111 -2.2655  2.0904  0.3055
  103OSM   C18F10498   0.914   2.071   8.920 -0.2734  0.1892  0.2493
  103OSM   H18F10499   0.886   2.037   8.818  0.3700 -0.4033  0.2606
  103OSM   H18G10500   1.017   2.108   8.900 -1.1249  1.7341 -1.6291
  103OSM   H18H10501   0.858   2.159   8.959  0.8646 -0.1157  2.7643
  104OSM      N10502   0.190   6.648  10.721 -1.0523 -0.0162  0.2052
  104OSM    C1510503   0.139   6.540  10.814 -0.0213 -0.4155  0.0893
  104OSM   H15A10504   0.183   6.558  10.911  0.7889  0.8095 -0.4788
  104OSM   H15B10505   0.167   6.439  10.786  0.7056 -0.4693  0.9415
  104OSM   H15C10506   0.032   6.544  10.828  0.1105  0.6863  0.9479
  104OSM    C1410507   0.090   6.640  10.613 -0.0838  0.2776  0.4057
  104OSM   H14A10508   0.098   6.538  10.578 -1.2971 -0.1896  1.4007
  104OSM   H14B10509   0.123   6.696  10.526 -0.7119  0.9681  0.6028
  104OSM   H14C10510  -0.013   6.664  10.636 -0.0014  0.9350  0.1150
  104OSM    C1310511   0.193   6.786  10.786  0.5679  1.1051  0.5599
  104OSM   H13A10512   0.269   6.789  10.862  0.8111 -1.2587  0.4997
  104OSM   H13B10513   0.095   6.806  10.827  0.4625 -0.9731  1.4551
  104OSM   H13C10514   0.224   6.857  10.710  0.9339 -1.0884 -1.4751
  104OSM    C1210515   0.323   6.607  10.661 -0.3348  0.5102 -0.1446
  104OSM   H12A10516   0.333   6.662  10.568  0.4393 -0.9869 -0.9753
  104OSM   H12B10517   0.312   6.506  10.624  0.4517 -0.1833  1.4472
  104OSM    C1110518   0.457   6.603  10.737 -0.4584 -0.2351 -0.0782
  104OSM   H11A10519   0.533   6.570  10.663 -0.0334  1.4733 -0.4344
  104OSM   H11B10520   0.459   6.525  10.817  1.8016  1.8873  2.0932
  104OSM      P10521   0.600   6.825  10.777 -0.0788 -0.2293 -0.2821
  104OSM    O1310522   0.554   6.951  10.715 -0.7260 -0.1830  0.4389
  104OSM    O1410523   0.656   6.837  10.913  0.0213  0.1077 -0.0208
  104OSM    O1110524   0.698   6.752  10.684  0.6479  0.2092  0.1896
  104OSM    O1210525   0.477   6.730  10.796  0.0044  0.4119  0.0654
  104OSM    C1S10526   0.679   6.754  10.546 -0.0738  0.0755 -0.4743
  104OSM    H1S10527   0.572   6.760  10.519  0.2857  0.9170 -1.8289
  104OSM    H1T10528   0.724   6.656  10.520  0.6580  0.0704  0.7185
  104OSM     NF10529   0.731   6.881  10.333 -0.5386  0.4797  0.3494
  104OSM    HNF10530   0.796   6.862  10.260  0.0143 -0.1515  0.9784
  104OSM    C2S10531   0.773   6.860  10.475 -0.6925  0.3238 -0.5239
  104OSM    H2S10532   0.762   6.957  10.528  0.3869 -0.3760  1.0622
  104OSM    C3S10533   0.921   6.826  10.483 -0.2636 -0.1888 -0.5809
  104OSM    H3S10534   0.952   6.738  10.423  2.0795 -1.8404  2.7504
  104OSM     O310535   0.965   6.804  10.617 -0.6739  0.0023 -0.1842
  104OSM    HO310536   0.884   6.768  10.654 -0.5848 -2.4081 -2.0848
  104OSM    C4S10537   1.001   6.936  10.416 -0.3842 -0.5577  0.2577
  104OSM    H4S10538   0.955   7.036  10.426  1.5607  0.5655 -1.3220
  104OSM    C5S10539   1.113   6.913  10.339 -0.4273  0.1356 -0.2438
  104OSM    H5S10540   1.144   6.811  10.315 -2.0952 -0.2795 -0.7644
  104OSM    C6S10541   1.181   7.033  10.278 -0.3320 -0.3360  0.4566
  104OSM    H6S10542   1.292   7.027  10.275 -0.1963  1.7556 -2.0717
  104OSM    H6T10543   1.147   7.125  10.329  2.3809  0.0757  1.6788
  104OSM    C7S10544   1.139   7.041  10.131 -0.2474 -0.4458 -0.1251
  104OSM    H7S10545   1.029   7.056  10.129 -0.1718  0.1769  0.2328
  104OSM    H7T10546   1.172   6.945  10.085 -0.6278 -0.4955 -0.2991
  104OSM    C8S10547   1.210   7.143  10.030  0.3743 -0.5980 -0.2173
  104OSM    H8S10548   1.320   7.127  10.037  0.3297 -0.6406  0.4345
  104OSM    H8T10549   1.182   7.248  10.055  0.8247 -0.3531 -0.7104
  104OSM    C9S10550   1.171   7.110   9.881  0.0728 -0.3203  0.1967
  104OSM    H9S10551   1.064   7.138   9.871  0.0814  0.3363  1.6595
  104OSM    H9T10552   1.183   7.001   9.868 -0.0379 -0.2408 -0.6110
  104OSM   C10S10553   1.237   7.213   9.787  0.5083 -0.2065 -0.2014
  104OSM   H10S10554   1.339   7.176   9.766  0.4860 -0.1194 -0.4754
  104OSM   H10T10555   1.229   7.314   9.833 -0.7543  0.1888 -1.2356
  104OSM   C11S10556   1.161   7.215   9.653  0.4826 -0.7082  0.5388
  104OSM   H11S10557   1.061   7.252   9.685  0.3416 -0.9135  0.3395
  104OSM   H11T10558   1.146   7.114   9.609  1.8305 -0.9673  0.6213
  104OSM   C12S10559   1.232   7.286   9.540  0.0954 -0.5589 -0.3941
  104OSM   H12S10560   1.324   7.233   9.505  1.8607  3.1709 -1.8886
  104OSM   H12T10561   1.265   7.385   9.575 -0.0502 -1.0957  1.3405
  104OSM   C13S10562   1.145   7.317   9.416  0.0932  0.3197 -0.3343
  104OSM   H13S10563   1.051   7.366   9.447 -1.2795 -1.8823 -0.7641
  104OSM   H13T10564   1.116   7.215   9.382  0.8231 -0.7488  2.0012
  104OSM   C14S10565   1.225   7.406   9.319 -0.7854 -0.2085 -0.5528
  104OSM   H14S10566   1.314   7.351   9.281 -0.3943 -0.4744  0.6967
  104OSM   H14T10567   1.250   7.509   9.352 -0.9675 -0.5199  0.5918
  104OSM   C15S10568   1.143   7.420   9.189  0.8863 -0.9263 -0.3566
  104OSM   H15S10569   1.037   7.444   9.211  1.0561 -0.1074 -0.3846
  104OSM   H15T10570   1.149   7.325   9.133 -1.6276 -1.2319 -0.2216
  104OSM   C16S10571   1.194   7.534   9.108  0.0004 -0.3360  0.6971
  104OSM   H16S10572   1.300   7.512   9.083 -0.4101  1.6099 -3.7605
  104OSM   H16T10573   1.196   7.633   9.157  4.9116  1.7760 -2.9206
  104OSM   C17S10574   1.118   7.553   8.975 -0.1414  0.4374  0.0934
  104OSM   H17S10575   1.010   7.570   8.996 -0.5881 -0.2338 -1.5326
  104OSM   H17T10576   1.127   7.463   8.909 -0.3582 -0.5020  1.3082
  104OSM   C18S10577   1.167   7.676   8.892  0.4138  0.4687 -0.7612
  104OSM   H18S10578   1.275   7.658   8.879  0.5959 -0.4985  1.6290
  104OSM   H18T10579   1.162   7.768   8.955  1.9501 -0.0627  0.1958
  104OSM   H18U10580   1.103   7.687   8.802  0.0522  0.8747 -0.4611
  104OSM    C1F10581   0.606   6.917  10.295 -0.1349  0.1521 -0.8985
  104OSM     OF10582   0.540   6.984  10.373 -0.5946  0.3971  0.6560
  104OSM    C2F10583   0.569   6.879  10.156  0.4093 -0.0298 -0.1120
  104OSM    H2F10584   0.575   6.770  10.139  0.9658 -0.0923  0.4476
  104OSM    H2G10585   0.641   6.925  10.085  0.1575  0.1601 -0.2473
  104OSM    C3F10586   0.430   6.947  10.126 -0.5672  0.3423  0.0305
  104OSM    H3F10587   0.430   7.050  10.167  0.5463  0.8991 -1.2814
  104OSM    H3G10588   0.349   6.896  10.183 -0.1634  0.3689  0.6333
  104OSM    C4F10589   0.405   6.951   9.974 -0.2810  0.1660  0.5943
  104OSM    H4F10590   0.358   6.856   9.942 -0.2465  0.3788 -0.0991
  104OSM    H4G10591   0.503   6.956   9.922 -0.9755 -0.6789 -0.8462
  104OSM    C5F10592   0.329   7.072   9.925  0.1226  0.0745  0.3677
  104OSM    H5F10593   0.390   7.159   9.956  0.8486 -0.8768  1.6882
  104OSM    H5G10594   0.238   7.082   9.988 -0.7489  1.0047 -0.9799
  104OSM    C6F10595   0.285   7.072   9.773 -0.4471  0.6576 -0.2089
  104OSM    H6F10596   0.208   7.148   9.751 -1.4799 -1.1979 -3.8143
  104OSM    H6G10597   0.261   6.967   9.744  1.7129 -0.5015  1.8798
  104OSM    C7F10598   0.409   7.120   9.682  0.7112  0.0153  0.3548
  104OSM    H7F10599   0.494   7.049   9.693 -0.1700 -1.4973 -1.7441
  104OSM    H7G10600   0.445   7.224   9.694  3.3152 -0.3675 -2.7828
  104OSM    C8F10601   0.379   7.098   9.529 -0.4970  0.0912 -0.4907
  104OSM    H8F10602   0.452   7.166   9.482  1.3235 -0.6656  1.1071
  104OSM    H8G10603   0.280   7.139   9.499 -0.7130 -1.3239 -1.8562
  104OSM    C9F10604   0.391   6.955   9.473 -0.3585 -0.4797 -0.4176
  104OSM    H9F10605   0.373   6.865   9.534  0.7455 -2.9193 -3.4373
  104OSM   C10F10606   0.427   6.938   9.345  0.1432  0.2929  0.1644
  104OSM   H10F10607   0.453   6.837   9.310  2.8800  1.0883 -0.3395
  104OSM   C11F10608   0.463   7.045   9.242  0.4816  0.3918  0.4984
  104OSM   H11F10609   0.571   7.042   9.216  0.3803 -3.3710 -0.0838
  104OSM   H11G10610   0.447   7.148   9.279 -0.4404  0.4683 -0.0749
  104OSM   C12F10611   0.375   7.023   9.115 -0.2583 -0.2775 -0.1721
  104OSM   H12F10612   0.267   7.013   9.140 -0.3903  0.1925 -0.5245
  104OSM   H12G10613   0.409   6.926   9.073 -0.1450 -0.5478  0.5443
  104OSM   C13F10614   0.391   7.138   9.011 -0.0256  0.2721 -0.0203
  104OSM   H13F10615   0.501   7.144   9.001 -0.0352  4.2306  0.8148
  104OSM   H13G10616   0.360   7.232   9.060 -2.1612 -0.7443  0.6999
  104OSM   C14F10617   0.307   7.122   8.883 -0.1894 -0.3110 -0.4756
  104OSM   H14F10618   0.198   7.112   8.906 -0.5540  1.5566 -1.1931
  104OSM   H14G10619   0.332   7.039   8.815  1.1047  0.2263 -0.6812
  104OSM   C15F10620   0.323   7.246   8.799 -0.0651 -0.9788 -0.1654
  104OSM   H15F10621   0.427   7.253   8.762 -0.6490  1.8315 -1.4950
  104OSM   H15G10622   0.299   7.336   8.859  1.6935 -1.3732  1.2262
  104OSM   C16F10623   0.228   7.249   8.674 -0.1157  0.0179  0.7061
  104OSM   H16F10624   0.127   7.215   8.705  0.7558 -3.0806  0.5275
  104OSM   H16G10625   0.260   7.167   8.605 -2.5495 -1.8654  1.6617
  104OSM   C17F10626   0.230   7.384   8.608 -0.5459  0.5710 -0.7981
  104OSM   H17F10627   0.330   7.425   8.581 -0.3768  0.2043 -0.7331
  104OSM   H17G10628   0.200   7.456   8.688 -2.7950  0.3932 -1.4017
  104OSM   C18F10629   0.128   7.409   8.500 -0.3280 -0.3716  0.0079
  104OSM   H18F10630   0.130   7.336   8.416 -2.8181 -0.1058 -0.3767
  104OSM   H18G10631   0.154   7.508   8.457  0.0767  0.7424  2.6403
  104OSM   H18H10632   0.027   7.407   8.547 -0.6454 -2.7779 -0.6486
  105OSM      N10633   5.456   2.145  11.124  0.2304 -0.1310  0.0140
  105OSM    C1510634   5.460   2.122  11.273  1.0874 -0.0401  0.0309
  105OSM   H15A10635   5.472   2.207  11.339 -2.7210  0.9029 -0.2695
  105OSM   H15B10636   5.544   2.058  11.299  1.4572  1.0342  1.5798
  105OSM   H15C10637   5.366   2.077  11.301  1.8227 -0.1363  2.6960
  105OSM    C1410638   5.345   2.237  11.091 -0.1247  0.8910  0.1206
  105OSM   H14A10639   5.334   2.240  10.984 -1.4851  3.2517  0.2659
  105OSM   H14B10640   5.367   2.341  11.110 -0.9566  1.2202 -0.6323
  105OSM   H14C10641   5.251   2.205  11.133  0.1057 -3.1174 -1.9323
  105OSM    C1310642   5.592   2.212  11.098  0.4484  0.6458  0.0722
  105OSM   H13A10643   5.619   2.200  10.994 -1.2874  1.0076 -0.4680
  105OSM   H13B10644   5.673   2.161  11.146  1.5682 -0.0579 -2.3972
  105OSM   H13C10645   5.578   2.316  11.125 -2.5903  0.3998 -0.1439
  105OSM    C1210646   5.445   2.002  11.068 -0.3572  0.1417  0.0694
  105OSM   H12A10647   5.352   1.961  11.105 -0.3710  0.7089  0.6935
  105OSM   H12B10648   5.525   1.947  11.115 -0.2503  1.1536  1.1077
  105OSM    C1110649   5.453   1.977  10.916  0.2614 -0.0352  0.4950
  105OSM   H11A10650   5.363   2.009  10.859  1.8388 -1.0633 -2.8637
  105OSM   H11B10651   5.439   1.869  10.893 -0.2252 -0.2799  1.8778
  105OSM      P10652   5.686   1.943  10.806 -0.3305  0.3899  0.1071
  105OSM    O1310653   5.800   2.029  10.757  0.0810  0.3304 -0.3240
  105OSM    O1410654   5.722   1.857  10.924  0.0037  0.8911  0.2250
  105OSM    O1110655   5.649   1.844  10.683 -0.1290 -0.6854  0.0097
  105OSM    O1210656   5.563   2.033  10.849  0.6580 -0.2383 -0.1254
  105OSM    C1S10657   5.561   1.878  10.575  0.4187  0.1409  0.8180
  105OSM    H1S10658   5.493   1.964  10.593  0.8873  0.3817  1.4490
  105OSM    H1T10659   5.497   1.791  10.549  1.9661 -0.7706 -0.0972
  105OSM     NF10660   5.558   1.968  10.355 -0.3721  0.3432 -0.0709
  105OSM    HNF10661   5.528   1.918  10.275  1.6379  1.0624 -1.3783
  105OSM    C2S10662   5.646   1.900  10.448  0.2887  0.0889  0.7190
  105OSM    H2S10663   5.732   1.964  10.475  0.0483  1.1806 -0.9497
  105OSM    C3S10664   5.702   1.764  10.403  0.3232 -0.0322  0.1011
  105OSM    H3S10665   5.619   1.691  10.389  0.3907 -0.8106  3.0721
  105OSM     O310666   5.778   1.701  10.502  0.2308 -0.4937 -0.0057
  105OSM    HO310667   5.747   1.734  10.587  2.0123  1.0057  0.1219
  105OSM    C4S10668   5.772   1.787  10.268  0.4021 -0.0842 -0.5688
  105OSM    H4S10669   5.708   1.751  10.187  0.3316  0.1412 -0.6145
  105OSM    C5S10670   5.899   1.824  10.242 -0.0345  0.5292  1.0379
  105OSM    H5S10671   5.973   1.845  10.322  0.6486  3.1623 -0.1630
  105OSM    C6S10672   5.961   1.840  10.105 -0.2795 -0.1766 -0.0267
  105OSM    H6S10673   6.052   1.777  10.102  0.8541  0.9644  4.1100
  105OSM    H6T10674   6.003   1.942  10.089  0.7418 -0.5546  0.2048
  105OSM    C7S10675   5.868   1.790   9.988  0.2313 -0.1749 -0.0681
  105OSM    H7S10676   5.759   1.811   9.990  0.2462  0.0336 -0.8965
  105OSM    H7T10677   5.869   1.679   9.989  1.7645 -0.3379 -3.5384
  105OSM    C8S10678   5.941   1.815   9.855  0.2762 -0.1126  0.4169
  105OSM    H8S10679   6.049   1.791   9.872  0.6069  1.0017 -0.0281
  105OSM    H8T10680   5.941   1.923   9.829  0.0939  0.1700  1.5618
  105OSM    C9S10681   5.884   1.731   9.740 -0.3673 -0.6525 -0.5324
  105OSM    H9S10682   5.774   1.741   9.736 -0.4415 -0.8798  0.6593
  105OSM    H9T10683   5.905   1.622   9.745 -0.4422 -0.6411  0.1236
  105OSM   C10S10684   5.923   1.783   9.607  0.6841  0.5215 -0.1967
  105OSM   H10S10685   6.033   1.774   9.609  0.8076  1.6649 -0.9913
  105OSM   H10T10686   5.885   1.886   9.594  3.6859  1.9310  1.4216
  105OSM   C11S10687   5.887   1.695   9.488  0.1652 -1.2134  0.1601
  105OSM   H11S10688   5.776   1.691   9.481  0.1753 -0.6199 -0.3908
  105OSM   H11T10689   5.934   1.596   9.505  0.5416 -0.6419  2.9043
  105OSM   C12S10690   5.937   1.751   9.354  0.1227 -0.1042  0.1290
  105OSM   H12S10691   6.046   1.766   9.372 -0.0478 -0.7274  1.9370
  105OSM   H12T10692   5.877   1.843   9.338 -1.6294 -1.3743 -0.9586
  105OSM   C13S10693   5.908   1.650   9.242 -0.0464 -0.7095  0.3836
  105OSM   H13S10694   5.805   1.609   9.235 -0.3090  0.1706 -1.6926
  105OSM   H13T10695   5.969   1.557   9.251  0.5698 -0.3731 -0.2173
  105OSM   C14S10696   5.929   1.723   9.108  0.0546  0.5829 -0.1969
  105OSM   H14S10697   6.004   1.800   9.137  0.7049 -0.1691  0.1486
  105OSM   H14T10698   5.834   1.773   9.082 -1.4907 -1.9602  0.2221
  105OSM   C15S10699   5.988   1.629   9.001  0.0528  0.4481 -0.1779
  105OSM   H15S10700   5.912   1.553   8.974  0.5175 -0.6530  1.4584
  105OSM   H15T10701   6.074   1.571   9.040  0.6829 -0.3944 -2.6495
  105OSM   C16S10702   6.037   1.708   8.880 -0.5477  0.6059  1.0354
  105OSM   H16S10703   6.138   1.753   8.889 -0.1803  0.2949 -0.9709
  105OSM   H16T10704   5.969   1.794   8.858  0.3594  1.2269  0.6159
  105OSM   C17S10705   6.042   1.623   8.749  0.4429  0.5625 -0.3268
  105OSM   H17S10706   5.941   1.576   8.746 -0.1992  1.8925 -0.3939
  105OSM   H17T10707   6.122   1.546   8.751  0.2636  0.3759 -0.3922
  105OSM   C18S10708   6.076   1.697   8.624 -0.0419  0.4384 -0.0962
  105OSM   H18S10709   6.011   1.787   8.617 -0.6880  0.1228  1.5183
  105OSM   H18T10710   6.054   1.644   8.529 -0.7613  3.8027 -1.9908
  105OSM   H18U10711   6.181   1.731   8.616 -0.6662  2.1635 -2.0005
  105OSM    C1F10712   5.515   2.090  10.376 -0.5127 -0.1082 -0.1155
  105OSM     OF10713   5.563   2.167  10.456 -0.6030 -0.0774 -0.5951
  105OSM    C2F10714   5.391   2.132  10.298 -0.4235 -0.1795  0.7659
  105OSM    H2F10715   5.317   2.150  10.379 -0.3310 -0.2925  0.8756
  105OSM    H2G10716   5.352   2.056  10.227  0.1978  0.2348 -0.0419
  105OSM    C3F10717   5.427   2.268  10.233 -0.1981 -0.0844 -0.4751
  105OSM    H3F10718   5.499   2.262  10.149  0.2175 -1.1575 -0.0602
  105OSM    H3G10719   5.462   2.334  10.315  0.8406 -3.9510  2.4590
  105OSM    C4F10720   5.302   2.341  10.164  0.3569  0.3858 -0.4570
  105OSM    H4F10721   5.351   2.436  10.136  0.0752  0.3977 -0.9137
  105OSM    H4G10722   5.216   2.357  10.232  0.1031 -1.0401 -0.3991
  105OSM    C5F10723   5.262   2.256  10.035  0.0982 -0.2661  0.2097
  105OSM    H5F10724   5.179   2.312   9.986  0.0483  0.3513  0.9761
  105OSM    H5G10725   5.222   2.158  10.069 -2.0396  0.5535  0.2078
  105OSM    C6F10726   5.365   2.254   9.924 -0.5971  0.6522  0.0792
  105OSM    H6F10727   5.444   2.180   9.945 -0.4804  1.0612  1.1327
  105OSM    H6G10728   5.408   2.355   9.907  0.9625 -0.5600 -4.5604
  105OSM    C7F10729   5.299   2.219   9.785 -0.2286 -0.0861 -0.4398
  105OSM    H7F10730   5.217   2.293   9.784  2.3498  3.1075  1.3993
  105OSM    H7G10731   5.269   2.113   9.802 -0.5997  0.1650  0.5710
  105OSM    C8F10732   5.391   2.228   9.662 -0.3776  0.0138 -0.2544
  105OSM    H8F10733   5.469   2.149   9.674 -0.4815  0.2275  2.4688
  105OSM    H8G10734   5.439   2.328   9.664 -0.2806 -0.0322 -0.2581
  105OSM    C9F10735   5.293   2.212   9.545  0.3704  0.4412  1.0420
  105OSM    H9F10736   5.224   2.126   9.559  0.1001  0.3702 -0.5170
  105OSM   C10F10737   5.290   2.282   9.430 -0.2740  0.2510 -0.1128
  105OSM   H10F10738   5.210   2.263   9.357 -1.1419  1.0877  0.5869
  105OSM   C11F10739   5.386   2.391   9.392 -0.2306 -0.2384  0.2778
  105OSM   H11F10740   5.488   2.362   9.428  0.1251 -0.2304 -0.7000
  105OSM   H11G10741   5.370   2.487   9.444  0.3321 -0.5942  1.1465
  105OSM   C12F10742   5.413   2.430   9.243  0.2715  0.3839 -0.2490
  105OSM   H12F10743   5.449   2.338   9.191 -0.3852  0.0294 -0.0952
  105OSM   H12G10744   5.489   2.511   9.241  0.3909  0.4412  2.6729
  105OSM   C13F10745   5.292   2.492   9.174  0.0755 -0.1089  0.0881
  105OSM   H13F10746   5.251   2.588   9.213 -1.7864 -1.2276  1.0111
  105OSM   H13G10747   5.214   2.415   9.192  1.5213 -1.6236  0.1325
  105OSM   C14F10748   5.320   2.513   9.020 -0.9975 -0.3750 -0.5431
  105OSM   H14F10749   5.315   2.412   8.974  4.6171 -2.3640  2.2740
  105OSM   H14G10750   5.423   2.550   9.004 -1.4215  1.4249  0.5624
  105OSM   C15F10751   5.228   2.616   8.958 -0.0709  0.2273  0.8644
  105OSM   H15F10752   5.207   2.694   9.035  1.3589 -0.2130  1.7473
  105OSM   H15G10753   5.133   2.560   8.945 -0.2571  0.4226  1.3322
  105OSM   C16F10754   5.274   2.691   8.834 -0.5846 -0.0772 -0.5154
  105OSM   H16F10755   5.360   2.752   8.868 -2.2981  0.7549  2.7165
  105OSM   H16G10756   5.193   2.756   8.793  1.3390  2.3524 -0.6809
  105OSM   C17F10757   5.319   2.601   8.713  0.6147 -0.2015 -0.6503
  105OSM   H17F10758   5.236   2.528   8.710 -0.1486  0.6306 -3.3616
  105OSM   H17G10759   5.405   2.539   8.743  0.5193  0.6380  1.5220
  105OSM   C18F10760   5.349   2.664   8.583 -0.2023 -0.5909 -0.8956
  105OSM   H18F10761   5.373   2.587   8.506 -0.3234 -1.2154 -0.3207
  105OSM   H18G10762   5.441   2.727   8.580 -1.5535  1.4769 -0.9751
  105OSM   H18H10763   5.270   2.739   8.560  1.2208  0.9758 -0.9300
  106OSM      N10764   4.275   0.704  10.648 -0.4172  0.2913  0.0183
  106OSM    C1510765   4.228   0.566  10.646  0.7162  0.5861 -0.3146
  106OSM   H15A10766   4.259   0.530  10.549 -0.1036 -0.7486 -0.1049
  106OSM   H15B10767   4.121   0.550  10.651  0.9645 -1.1701  0.0965
  106OSM   H15C10768   4.280   0.494  10.706  0.0441  0.8114  0.5540
  106OSM    C1410769   4.211   0.767  10.769  0.6922  0.7159 -0.1730
  106OSM   H14A10770   4.212   0.875  10.761  1.3264  0.7219 -0.0967
  106OSM   H14B10771   4.256   0.726  10.858  0.2268 -2.3452 -1.2165
  106OSM   H14C10772   4.107   0.741  10.776  1.1608 -1.0120  0.9805
  106OSM    C1310773   4.420   0.707  10.660  0.1797  0.7071 -0.2567
  106OSM   H13A10774   4.459   0.638  10.734 -0.7036 -1.6093 -1.8287
  106OSM   H13B10775   4.463   0.803  10.683  2.3937 -0.2946  0.0901
  106OSM   H13C10776   4.451   0.674  10.562 -1.3926 -2.0952  0.0643
  106OSM    C1210777   4.220   0.770  10.519  0.0744 -0.1068  0.0538
  106OSM   H12A10778   4.115   0.787  10.533  0.3609  0.4825  1.6416
  106OSM   H12B10779   4.220   0.700  10.437 -1.2167  1.5361 -1.4300
  106OSM    C1110780   4.294   0.905  10.483 -0.1985  0.0073  0.0764
  106OSM   H11A10781   4.238   0.941  10.394  1.9335 -0.1931 -1.4322
  106OSM   H11B10782   4.391   0.874  10.438 -0.7997  0.7692 -1.8523
  106OSM      P10783   4.187   1.100  10.617 -0.0604 -0.0785 -0.0191
  106OSM    O1310784   4.095   1.117  10.503  0.0078  0.1761 -0.0975
  106OSM    O1410785   4.135   1.071  10.750  0.8739 -0.2611  0.2980
  106OSM    O1110786   4.268   1.238  10.633 -0.1538 -0.0703 -0.0379
  106OSM    O1210787   4.306   0.997  10.585  0.2654 -0.3724 -0.2615
  106OSM    C1S10788   4.364   1.282  10.533 -0.3107 -0.4532  0.4390
  106OSM    H1S10789   4.394   1.189  10.480 -1.2942 -1.2545  1.2385
  106OSM    H1T10790   4.454   1.314  10.588 -0.6540 -1.7025  1.7926
  106OSM     NF10791   4.393   1.429  10.331 -0.2835 -0.2033  0.7101
  106OSM    HNF10792   4.454   1.505  10.353  1.1308 -0.8700 -0.7248
  106OSM    C2S10793   4.299   1.389  10.435  0.2120 -0.6605  0.4918
  106OSM    H2S10794   4.205   1.344  10.398 -1.7775  2.3058  1.5246
  106OSM    C3S10795   4.257   1.517  10.515 -0.4388  0.1704  0.4513
  106OSM    H3S10796   4.339   1.583  10.549 -3.2347  3.4482  1.3286
  106OSM     O310797   4.179   1.502  10.636  0.1679 -0.5974 -0.4747
  106OSM    HO310798   4.180   1.408  10.656 -0.7758 -0.3444  0.8778
  106OSM    C4S10799   4.177   1.612  10.427  0.9431  0.4342  0.2538
  106OSM    H4S10800   4.085   1.566  10.388  0.3790  1.7937 -0.0648
  106OSM    C5S10801   4.211   1.738  10.390  0.3871 -0.1837 -0.3803
  106OSM    H5S10802   4.312   1.778  10.410  0.0815  0.4331 -0.0629
  106OSM    C6S10803   4.122   1.815  10.294  0.0172 -0.0217  0.1831
  106OSM    H6S10804   4.086   1.911  10.337  1.4282  0.0990  1.1371
  106OSM    H6T10805   4.024   1.763  10.282  0.3183 -0.3916 -0.7744
  106OSM    C7S10806   4.179   1.836  10.156 -0.9302  0.1197 -0.5698
  106OSM    H7S10807   4.200   1.743  10.100 -2.2953 -0.7158  0.2468
  106OSM    H7T10808   4.276   1.887  10.172  1.0759 -3.0581 -1.8280
  106OSM    C8S10809   4.080   1.926  10.064 -0.3231  0.8790  0.4620
  106OSM    H8S10810   4.145   1.968   9.985  0.3948  2.9423  2.0584
  106OSM    H8T10811   4.046   2.016  10.119 -0.5395  1.0211  0.0986
  106OSM    C9S10812   3.962   1.837  10.023 -0.1819 -0.0125  0.2636
  106OSM    H9S10813   3.874   1.856  10.088  0.6219 -0.2432  1.4444
  106OSM    H9T10814   3.995   1.731  10.023 -1.2757 -0.3601 -0.0432
  106OSM   C10S10815   3.928   1.862   9.875  0.4593  0.1445  0.2427
  106OSM   H10S10816   4.008   1.843   9.800  0.8639  3.0111 -0.1772
  106OSM   H10T10817   3.913   1.971   9.858  0.0736  0.0335 -0.1513
  106OSM   C11S10818   3.802   1.781   9.833 -0.4302 -1.0286 -0.6904
  106OSM   H11S10819   3.719   1.804   9.903  1.9374  0.1646  1.9480
  106OSM   H11T10820   3.833   1.677   9.858  0.4990 -0.9369 -1.4404
  106OSM   C12S10821   3.758   1.799   9.687 -0.1616 -0.5200 -0.0354
  106OSM   H12S10822   3.831   1.734   9.634 -0.1311 -0.0274 -0.6115
  106OSM   H12T10823   3.746   1.904   9.655  0.5076 -0.1950  0.7338
  106OSM   C13S10824   3.616   1.739   9.657  0.3297  0.3950 -0.1209
  106OSM   H13S10825   3.549   1.816   9.701 -1.1483 -1.0730  0.3332
  106OSM   H13T10826   3.591   1.638   9.695 -0.9043  0.9154  0.5045
  106OSM   C14S10827   3.598   1.728   9.501 -0.0506 -0.2221  0.1211
  106OSM   H14S10828   3.660   1.653   9.447  1.0538  0.3781  0.5115
  106OSM   H14T10829   3.610   1.828   9.453  1.2328  1.0314  2.8391
  106OSM   C15S10830   3.461   1.669   9.467  0.0288 -0.1731 -0.5879
  106OSM   H15S10831   3.381   1.730   9.514  0.0415 -1.9260  1.8804
  106OSM   H15T10832   3.448   1.565   9.503  0.5969  0.4366  1.5046
  106OSM   C16S10833   3.454   1.660   9.311  0.0601 -0.3525 -0.0267
  106OSM   H16S10834   3.535   1.594   9.275  0.4385  1.0162 -1.8221
  106OSM   H16T10835   3.480   1.759   9.269  2.0059 -1.0800 -0.6544
  106OSM   C17S10836   3.319   1.608   9.265 -0.8383  0.3449  0.0608
  106OSM   H17S10837   3.248   1.693   9.266 -0.4341  0.6776  0.6821
  106OSM   H17T10838   3.284   1.531   9.337  1.6766  0.3311  1.3709
  106OSM   C18S10839   3.318   1.559   9.117  0.1269  0.2849 -0.5062
  106OSM   H18S10840   3.216   1.570   9.075 -0.0190  1.7787  0.1806
  106OSM   H18T10841   3.342   1.451   9.115 -3.2551 -0.5614 -2.4065
  106OSM   H18U10842   3.392   1.601   9.046 -1.6946 -0.0755 -2.7363
  106OSM    C1F10843   4.413   1.349  10.226  0.8236 -0.0640  0.0793
  106OSM     OF10844   4.347   1.245  10.213  0.2884  0.1557 -0.0665
  106OSM    C2F10845   4.529   1.378  10.134 -0.5254  0.1143 -0.2002
  106OSM    H2F10846   4.623   1.330  10.167  0.1482  0.7186 -1.1802
  106OSM    H2G10847   4.559   1.485  10.134 -0.5817  0.1641 -1.8923
  106OSM    C3F10848   4.500   1.331   9.989 -0.1031 -0.7248 -0.1120
  106OSM    H3F10849   4.418   1.397   9.952 -0.2029 -0.2251  0.9863
  106OSM    H3G10850   4.461   1.228   9.986  1.7091 -1.4498  0.0608
  106OSM    C4F10851   4.619   1.344   9.894 -0.3252 -0.0516 -0.4841
  106OSM    H4F10852   4.689   1.261   9.918 -1.8729 -1.5985 -1.1347
  106OSM    H4G10853   4.681   1.434   9.916  1.6733 -1.6556  0.8310
  106OSM    C5F10854   4.581   1.328   9.750 -0.2786  0.7308  0.4708
  106OSM    H5F10855   4.520   1.417   9.724  0.6434  2.2820  3.1710
  106OSM    H5G10856   4.520   1.235   9.744  2.3685 -1.2233  1.9275
  106OSM    C6F10857   4.698   1.324   9.667 -0.0434 -0.0797  0.2732
  106OSM    H6F10858   4.763   1.234   9.666  2.7429  1.8199 -0.0543
  106OSM    H6G10859   4.766   1.408   9.693  0.8858 -1.4103  2.3187
  106OSM    C7F10860   4.647   1.335   9.521 -0.3167 -0.3093 -0.6658
  106OSM    H7F10861   4.640   1.440   9.487  1.2102  0.4232  1.0943
  106OSM    H7G10862   4.550   1.282   9.507  0.5092 -1.8929 -0.6463
  106OSM    C8F10863   4.733   1.269   9.414 -0.4352  0.7768  0.4034
  106OSM    H8F10864   4.746   1.162   9.439  0.7634  1.0979  1.2586
  106OSM    H8G10865   4.840   1.299   9.420  0.1588 -1.3078  1.2131
  106OSM    C9F10866   4.674   1.276   9.275  0.1555 -0.3651  0.2591
  106OSM    H9F10867   4.598   1.201   9.250  0.9060 -0.8361 -0.6539
  106OSM   C10F10868   4.721   1.359   9.173  0.0139  0.4301 -0.5776
  106OSM   H10F10869   4.670   1.353   9.076 -1.1440 -1.6533  0.0864
  106OSM   C11F10870   4.833   1.461   9.177  1.0797  0.0219  0.0435
  106OSM   H11F10871   4.876   1.459   9.280  0.1152  0.1378  0.4594
  106OSM   H11G10872   4.786   1.561   9.168  0.9798  0.2698  2.4566
  106OSM   C12F10873   4.948   1.445   9.080  0.2049  0.0063  0.5334
  106OSM   H12F10874   4.922   1.423   8.974 -0.9966 -0.4727  0.9150
  106OSM   H12G10875   5.003   1.356   9.116  0.7541  0.1031 -0.0339
  106OSM   C13F10876   5.033   1.568   9.075 -0.2493 -0.1616 -0.2240
  106OSM   H13F10877   5.058   1.611   9.174 -0.0067  0.8420 -0.7030
  106OSM   H13G10878   4.959   1.639   9.031 -1.2707 -0.3925  1.0626
  106OSM   C14F10879   5.153   1.562   8.981  0.1795 -0.4409  0.5121
  106OSM   H14F10880   5.204   1.471   9.019 -2.1291 -2.3816 -0.7340
  106OSM   H14G10881   5.210   1.657   8.990 -1.1449  0.5127 -0.7260
  106OSM   C15F10882   5.119   1.541   8.833 -0.0318 -0.2700 -0.1251
  106OSM   H15F10883   5.032   1.609   8.817 -1.7994 -2.1735  0.9272
  106OSM   H15G10884   5.080   1.438   8.815 -2.5120  0.7360 -1.0112
  106OSM   C16F10885   5.237   1.572   8.740  0.7413 -0.1790 -0.4287
  106OSM   H16F10886   5.328   1.545   8.797  0.0255 -0.3767  0.6368
  106OSM   H16G10887   5.243   1.682   8.726 -0.3030  0.3934  2.8189
  106OSM   C17F10888   5.230   1.493   8.601  0.6909 -0.7543  0.2883
  106OSM   H17F10889   5.273   1.396   8.633  0.5708  0.0061  2.9870
  106OSM   H17G10890   5.298   1.555   8.539 -0.5100  2.1040  1.6132
  106OSM   C18F10891   5.091   1.488   8.541 -0.1431  0.2421 -0.6707
  106OSM   H18F10892   5.042   1.410   8.604  0.3504  1.0825  0.7886
  106OSM   H18G10893   5.077   1.450   8.438 -0.4782 -0.4118 -0.3980
  106OSM   H18H10894   5.037   1.583   8.558  1.7150  1.3920 -0.9574
  107OSM      N10895   5.119   5.929  10.732  0.2210 -0.0648 -0.0767
  107OSM    C1510896   4.995   5.981  10.668  0.1671 -0.0857 -0.5140
  107OSM   H15A10897   4.964   5.937  10.574 -0.8677  0.9856 -0.7000
  107OSM   H15B10898   5.008   6.084  10.640  0.7681 -0.7766 -3.0953
  107OSM   H15C10899   4.912   5.988  10.737  0.7025 -0.2473  0.1590
  107OSM    C1410900   5.090   5.795  10.789 -0.4686  0.3481  0.6571
  107OSM   H14A10901   5.099   5.715  10.716  0.4558  1.0617 -0.0291
  107OSM   H14B10902   4.986   5.785  10.814 -1.7786 -0.8938 -4.2013
  107OSM   H14C10903   5.165   5.773  10.864 -1.2549  0.9451  1.6325
  107OSM    C1310904   5.230   5.935  10.634  0.2030 -0.1314  0.3094
  107OSM   H13A10905   5.242   6.036  10.598 -0.8408  1.0084  2.8694
  107OSM   H13B10906   5.226   5.867  10.550 -0.5044  1.2389 -0.8004
  107OSM   H13C10907   5.316   5.924  10.699 -0.6035  0.4916  1.5251
  107OSM    C1210908   5.159   6.020  10.850 -0.3495 -0.6515 -0.3993
  107OSM   H12A10909   5.228   6.093  10.809  1.2752 -0.8048  1.8770
  107OSM   H12B10910   5.207   5.962  10.927 -2.0365  0.7346  1.8526
  107OSM    C1110911   5.052   6.091  10.936  0.4949 -0.0837  0.6569
  107OSM   H11A10912   5.089   6.084  11.041  2.9858 -0.6426 -0.1907
  107OSM   H11B10913   4.955   6.036  10.938 -1.2548  2.7275 -0.6782
  107OSM      P10914   4.900   6.298  10.891 -0.0018  0.1489 -0.0289
  107OSM    O1310915   4.791   6.210  10.837 -0.2490  0.4857  0.2888
  107OSM    O1410916   4.883   6.352  11.025 -0.0446 -0.3050 -0.2450
  107OSM    O1110917   4.905   6.423  10.802 -0.6882  0.0599 -0.4882
  107OSM    O1210918   5.036   6.220  10.880  0.0210  0.0832 -0.0795
  107OSM    C1S10919   4.990   6.428  10.682  0.4748 -0.3593 -0.0301
  107OSM    H1S10920   5.079   6.363  10.690  1.0955  0.6627  1.8282
  107OSM    H1T10921   5.011   6.536  10.665 -0.6369  0.1927  1.8024
  107OSM     NF10922   4.999   6.382  10.443  0.2408  0.4404  0.0198
  107OSM    HNF10923   4.980   6.451  10.374  0.1888  2.5068  2.0115
  107OSM    C2S10924   4.909   6.376  10.556 -0.0601  0.1785 -0.5781
  107OSM    H2S10925   4.880   6.271  10.573  1.7026 -0.2542 -0.0297
  107OSM    C3S10926   4.781   6.458  10.530 -0.2294 -0.2098  0.2496
  107OSM    H3S10927   4.818   6.563  10.525 -1.8825  0.3933 -0.3322
  107OSM     O310928   4.677   6.456  10.636 -0.0963  0.6835 -0.1645
  107OSM    HO310929   4.725   6.439  10.718 -0.9635  1.7384  0.5957
  107OSM    C4S10930   4.717   6.418  10.393  0.3892  0.1882 -0.0318
  107OSM    H4S10931   4.725   6.495  10.315 -0.4466 -0.6991 -1.0184
  107OSM    C5S10932   4.666   6.302  10.357  0.0224  0.5192 -0.8648
  107OSM    H5S10933   4.669   6.214  10.423 -2.6728 -0.3877 -1.7912
  107OSM    C6S10934   4.618   6.277  10.217  0.4323 -0.2779  0.4221
  107OSM    H6S10935   4.591   6.376  10.176  0.0338 -0.0094  1.3076
  107OSM    H6T10936   4.517   6.231  10.212 -1.6383  3.8447 -0.2640
  107OSM    C7S10937   4.718   6.233  10.105  0.1271  0.6881 -0.5367
  107OSM    H7S10938   4.751   6.132  10.137 -1.3907 -0.0594 -1.2379
  107OSM    H7T10939   4.806   6.301  10.105 -0.8092  1.9527 -1.4113
  107OSM    C8S10940   4.675   6.225   9.963  0.4549  0.1949 -0.4650
  107OSM    H8S10941   4.615   6.314   9.935  0.0225 -0.2786 -1.0714
  107OSM    H8T10942   4.593   6.151   9.951 -1.7370  2.4785 -0.4781
  107OSM    C9S10943   4.790   6.221   9.856  0.2819 -0.0088  0.4158
  107OSM    H9S10944   4.839   6.122   9.866  0.5446  0.2987  2.7964
  107OSM    H9T10945   4.872   6.293   9.873 -0.3381  0.3346  2.2762
  107OSM   C10S10946   4.739   6.247   9.716  0.9570  0.2446  0.2356
  107OSM   H10S10947   4.718   6.356   9.710  1.3902  0.6041  3.4557
  107OSM   H10T10948   4.644   6.197   9.687  1.6471 -0.4178 -0.9520
  107OSM   C11S10949   4.847   6.204   9.617  0.5878  0.4085  0.5963
  107OSM   H11S10950   4.919   6.126   9.649  0.0396  0.5556  2.3103
  107OSM   H11T10951   4.903   6.289   9.572  0.7255 -0.3427 -0.6940
  107OSM   C12S10952   4.758   6.159   9.495  0.1210  0.1442 -0.4712
  107OSM   H12S10953   4.706   6.250   9.459 -0.6735  0.3229  1.0700
  107OSM   H12T10954   4.693   6.071   9.511  0.3938 -0.0765 -0.5654
  107OSM   C13S10955   4.845   6.121   9.377 -0.1716  0.0187 -0.0760
  107OSM   H13S10956   4.903   6.031   9.406  0.5354  0.3338 -0.4893
  107OSM   H13T10957   4.931   6.185   9.351 -0.5802  0.3919 -0.5326
  107OSM   C14S10958   4.760   6.095   9.249  0.6845  0.1681 -0.0623
  107OSM   H14S10959   4.715   6.185   9.202 -0.6613 -0.3179  0.2478
  107OSM   H14T10960   4.675   6.031   9.281 -0.3007  1.3913 -0.1624
  107OSM   C15S10961   4.836   6.027   9.128  0.7257 -0.2425 -1.0433
  107OSM   H15S10962   4.902   5.946   9.166  0.3167 -0.0058  0.2184
  107OSM   H15T10963   4.895   6.095   9.062 -1.7209  3.2582  0.0678
  107OSM   C16S10964   4.747   5.979   9.018 -0.8081 -0.0584 -0.8803
  107OSM   H16S10965   4.691   6.068   8.980 -2.1906 -0.8888 -0.8540
  107OSM   H16T10966   4.673   5.903   9.053  0.4935 -0.6144  0.7955
  107OSM   C17S10967   4.821   5.910   8.896 -0.0518  0.2083 -1.2002
  107OSM   H17S10968   4.897   5.835   8.929 -0.1701 -0.4957 -2.4343
  107OSM   H17T10969   4.886   5.989   8.853  0.3600  0.6541  0.1938
  107OSM   C18S10970   4.725   5.850   8.794  0.2514  0.8807  0.0496
  107OSM   H18S10971   4.687   5.934   8.731  0.1908 -0.8397 -2.3662
  107OSM   H18T10972   4.637   5.804   8.843  1.2475  0.9135  1.9661
  107OSM   H18U10973   4.782   5.770   8.742  1.6637  0.4298  2.2067
  107OSM    C1F10974   5.102   6.300  10.413 -0.1032  0.5172 -0.6666
  107OSM     OF10975   5.132   6.209  10.492 -0.5729  0.2916 -0.0831
  107OSM    C2F10976   5.176   6.336  10.290  0.0985  0.0081  0.0182
  107OSM    H2F10977   5.226   6.435  10.291  1.2993 -0.2860 -4.7301
  107OSM    H2G10978   5.095   6.344  10.215  0.5514  0.9932 -0.3784
  107OSM    C3F10979   5.286   6.231  10.247 -0.1054 -0.8109  0.2691
  107OSM    H3F10980   5.251   6.128  10.268 -0.5125 -0.6846  0.2210
  107OSM    H3G10981   5.367   6.253  10.320 -0.4856 -0.4843  0.5942
  107OSM    C4F10982   5.351   6.247  10.109 -0.5234 -0.4000  0.4368
  107OSM    H4F10983   5.422   6.164  10.090 -0.0131 -0.2567  1.6324
  107OSM    H4G10984   5.408   6.340  10.090  1.1645 -1.9178 -2.5215
  107OSM    C5F10985   5.245   6.230   9.998 -0.5087  0.5755 -0.5766
  107OSM    H5F10986   5.184   6.323  10.003 -1.2996 -0.0029  1.7094
  107OSM    H5G10987   5.186   6.137  10.013  3.4519 -1.9990  0.5118
  107OSM    C6F10988   5.319   6.222   9.864  0.8684 -0.7428  0.0350
  107OSM    H6F10989   5.364   6.121   9.857  2.2809 -0.0247 -2.6953
  107OSM    H6G10990   5.400   6.298   9.862  1.4468 -1.3562 -1.8189
  107OSM    C7F10991   5.220   6.244   9.750  0.3648 -0.1642  0.1964
  107OSM    H7F10992   5.142   6.321   9.765 -0.4856 -0.4937 -2.0470
  107OSM    H7G10993   5.154   6.156   9.738  0.3630 -0.2152  0.5871
  107OSM    C8F10994   5.304   6.266   9.618  0.0201  0.2843 -0.4322
  107OSM    H8F10995   5.367   6.353   9.643 -0.1607  0.3759 -0.2947
  107OSM    H8G10996   5.232   6.299   9.539 -0.5947  0.2575  0.1091
  107OSM    C9F10997   5.392   6.151   9.581  0.6934  0.0696 -0.1636
  107OSM    H9F10998   5.486   6.141   9.637  2.0212 -0.4418 -2.3241
  107OSM   C10F10999   5.365   6.062   9.489 -0.3073 -0.3300 -0.5387
  107OSM   H10F11000   5.443   5.993   9.454 -0.2222 -0.8317  0.6036
  107OSM   C11F11001   5.243   6.065   9.405 -0.2847  0.2644 -0.2248
  107OSM   H11F11002   5.159   6.126   9.445 -0.1690  0.4650 -0.2886
  107OSM   H11G11003   5.198   5.964   9.399  1.5431 -0.6640  0.7409
  107OSM   C12F11004   5.257   6.106   9.256 -0.4637 -0.3903 -0.5322
  107OSM   H12F11005   5.313   6.201   9.248 -0.3394 -0.4022  0.0831
  107OSM   H12G11006   5.157   6.118   9.210 -0.9464  0.2371  0.6348
  107OSM   C13F11007   5.325   5.997   9.178 -0.3436 -0.4933  0.4823
  107OSM   H13F11008   5.283   5.896   9.200 -1.4050 -0.3043 -0.5654
  107OSM   H13G11009   5.435   5.999   9.194 -0.4851 -0.4126  1.5295
  107OSM   C14F11010   5.289   6.014   9.026 -0.3830 -0.2104  0.3507
  107OSM   H14F11011   5.358   6.083   8.974 -1.0623  0.6424  0.5687
  107OSM   H14G11012   5.187   6.057   9.019 -0.5947 -0.3502  2.2053
  107OSM   C15F11013   5.296   5.887   8.944  0.1266  0.6937 -0.8242
  107OSM   H15F11014   5.242   5.808   9.000  0.3268  1.4470  0.4664
  107OSM   H15G11015   5.404   5.864   8.958  0.1814  0.4286 -1.6414
  107OSM   C16F11016   5.248   5.892   8.799  0.3315 -0.4439  0.7082
  107OSM   H16F11017   5.171   5.971   8.787 -1.0397 -1.9130 -0.4480
  107OSM   H16G11018   5.195   5.797   8.780  1.7471 -0.8550 -1.5291
  107OSM   C17F11019   5.355   5.906   8.687  0.2501  0.7679  0.1641
  107OSM   H17F11020   5.431   5.830   8.715 -0.2646  0.7816  1.6986
  107OSM   H17G11021   5.408   6.001   8.709 -0.5158  0.9305  1.3790
  107OSM   C18F11022   5.306   5.894   8.548  0.4592 -0.3723  0.5299
  107OSM   H18F11023   5.299   5.784   8.534  1.5567 -0.3172 -0.6286
  107OSM   H18G11024   5.375   5.928   8.468  1.6422 -0.8086  1.3380
  107OSM   H18H11025   5.203   5.929   8.528  0.4119 -0.2042  1.0464
  108OSM      N11026   1.901   1.593  10.885 -0.2613 -0.2087 -0.2774
  108OSM    C1511027   1.804   1.681  10.963  0.0738 -0.5314  0.2309
  108OSM   H15A11028   1.834   1.785  10.955 -1.2330  0.0218  1.8668
  108OSM   H15B11029   1.812   1.662  11.069 -1.1557 -0.5998  0.3283
  108OSM   H15C11030   1.703   1.667  10.927 -0.4426  0.8043  1.0728
  108OSM    C1411031   2.041   1.637  10.897  0.7478  0.1608 -0.3027
  108OSM   H14A11032   2.108   1.561  10.859 -0.2363 -0.1201 -1.5444
  108OSM   H14B11033   2.074   1.660  10.997 -2.2732  0.1767  0.8019
  108OSM   H14C11034   2.063   1.721  10.833  0.2077  0.7564  0.2854
  108OSM    C1311035   1.880   1.454  10.931  0.4327  0.4367 -0.0868
  108OSM   H13A11036   1.935   1.382  10.873  0.7663  1.9376 -1.7185
  108OSM   H13B11037   1.774   1.433  10.919 -0.2449  1.8813  2.4939
  108OSM   H13C11038   1.910   1.448  11.035 -0.6655  0.5507  0.2520
  108OSM    C1211039   1.864   1.602  10.737 -0.2085  0.5173 -0.2502
  108OSM   H12A11040   1.768   1.552  10.727 -0.2659  0.7673 -1.0124
  108OSM   H12B11041   1.927   1.533  10.682 -2.7775 -1.3682 -1.0456
  108OSM    C1111042   1.852   1.738  10.669 -0.4625 -0.0313 -0.5208
  108OSM   H11A11043   1.762   1.790  10.709  0.4276  1.3703 -0.2666
  108OSM   H11B11044   1.839   1.727  10.559  2.7123  3.5230 -1.4559
  108OSM      P11045   2.091   1.812  10.598 -0.4136 -0.4148  0.1855
  108OSM    O1311046   2.192   1.905  10.640 -0.1084  0.1640  0.4157
  108OSM    O1411047   2.135   1.671  10.583  0.4567 -0.5519 -0.2626
  108OSM    O1111048   2.036   1.865  10.465 -0.0527  0.6337  0.3293
  108OSM    O1211049   1.967   1.825  10.684 -0.0775 -0.4547 -0.4939
  108OSM    C1S11050   2.013   2.004  10.438 -0.0450  0.2466 -0.9540
  108OSM    H1S11051   2.082   2.072  10.492  0.2201 -1.1768  0.5835
  108OSM    H1T11052   1.908   2.034  10.458 -0.8962 -2.7503 -0.4338
  108OSM     NF11053   2.009   2.171  10.263 -0.2180 -0.2071  0.2754
  108OSM    HNF11054   1.916   2.197  10.241  0.1174  1.4016  0.6331
  108OSM    C2S11055   2.043   2.034  10.285  0.5036 -0.1756  0.0133
  108OSM    H2S11056   2.150   2.020  10.260  0.8281  1.1074  0.5629
  108OSM    C3S11057   1.961   1.925  10.200  0.2484 -0.3693 -0.2217
  108OSM    H3S11058   1.855   1.930  10.233 -0.1946 -0.5999 -1.5504
  108OSM     O311059   1.996   1.786  10.229  0.1658  0.0602  0.0880
  108OSM    HO311060   2.020   1.786  10.322 -2.1929  0.2953  0.7553
  108OSM    C4S11061   1.962   1.954  10.053 -0.3105  0.0174 -0.2451
  108OSM    H4S11062   1.896   2.038  10.026  1.3035  1.2854 -0.3590
  108OSM    C5S11063   2.034   1.892   9.964  0.4507  0.6142  0.1565
  108OSM    H5S11064   2.104   1.820  10.009 -1.3838 -0.3966  1.5147
  108OSM    C6S11065   2.044   1.918   9.814 -0.0952  0.2235  0.5281
  108OSM    H6S11066   2.151   1.936   9.793 -0.0662  2.1566  2.1092
  108OSM    H6T11067   1.984   2.002   9.773 -1.0623  0.2294  1.8792
  108OSM    C7S11068   2.018   1.772   9.750 -0.4590 -0.9480 -0.0847
  108OSM    H7S11069   1.915   1.730   9.746 -0.1017 -1.7059 -2.2320
  108OSM    H7T11070   2.084   1.705   9.809 -0.2573  0.1855  1.0327
  108OSM    C8S11071   2.050   1.772   9.600 -0.3270  0.5255 -0.0636
  108OSM    H8S11072   2.052   1.666   9.568 -0.4861  0.4478  0.1814
  108OSM    H8T11073   2.147   1.822   9.580  0.8320 -1.2719  0.7716
  108OSM    C9S11074   1.955   1.845   9.514 -0.2793 -0.6573 -0.2133
  108OSM    H9S11075   1.976   1.953   9.508  1.0134 -0.8253  0.8392
  108OSM    H9T11076   1.855   1.832   9.561 -1.0006  2.0455 -0.8232
  108OSM   C10S11077   1.933   1.790   9.374 -0.1645 -0.0235 -0.7079
  108OSM   H10S11078   1.859   1.855   9.322 -1.1129  1.0668  1.8219
  108OSM   H10T11079   1.885   1.692   9.392  1.0403 -0.1824  2.1510
  108OSM   C11S11080   2.063   1.768   9.288 -0.0731 -0.0359  0.6509
  108OSM   H11S11081   2.125   1.686   9.331  4.0825  3.1876  1.4830
  108OSM   H11T11082   2.132   1.855   9.294  1.1802 -0.8671 -0.9259
  108OSM   C12S11083   2.022   1.733   9.136 -0.4698 -0.3985  0.4832
  108OSM   H12S11084   1.960   1.822   9.111  2.1373  1.6915  0.9374
  108OSM   H12T11085   1.952   1.648   9.144 -1.6979  0.2833 -2.0395
  108OSM   C13S11086   2.142   1.721   9.041  0.8679 -0.6135  0.0208
  108OSM   H13S11087   2.193   1.626   9.067 -1.6063 -2.0038  0.1642
  108OSM   H13T11088   2.221   1.796   9.062  0.9047 -0.5466 -0.3544
  108OSM   C14S11089   2.091   1.732   8.895  0.3771 -0.1146  1.2816
  108OSM   H14S11090   2.061   1.839   8.887  0.5792 -0.1734 -1.0691
  108OSM   H14T11091   1.995   1.676   8.889 -0.0009  0.6499 -1.5482
  108OSM   C15S11092   2.190   1.697   8.776  0.8188 -0.4210 -0.5182
  108OSM   H15S11093   2.277   1.764   8.788  1.1739 -1.1465  1.3135
  108OSM   H15T11094   2.140   1.720   8.679  0.5325  3.1126  0.3502
  108OSM   C16S11095   2.246   1.560   8.789  0.4619 -0.8574 -0.4110
  108OSM   H16S11096   2.170   1.480   8.803  0.2943 -0.8080 -1.0093
  108OSM   H16T11097   2.306   1.546   8.881  0.9058  0.0121 -0.5641
  108OSM   C17S11098   2.327   1.520   8.663 -0.8164  0.1230  0.4913
  108OSM   H17S11099   2.312   1.579   8.570 -0.1807 -2.3769 -1.2873
  108OSM   H17T11100   2.295   1.421   8.624  1.5368 -0.0634 -1.1929
  108OSM   C18S11101   2.475   1.506   8.706  0.3751  0.2474  0.3117
  108OSM   H18S11102   2.533   1.479   8.615 -1.0956 -0.7206 -0.3723
  108OSM   H18T11103   2.477   1.428   8.784 -2.8833 -1.4067 -1.0920
  108OSM   H18U11104   2.504   1.610   8.732 -2.1039  0.9185  0.6448
  108OSM    C1F11105   2.094   2.269  10.295 -0.6993 -0.7727  0.2805
  108OSM     OF11106   2.197   2.245  10.362  0.6438 -0.2277 -0.1693
  108OSM    C2F11107   2.050   2.406  10.251 -0.4161  0.2399  1.1016
  108OSM    H2F11108   2.132   2.473  10.286  2.5034 -2.1750 -0.6107
  108OSM    H2G11109   1.951   2.430  10.295 -1.3685 -0.4417 -0.5410
  108OSM    C3F11110   2.054   2.406  10.096 -0.0442 -0.4997 -0.2211
  108OSM    H3F11111   2.017   2.503  10.056  2.2411  0.7005  0.4091
  108OSM    H3G11112   1.979   2.334  10.058 -0.1762 -0.6546  0.3233
  108OSM    C4F11113   2.185   2.384  10.017 -0.0208  0.7552 -0.6187
  108OSM    H4F11114   2.238   2.302  10.072 -2.5044  0.2775  1.2658
  108OSM    H4G11115   2.237   2.479  10.040 -0.2142  0.9211 -0.8712
  108OSM    C5F11116   2.163   2.368   9.870 -0.3722  0.3580  0.0172
  108OSM    H5F11117   2.082   2.429   9.824 -2.0627 -1.6861  0.1162
  108OSM    H5G11118   2.137   2.262   9.849 -0.6836  0.0879  1.6418
  108OSM    C6F11119   2.298   2.412   9.801 -0.2020  0.7944  0.4704
  108OSM    H6F11120   2.381   2.355   9.849 -1.0823 -0.6904  0.2888
  108OSM    H6G11121   2.303   2.521   9.818 -3.0562  1.0840 -0.0487
  108OSM    C7F11122   2.296   2.372   9.646 -0.3010 -0.3892 -0.2902
  108OSM    H7F11123   2.315   2.263   9.635 -0.1306 -0.3036 -0.8800
  108OSM    H7G11124   2.382   2.428   9.603  0.4623 -1.0168  0.3668
  108OSM    C8F11125   2.169   2.411   9.567  0.1335 -0.2894 -0.6185
  108OSM    H8F11126   2.138   2.513   9.596  1.5282 -0.1332  0.4044
  108OSM    H8G11127   2.083   2.347   9.597 -1.4910  2.0652 -0.0533
  108OSM    C9F11128   2.203   2.395   9.426 -0.2151  0.3058 -0.2233
  108OSM    H9F11129   2.277   2.470   9.396  0.4831  0.8135  2.4865
  108OSM   C10F11130   2.176   2.296   9.340 -0.1536 -1.2672  0.1295
  108OSM   H10F11131   2.213   2.312   9.238  2.8001 -1.8067  1.0106
  108OSM   C11F11132   2.102   2.168   9.375  0.0605  0.3805  0.1372
  108OSM   H11F11133   2.066   2.164   9.480  0.6285  0.6303  0.3477
  108OSM   H11G11134   2.166   2.078   9.356 -1.0332 -0.5654  0.8461
  108OSM   C12F11135   1.976   2.162   9.285  0.0458 -0.0513 -0.0378
  108OSM   H12F11136   1.920   2.068   9.307 -0.1571 -0.3562 -1.6983
  108OSM   H12G11137   2.009   2.137   9.182  0.2669 -2.4726  0.5390
  108OSM   C13F11138   1.884   2.280   9.300  0.0763 -1.0125  0.1841
  108OSM   H13F11139   1.940   2.374   9.319 -1.6945  0.4261 -1.3521
  108OSM   H13G11140   1.824   2.257   9.391 -0.9231  0.1974 -0.1331
  108OSM   C14F11141   1.788   2.306   9.177 -0.6471 -0.4815 -0.4185
  108OSM   H14F11142   1.696   2.243   9.182 -0.4528 -0.9813 -2.2177
  108OSM   H14G11143   1.858   2.276   9.096  0.4303  3.5683 -1.2129
  108OSM   C15F11144   1.752   2.458   9.175  0.1553 -0.3263  0.0591
  108OSM   H15F11145   1.839   2.526   9.169 -0.9468  1.0791 -0.4354
  108OSM   H15G11146   1.695   2.484   9.267 -1.0825  0.7221 -0.9584
  108OSM   C16F11147   1.654   2.494   9.055  0.0065 -0.3904  0.5184
  108OSM   H16F11148   1.591   2.408   9.026  0.4717 -1.7091  3.1031
  108OSM   H16G11149   1.721   2.516   8.969  1.4146 -0.2009  1.6151
  108OSM   C17F11150   1.568   2.616   9.089  0.3784 -0.1035 -0.1550
  108OSM   H17F11151   1.633   2.698   9.126 -0.1112 -0.7657  2.3193
  108OSM   H17G11152   1.501   2.601   9.176  0.9290  1.4845  0.5712
  108OSM   C18F11153   1.505   2.674   8.967 -0.3153 -0.0204  0.4520
  108OSM   H18F11154   1.586   2.691   8.893 -1.7965 -0.3880 -1.3284
  108OSM   H18G11155   1.453   2.767   8.998 -2.7130 -0.2192 -2.5479
  108OSM   H18H11156   1.437   2.603   8.916  2.1055 -1.6619 -0.7138
  109OSM      N11157   0.961   6.630  11.105  0.0471  0.2255 -0.4374
  109OSM    C1511158   1.080   6.683  11.168 -0.4884  0.0873  0.0845
  109OSM   H15A11159   1.106   6.615  11.247 -0.0312 -2.2925 -1.9815
  109OSM   H15B11160   1.047   6.780  11.203  0.3991 -0.0939  1.5250
  109OSM   H15C11161   1.156   6.712  11.096 -2.7950  0.5060 -2.3450
  109OSM    C1411162   0.865   6.597  11.216 -0.5480  0.4481  0.0533
  109OSM   H14A11163   0.849   6.678  11.285  0.4301  1.7965 -1.2392
  109OSM   H14B11164   0.900   6.507  11.265 -0.5338 -1.6125 -3.4163
  109OSM   H14C11165   0.772   6.582  11.162  1.2638  0.7137 -3.4591
  109OSM    C1311166   0.905   6.740  11.014  0.4529  0.4394  0.0533
  109OSM   H13A11167   0.803   6.726  10.983  0.7923 -0.2182 -0.7948
  109OSM   H13B11168   0.965   6.739  10.924  0.7408 -0.7922  0.2429
  109OSM   H13C11169   0.909   6.829  11.075 -0.9505 -0.7872  2.0790
  109OSM    C1211170   0.990   6.510  11.019  0.4093  0.1447 -0.2460
  109OSM   H12A11171   0.891   6.472  10.999 -0.1848  0.8590  1.2075
  109OSM   H12B11172   1.041   6.433  11.074 -2.3146 -0.2209  1.9820
  109OSM    C1111173   1.085   6.527  10.891 -0.3430 -0.3976  0.0686
  109OSM   H11A11174   1.050   6.600  10.816 -0.4016  1.2430  1.6251
  109OSM   H11B11175   1.079   6.434  10.830 -0.4013 -0.1134 -0.3600
  109OSM      P11176   1.303   6.436  11.010  0.1923 -0.4378 -0.8369
  109OSM    O1311177   1.402   6.510  11.093 -0.4666  0.2360 -0.2294
  109OSM    O1411178   1.205   6.349  11.081 -0.0761  0.0408 -0.5307
  109OSM    O1111179   1.382   6.349  10.902  0.0296 -0.0768  0.2591
  109OSM    O1211180   1.221   6.552  10.932  0.2833  0.0891  0.5903
  109OSM    C1S11181   1.362   6.388  10.763  0.1032  0.2731  0.6094
  109OSM    H1S11182   1.349   6.495  10.736 -2.1153 -0.1251 -0.0840
  109OSM    H1T11183   1.269   6.333  10.737 -1.2914  1.7277  2.2425
  109OSM     NF11184   1.474   6.394  10.537  0.0467 -0.0325 -0.2533
  109OSM    HNF11185   1.427   6.343  10.466  0.7600  0.7320 -1.3042
  109OSM    C2S11186   1.471   6.328  10.669  0.2166  0.5047 -0.2351
  109OSM    H2S11187   1.572   6.353  10.710  0.0776 -1.3433  1.3851
  109OSM    C3S11188   1.466   6.175  10.665 -0.0392  0.3922 -0.2809
  109OSM    H3S11189   1.381   6.141  10.602 -0.8450  3.3394 -0.9405
  109OSM     O311190   1.447   6.112  10.798 -0.0176 -0.1918  0.0458
  109OSM    HO311191   1.416   6.183  10.855  1.2604 -0.0714  0.6251
  109OSM    C4S11192   1.597   6.116  10.606 -0.0777 -0.7306 -0.1251
  109OSM    H4S11193   1.676   6.085  10.676  1.0535  0.5799 -0.7719
  109OSM    C5S11194   1.618   6.083  10.480 -0.2503 -0.3295 -0.2331
  109OSM    H5S11195   1.532   6.096  10.412 -1.2972 -0.4110  1.0464
  109OSM    C6S11196   1.740   6.010  10.422 -0.2564  0.1702  0.6004
  109OSM    H6S11197   1.716   5.902  10.410  2.9375 -0.9015  2.4118
  109OSM    H6T11198   1.829   6.021  10.488  0.6342  0.5241 -0.6051
  109OSM    C7S11199   1.788   6.074  10.295 -0.1708 -0.2242  0.5388
  109OSM    H7S11200   1.840   6.169  10.322  1.4044  0.1569 -3.2805
  109OSM    H7T11201   1.705   6.092  10.224 -1.9812  0.2264  2.6382
  109OSM    C8S11202   1.899   5.985  10.233  0.3866 -0.6502 -0.2482
  109OSM    H8S11203   1.861   5.894  10.183 -0.5919 -0.0495 -0.6289
  109OSM    H8T11204   1.958   5.942  10.317  1.6272  0.5848 -0.4493
  109OSM    C9S11205   1.985   6.056  10.122  0.1491 -0.2352  0.1763
  109OSM    H9S11206   2.068   5.986  10.097 -0.3078 -1.5712  2.1324
  109OSM    H9T11207   2.016   6.157  10.156 -3.3532  0.9919  0.1595
  109OSM   C10S11208   1.907   6.068   9.995 -0.0302  0.2262 -0.3474
  109OSM   H10S11209   1.838   6.155   9.999  0.2246  0.5361 -1.9426
  109OSM   H10T11210   1.845   5.977   9.976 -0.7137  0.4865  0.5942
  109OSM   C11S11211   1.993   6.118   9.866  0.3794 -0.2379 -0.3200
  109OSM   H11S11212   2.082   6.051   9.866  0.3378 -0.3113  0.9000
  109OSM   H11T11213   2.023   6.224   9.882 -0.9943  0.4792 -2.1447
  109OSM   C12S11214   1.910   6.108   9.739 -0.0569 -0.0171  0.2391
  109OSM   H12S11215   1.827   6.182   9.733  1.7895  2.2741  1.0696
  109OSM   H12T11216   1.866   6.007   9.729  0.2378  0.0030 -1.6491
  109OSM   C13S11217   1.991   6.138   9.608  0.0973 -0.7973 -0.3693
  109OSM   H13S11218   2.079   6.070   9.609  1.8861  1.4244  0.5983
  109OSM   H13T11219   2.031   6.240   9.626  0.4949 -1.0174  0.0345
  109OSM   C14S11220   1.928   6.116   9.465  0.1487 -0.2214  0.1522
  109OSM   H14S11221   2.005   6.155   9.395  1.0038  0.6074  1.4989
  109OSM   H14T11222   1.848   6.193   9.462  0.6766  0.3436  0.3500
  109OSM   C15S11223   1.865   5.984   9.425 -1.0633 -0.2918 -1.0341
  109OSM   H15S11224   1.787   5.960   9.501 -0.1214 -1.3736 -0.3897
  109OSM   H15T11225   1.936   5.899   9.433 -1.5669 -0.8575 -2.2104
  109OSM   C16S11226   1.800   5.984   9.286 -0.5773  0.5738  0.5008
  109OSM   H16S11227   1.746   6.078   9.261  0.8922  1.2595 -0.3058
  109OSM   H16T11228   1.726   5.902   9.282 -0.4913  0.4505  1.3319
  109OSM   C17S11229   1.905   5.964   9.170  0.3398  0.2156  0.0953
  109OSM   H17S11230   1.981   5.888   9.198  0.8198  0.2864 -0.9897
  109OSM   H17T11231   1.947   6.066   9.162  1.8113 -0.1833  1.8930
  109OSM   C18S11232   1.849   5.915   9.037 -0.8935 -0.0652 -0.7895
  109OSM   H18S11233   1.922   5.957   8.965 -2.2724  2.4485 -0.8317
  109OSM   H18T11234   1.756   5.971   9.012  0.9556  2.1117 -3.2380
  109OSM   H18U11235   1.839   5.806   9.018  0.6093 -0.5746  1.0330
  109OSM    C1F11236   1.505   6.516  10.510  0.0168  0.2856 -0.0823
  109OSM     OF11237   1.513   6.603  10.601  0.4803 -0.3154  0.2806
  109OSM    C2F11238   1.516   6.557  10.363 -0.1937  0.2072 -0.2694
  109OSM    H2F11239   1.413   6.575  10.326  0.4871  0.9717 -1.8705
  109OSM    H2G11240   1.561   6.475  10.303 -1.8505 -2.1842  1.5852
  109OSM    C3F11241   1.599   6.688  10.350  0.3622 -0.8184  0.3775
  109OSM    H3F11242   1.703   6.665  10.383  0.5420 -1.3350 -0.5219
  109OSM    H3G11243   1.561   6.771  10.414 -1.5597 -0.4635 -1.1469
  109OSM    C4F11244   1.615   6.726  10.202 -0.7746  0.3447  0.9040
  109OSM    H4F11245   1.654   6.646  10.136 -1.9168  0.4135  0.1164
  109OSM    H4G11246   1.696   6.802  10.198 -1.1461  0.7597  1.2492
  109OSM    C5F11247   1.487   6.793  10.151  0.0059  0.2206  0.2182
  109OSM    H5F11248   1.456   6.868  10.227  1.2783  0.7793  0.2053
  109OSM    H5G11249   1.417   6.707  10.146  2.4984 -1.9003 -0.4904
  109OSM    C6F11250   1.489   6.872  10.016  0.4534  0.2992  0.0167
  109OSM    H6F11251   1.552   6.960  10.036  0.0689  0.1934  1.8501
  109OSM    H6G11252   1.389   6.916   9.998  1.1665  1.2343 -1.9993
  109OSM    C7F11253   1.524   6.778   9.903  0.1789 -0.1638  0.5237
  109OSM    H7F11254   1.441   6.705   9.896 -2.5724  2.7705  0.3725
  109OSM    H7G11255   1.622   6.725   9.911 -1.3033 -3.0147  1.1565
  109OSM    C8F11256   1.537   6.855   9.771 -0.4222  0.4066  0.3468
  109OSM    H8F11257   1.621   6.928   9.770  0.3679 -0.4648 -1.0380
  109OSM    H8G11258   1.442   6.911   9.762 -1.1836 -0.9341 -0.2269
  109OSM    C9F11259   1.544   6.756   9.661 -0.1491 -0.1039  0.1134
  109OSM    H9F11260   1.581   6.657   9.688 -1.5172 -0.3103  1.4250
  109OSM   C10F11261   1.501   6.788   9.537  0.1299  0.5949  0.6830
  109OSM   H10F11262   1.519   6.717   9.455  0.6859  1.5411 -0.0309
  109OSM   C11F11263   1.438   6.921   9.490  0.0989  0.0204 -0.0341
  109OSM   H11F11264   1.455   6.994   9.572  2.2156  0.0121 -0.4179
  109OSM   H11G11265   1.329   6.903   9.475 -0.0607 -0.3449  1.4427
  109OSM   C12F11266   1.487   6.985   9.357  0.6683  0.2267 -1.1087
  109OSM   H12F11267   1.583   6.948   9.316  1.9496  2.1824 -0.0080
  109OSM   H12G11268   1.505   7.090   9.386 -2.4993  0.2597  1.2440
  109OSM   C13F11269   1.383   6.981   9.245  0.4866  0.4051  0.1464
  109OSM   H13F11270   1.287   7.023   9.282  0.1429 -1.5374  1.6037
  109OSM   H13G11271   1.371   6.878   9.205  1.3850  0.0079  0.8382
  109OSM   C14F11272   1.416   7.070   9.120 -0.4712  0.0826 -0.8056
  109OSM   H14F11273   1.518   7.048   9.082 -0.8406 -3.0260 -0.2925
  109OSM   H14G11274   1.416   7.176   9.151 -0.6784 -0.2175  0.2745
  109OSM   C15F11275   1.332   7.048   9.002 -0.4938 -0.3973  0.0217
  109OSM   H15F11276   1.226   7.046   9.037 -0.0420 -1.4391  1.4058
  109OSM   H15G11277   1.347   6.941   8.978  2.0159  0.0238 -0.5100
  109OSM   C16F11278   1.376   7.132   8.875 -0.8276 -0.0918  0.3345
  109OSM   H16F11279   1.481   7.099   8.858 -1.1189 -1.1050  0.4197
  109OSM   H16G11280   1.371   7.241   8.894  0.8866 -0.0224  0.5903
  109OSM   C17F11281   1.294   7.099   8.755  0.2779 -0.3241 -0.5420
  109OSM   H17F11282   1.288   6.993   8.722 -1.1161 -0.4787  0.1433
  109OSM   H17G11283   1.346   7.152   8.671  0.6859  0.5810  0.2637
  109OSM   C18F11284   1.150   7.156   8.759  0.2143  0.3935  0.0704
  109OSM   H18F11285   1.093   7.105   8.840 -1.6691  0.4325 -1.1862
  109OSM   H18G11286   1.095   7.140   8.664  2.2281  0.2793 -1.1450
  109OSM   H18H11287   1.153   7.266   8.772 -0.6112  0.4274  0.0290
  110OSM      N11288   3.186   6.388  11.491 -0.5691  0.6234 -0.6377
  110OSM    C1511289   3.118   6.340  11.627  0.2894 -0.3607  0.0295
  110OSM   H15A11290   3.124   6.233  11.643 -0.6491 -0.6345 -1.2907
  110OSM   H15B11291   3.017   6.377  11.621  0.3029 -0.3134  0.0940
  110OSM   H15C11292   3.153   6.390  11.716 -0.5409 -1.5361  1.0559
  110OSM    C1411293   3.139   6.528  11.481  0.3730  0.3180 -0.1484
  110OSM   H14A11294   3.033   6.531  11.460 -0.2911 -2.2411  2.3165
  110OSM   H14B11295   3.190   6.579  11.400  1.8555 -1.9577 -0.7459
  110OSM   H14C11296   3.158   6.571  11.578 -1.7700 -1.5949  1.2233
  110OSM    C1311297   3.336   6.396  11.514 -1.0178  0.8850 -0.5792
  110OSM   H13A11298   3.386   6.304  11.540 -2.9627  0.1359  0.7470
  110OSM   H13B11299   3.351   6.461  11.600 -1.0295 -0.3895  0.4197
  110OSM   H13C11300   3.381   6.448  11.431 -1.4490  0.6331 -0.9740
  110OSM    C1211301   3.144   6.312  11.371  0.6070 -0.4206 -0.1807
  110OSM   H12A11302   3.037   6.316  11.355  0.8409 -1.7739 -2.4394
  110OSM   H12B11303   3.174   6.208  11.379  0.8472 -0.3049  0.5721
  110OSM    C1111304   3.215   6.357  11.240  0.4204 -0.0647 -0.8874
  110OSM   H11A11305   3.323   6.337  11.258  0.4097 -1.0803 -1.8212
  110OSM   H11B11306   3.194   6.466  11.234  0.4153  0.0663  0.9809
  110OSM      P11307   3.041   6.284  11.068  0.3026  0.2085 -0.2622
  110OSM    O1311308   2.947   6.194  11.137  0.8266  0.1003 -1.0042
  110OSM    O1411309   3.014   6.431  11.057  0.1591  0.2222 -0.3863
  110OSM    O1111310   3.063   6.239  10.922 -1.0992 -0.6520 -0.1834
  110OSM    O1211311   3.182   6.269  11.138  0.4133  0.4347  0.7615
  110OSM    C1S11312   3.172   6.145  10.889  0.2901 -0.5633  0.4226
  110OSM    H1S11313   3.141   6.044  10.923  0.5149 -0.8341 -0.1583
  110OSM    H1T11314   3.267   6.179  10.935 -0.3858  2.9169 -0.4462
  110OSM     NF11315   3.283   6.026  10.693 -0.3903  0.4233  0.7802
  110OSM    HNF11316   3.375   6.055  10.669 -0.1579 -0.4419  0.6107
  110OSM    C2S11317   3.192   6.135  10.731 -0.6923 -0.2719 -1.0900
  110OSM    H2S11318   3.092   6.105  10.693 -1.5838 -0.9796  1.6050
  110OSM    C3S11319   3.221   6.284  10.675  0.2266  0.1497  0.4310
  110OSM    H3S11320   3.315   6.321  10.723  1.0805  1.1887 -1.8787
  110OSM     O311321   3.131   6.387  10.713  0.2135  0.0440 -0.1842
  110OSM    HO311322   3.095   6.351  10.795  0.9152 -0.4712 -0.0970
  110OSM    C4S11323   3.219   6.283  10.523 -0.1520 -0.4192  1.2654
  110OSM    H4S11324   3.119   6.272  10.478 -0.5698  0.9615  1.7851
  110OSM    C5S11325   3.323   6.313  10.446 -0.9624 -0.1671  0.0666
  110OSM    H5S11326   3.418   6.342  10.492 -1.5338 -0.2901  1.3685
  110OSM    C6S11327   3.316   6.316  10.299 -0.1359 -0.3972  0.1088
  110OSM    H6S11328   3.403   6.263  10.257 -1.3597 -2.2474 -0.1985
  110OSM    H6T11329   3.338   6.419  10.264 -1.7495  0.3693  1.1798
  110OSM    C7S11330   3.188   6.268  10.219 -0.0392  0.6967 -0.2773
  110OSM    H7S11331   3.101   6.330  10.249 -1.7692 -1.3473 -0.7864
  110OSM    H7T11332   3.159   6.161  10.234 -0.3054  0.7660 -0.2903
  110OSM    C8S11333   3.208   6.290  10.066  0.2575  0.5669 -0.6096
  110OSM    H8S11334   3.117   6.257  10.011  1.1900 -0.1468 -1.7651
  110OSM    H8T11335   3.283   6.215  10.033 -1.7971 -1.0552 -1.8728
  110OSM    C9S11336   3.231   6.432  10.024  0.2048 -0.1025  0.4279
  110OSM    H9S11337   3.337   6.459  10.044 -0.1847  1.0155  1.0917
  110OSM    H9T11338   3.170   6.496  10.092 -4.1410 -1.5925 -1.7210
  110OSM   C10S11339   3.196   6.465   9.875 -0.1847  0.4381 -0.3705
  110OSM   H10S11340   3.207   6.575   9.863 -1.0311  0.5887  0.1736
  110OSM   H10T11341   3.090   6.438   9.856 -0.5430  0.9045  0.8648
  110OSM   C11S11342   3.282   6.393   9.779 -0.4596  0.0404 -0.7698
  110OSM   H11S11343   3.274   6.282   9.787 -1.5169  0.1619  0.0470
  110OSM   H11T11344   3.384   6.417   9.814 -0.9483 -0.3886  1.0610
  110OSM   C12S11345   3.263   6.456   9.640 -0.9119 -0.2147 -0.1785
  110OSM   H12S11346   3.295   6.563   9.641  0.8776 -0.6885  1.7715
  110OSM   H12T11347   3.158   6.452   9.605 -0.3086 -1.4620 -1.9414
  110OSM   C13S11348   3.353   6.394   9.531  0.1216 -0.5368 -0.0828
  110OSM   H13S11349   3.333   6.287   9.509 -0.1968 -0.9220  1.9086
  110OSM   H13T11350   3.459   6.414   9.556  0.2029 -1.3988  0.3051
  110OSM   C14S11351   3.339   6.472   9.399 -0.2022  0.3230 -0.3459
  110OSM   H14S11352   3.278   6.561   9.424 -0.8188  0.3064 -1.7166
  110OSM   H14T11353   3.281   6.419   9.320 -1.3729  0.7818  0.1893
  110OSM   C15S11354   3.467   6.552   9.355  0.2963  0.3023 -0.5469
  110OSM   H15S11355   3.553   6.483   9.340 -1.9572 -2.6906 -0.6813
  110OSM   H15T11356   3.493   6.623   9.437  1.0967 -1.6647  0.9984
  110OSM   C16S11357   3.449   6.631   9.228  0.1954 -0.3609 -0.0195
  110OSM   H16S11358   3.349   6.676   9.247  1.7654  1.9935  3.8141
  110OSM   H16T11359   3.452   6.557   9.146  1.1403 -0.3907  0.0387
  110OSM   C17S11360   3.555   6.743   9.200  0.1802  0.2348 -0.5959
  110OSM   H17S11361   3.568   6.807   9.289 -1.7195  2.2679 -1.6879
  110OSM   H17T11362   3.515   6.813   9.124 -2.2966  0.1000  0.5089
  110OSM   C18S11363   3.684   6.684   9.154  0.6001  0.1425 -0.4885
  110OSM   H18S11364   3.761   6.763   9.142 -1.4107  2.0286 -1.7857
  110OSM   H18T11365   3.666   6.654   9.048  0.4702 -1.3557 -0.0598
  110OSM   H18U11366   3.711   6.597   9.218 -2.0259  0.3506  1.0177
  110OSM    C1F11367   3.269   5.895  10.705 -0.1700  0.1224 -0.6814
  110OSM     OF11368   3.169   5.850  10.765 -0.0820 -0.0828  0.3588
  110OSM    C2F11369   3.398   5.819  10.680 -0.2143 -0.5564  0.5500
  110OSM    H2F11370   3.410   5.738  10.755  0.7800 -0.6765  0.2701
  110OSM    H2G11371   3.481   5.892  10.687  1.5215 -2.2829 -0.9212
  110OSM    C3F11372   3.409   5.750  10.542  0.7347 -0.0558  0.1478
  110OSM    H3F11373   3.350   5.657  10.558  1.6275 -0.6255  0.2411
  110OSM    H3G11374   3.515   5.722  10.526  0.4132 -0.8865 -0.6314
  110OSM    C4F11375   3.339   5.826  10.425  0.2969 -0.0378 -0.0285
  110OSM    H4F11376   3.362   5.932  10.402 -0.2998  0.0266 -0.3350
  110OSM    H4G11377   3.235   5.838  10.460  0.6326  3.4452  0.1094
  110OSM    C5F11378   3.350   5.755  10.295 -0.3912  0.5713  0.3284
  110OSM    H5F11379   3.323   5.648  10.308  1.1897  0.3233  1.9172
  110OSM    H5G11380   3.453   5.760  10.255  0.0214 -0.9352  1.1352
  110OSM    C6F11381   3.263   5.829  10.185 -0.3764 -0.1885 -0.1438
  110OSM    H6F11382   3.305   5.927  10.153 -2.0947  0.6822  0.1544
  110OSM    H6G11383   3.169   5.853  10.241  0.8179 -3.1474  3.5749
  110OSM    C7F11384   3.236   5.744  10.060  0.2938  0.3436 -0.2477
  110OSM    H7F11385   3.206   5.644  10.099  0.9861  1.2183  2.8183
  110OSM    H7G11386   3.327   5.730   9.998  1.1867 -3.8885  1.6415
  110OSM    C8F11387   3.121   5.804   9.977 -0.4570  0.0346 -0.6207
  110OSM    H8F11388   3.038   5.795  10.051  0.3966  0.5532  0.4299
  110OSM    H8G11389   3.097   5.728   9.900  0.9681 -1.2253  0.1276
  110OSM    C9F11390   3.135   5.946   9.931 -0.1968 -0.0358 -0.6663
  110OSM    H9F11391   3.152   6.017  10.013 -0.4967 -2.0970  1.2855
  110OSM   C10F11392   3.123   5.999   9.807  0.0645  0.4834 -0.1391
  110OSM   H10F11393   3.125   6.107   9.789  0.8289  0.3913 -0.6316
  110OSM   C11F11394   3.099   5.914   9.680 -0.2100 -0.1458  1.3028
  110OSM   H11F11395   2.995   5.923   9.643  0.2681  0.5780  0.0828
  110OSM   H11G11396   3.127   5.808   9.700  1.8434  0.7269  3.6087
  110OSM   C12F11397   3.174   5.979   9.562 -0.4893 -0.6322  0.4169
  110OSM   H12F11398   3.183   5.905   9.479 -0.5528 -0.2576  0.0678
  110OSM   H12G11399   3.278   6.012   9.586 -0.6073  0.0431  0.0238
  110OSM   C13F11400   3.104   6.101   9.495  0.1624 -0.5882  0.2592
  110OSM   H13F11401   3.133   6.193   9.550 -1.6568  0.0649  0.1737
  110OSM   H13G11402   2.994   6.087   9.499 -0.1371  1.2525 -0.3135
  110OSM   C14F11403   3.136   6.122   9.340 -0.9219 -0.4588 -0.6237
  110OSM   H14F11404   3.110   6.026   9.290 -1.5575 -0.2084 -0.7901
  110OSM   H14G11405   3.245   6.136   9.325 -0.6192 -1.5693  0.3385
  110OSM   C15F11406   3.049   6.232   9.269  0.6265 -0.0967 -0.5879
  110OSM   H15F11407   3.051   6.323   9.332 -0.4336 -0.7501  0.4329
  110OSM   H15G11408   2.942   6.204   9.282  0.7742 -0.5458 -0.3441
  110OSM   C16F11409   3.087   6.247   9.123  0.5432  0.1361  0.3388
  110OSM   H16F11410   3.069   6.142   9.091  0.2373 -0.6055  2.7510
  110OSM   H16G11411   3.194   6.276   9.123  0.6670 -0.0907  2.9498
  110OSM   C17F11412   3.009   6.345   9.046 -0.2030 -0.1048  0.6522
  110OSM   H17F11413   2.900   6.352   9.068 -0.6515  1.7207 -1.7453
  110OSM   H17G11414   3.029   6.299   8.947  0.6793 -1.4425  1.4291
  110OSM   C18F11415   3.068   6.487   9.046  0.1719 -0.7045  0.1090
  110OSM   H18F11416   3.074   6.533   9.147  0.8704 -2.2229  0.7951
  110OSM   H18G11417   3.008   6.550   8.978 -2.5558 -0.8790  2.1902
  110OSM   H18H11418   3.172   6.485   9.007  0.2487  1.7831  0.0486
  111OSM      N11419   4.203   2.516  10.840  1.1050 -0.0793 -0.1337
  111OSM    C1511420   4.221   2.627  10.936 -0.0882  0.1526  0.0263
  111OSM   H15A11421   4.160   2.626  11.025  0.1784 -1.8702  0.2208
  111OSM   H15B11422   4.198   2.726  10.899 -1.8397  0.8563  2.6686
  111OSM   H15C11423   4.318   2.631  10.984  0.0262  0.0014 -0.1947
  111OSM    C1411424   4.207   2.381  10.904 -0.3924 -0.1371  0.5349
  111OSM   H14A11425   4.198   2.303  10.830 -1.4583 -1.9394  2.4351
  111OSM   H14B11426   4.118   2.376  10.966 -0.1044 -0.6231  0.9237
  111OSM   H14C11427   4.289   2.368  10.974  3.3523  1.6845 -3.0742
  111OSM    C1311428   4.065   2.531  10.777 -0.4578  0.2379 -0.4036
  111OSM   H13A11429   4.055   2.633  10.742  0.9336  0.8277  0.8083
  111OSM   H13B11430   3.995   2.519  10.858 -0.1312  1.0947  0.0257
  111OSM   H13C11431   4.051   2.456  10.701  0.9722 -2.6927  2.0270
  111OSM    C1211432   4.309   2.527  10.729 -0.1813 -0.2422  0.2441
  111OSM   H12A11433   4.409   2.525  10.768 -0.7823 -2.3969  1.9141
  111OSM   H12B11434   4.303   2.628  10.691 -0.1348 -0.4898 -0.4328
  111OSM    C1111435   4.311   2.429  10.609 -0.5365  0.3020  0.7355
  111OSM   H11A11436   4.369   2.479  10.528 -1.4731  1.4788  0.7620
  111OSM   H11B11437   4.208   2.406  10.574 -0.1405 -0.5619  0.0997
  111OSM      P11438   4.333   2.168  10.595  0.5680 -0.3157  0.3989
  111OSM    O1311439   4.430   2.062  10.611  0.1027  0.2263 -0.6048
  111OSM    O1411440   4.197   2.153  10.651  0.3211  0.2551 -0.2520
  111OSM    O1111441   4.314   2.187  10.436  0.1735  0.5645  0.0004
  111OSM    O1211442   4.385   2.306  10.648  0.5270 -0.5351  0.1815
  111OSM    C1S11443   4.424   2.229  10.354 -0.3649 -0.2874 -0.0427
  111OSM    H1S11444   4.507   2.155  10.354  0.3915  0.4911  2.2614
  111OSM    H1T11445   4.478   2.316  10.397 -0.1652 -0.0396 -0.7728
  111OSM     NF11446   4.511   2.294  10.129 -0.4333  0.6017 -0.2692
  111OSM    HNF11447   4.508   2.392  10.115 -0.3358  0.5927 -0.3562
  111OSM    C2S11448   4.399   2.244  10.202  0.0613 -0.7588  0.2048
  111OSM    H2S11449   4.367   2.145  10.161 -0.5888 -0.8409  0.8805
  111OSM    C3S11450   4.271   2.343  10.172 -0.0344 -0.0154  0.3592
  111OSM    H3S11451   4.297   2.435  10.229  2.4161 -0.4779  0.0823
  111OSM     O311452   4.147   2.308  10.232  0.6348  0.7407  0.1836
  111OSM    HO311453   4.170   2.249  10.304 -1.6111 -0.7179 -0.2068
  111OSM    C4S11454   4.263   2.360  10.023 -0.0888  0.2367  0.2537
  111OSM    H4S11455   4.317   2.450   9.990 -1.7662  1.0927 -0.2196
  111OSM    C5S11456   4.204   2.272   9.940  0.2252  0.0985  0.3629
  111OSM    H5S11457   4.150   2.183   9.976 -0.9335 -0.2451 -2.0071
  111OSM    C6S11458   4.189   2.288   9.792 -0.0445 -0.5149  0.7442
  111OSM    H6S11459   4.257   2.209   9.753 -0.1979 -1.8937  3.0776
  111OSM    H6T11460   4.223   2.386   9.751 -1.1735 -0.8231 -1.0647
  111OSM    C7S11461   4.039   2.264   9.759 -0.1705  0.4280  0.1695
  111OSM    H7S11462   3.981   2.343   9.811 -0.8535 -0.2028  0.3960
  111OSM    H7T11463   4.000   2.170   9.804 -3.1144  0.3220 -2.2890
  111OSM    C8S11464   4.019   2.267   9.607  0.7626 -0.1938 -0.0849
  111OSM    H8S11465   4.106   2.310   9.552  1.0143  0.0547  0.5000
  111OSM    H8T11466   3.921   2.314   9.585  1.5014  1.1360 -0.7343
  111OSM    C9S11467   4.015   2.130   9.545 -0.5643  0.1526  0.4479
  111OSM    H9S11468   3.941   2.063   9.594 -0.0137  0.9898  2.5329
  111OSM    H9T11469   4.113   2.080   9.563 -0.3907  0.2847 -0.1200
  111OSM   C10S11470   3.985   2.136   9.395 -0.2807  0.0346 -0.3318
  111OSM   H10S11471   4.040   2.212   9.336  0.8957 -0.7354 -0.2697
  111OSM   H10T11472   3.877   2.159   9.384 -0.4465 -0.9887 -1.0301
  111OSM   C11S11473   4.000   1.998   9.321  0.4208  0.1087 -0.5086
  111OSM   H11S11474   4.106   1.971   9.343 -0.0984 -0.7347  1.0955
  111OSM   H11T11475   3.967   2.017   9.217 -0.3828  2.7573  0.1422
  111OSM   C12S11476   3.901   1.891   9.365  0.4336 -0.4725 -0.4414
  111OSM   H12S11477   3.794   1.921   9.358 -0.2672 -2.2242  1.6748
  111OSM   H12T11478   3.922   1.868   9.471 -1.4723  0.2458  0.1276
  111OSM   C13S11479   3.926   1.758   9.282  0.2710  0.3678 -0.2611
  111OSM   H13S11480   3.862   1.688   9.340  0.4140  0.2006 -0.3027
  111OSM   H13T11481   4.028   1.718   9.303  0.9819  1.4699 -1.3969
  111OSM   C14S11482   3.886   1.776   9.135  0.4290  0.3019  0.4686
  111OSM   H14S11483   3.936   1.863   9.088 -0.4752  0.9868  0.7461
  111OSM   H14T11484   3.777   1.799   9.139  0.0391 -1.2624 -0.5820
  111OSM   C15S11485   3.895   1.651   9.044  0.1781  0.6080  0.2404
  111OSM   H15S11486   3.824   1.574   9.080  0.5396 -0.0103 -0.3373
  111OSM   H15T11487   4.000   1.615   9.040  0.1609  0.6352 -0.6452
  111OSM   C16S11488   3.851   1.694   8.904 -0.2803 -0.1234  0.0687
  111OSM   H16S11489   3.919   1.775   8.871 -3.0840  1.4596 -2.3735
  111OSM   H16T11490   3.750   1.741   8.906  0.0076  0.5031  1.5963
  111OSM   C17S11491   3.837   1.587   8.794  0.2390 -0.3436  0.2619
  111OSM   H17S11492   3.788   1.503   8.848  1.8752  0.1393  2.6563
  111OSM   H17T11493   3.940   1.553   8.769  1.2626  2.9331 -0.5331
  111OSM   C18S11494   3.767   1.623   8.668  0.0260 -0.6308  0.0704
  111OSM   H18S11495   3.749   1.527   8.614 -0.7932 -1.2929  1.4720
  111OSM   H18T11496   3.832   1.698   8.617  0.2968  1.0742  2.7755
  111OSM   H18U11497   3.671   1.675   8.683  0.3625 -0.0336  0.1737
  111OSM    C1F11498   4.623   2.229  10.131 -0.7495 -0.2231  0.5191
  111OSM     OF11499   4.624   2.106  10.142  0.6175  0.5253 -0.2499
  111OSM    C2F11500   4.747   2.308  10.130  0.4391  0.8202 -1.1362
  111OSM    H2F11501   4.753   2.354  10.231 -1.4344 -1.6431  0.2119
  111OSM    H2G11502   4.726   2.391  10.058  0.7367  2.0185  0.1085
  111OSM    C3F11503   4.871   2.231  10.079 -0.6383 -0.5534  0.2868
  111OSM    H3F11504   4.900   2.148  10.147  0.6440 -0.2336  0.1669
  111OSM    H3G11505   4.954   2.304  10.080  0.1825 -1.4479  1.7681
  111OSM    C4F11506   4.860   2.171   9.932  0.2056 -0.0138  0.1518
  111OSM    H4F11507   4.782   2.092   9.939  1.5939 -1.5237 -0.7368
  111OSM    H4G11508   4.956   2.118   9.916  0.3841 -0.6547  2.8679
  111OSM    C5F11509   4.835   2.281   9.820  0.2107 -0.7802 -0.3625
  111OSM    H5F11510   4.894   2.373   9.839 -2.4317  0.8097  0.7213
  111OSM    H5G11511   4.729   2.313   9.810 -0.3009 -2.7583 -1.8487
  111OSM    C6F11512   4.878   2.221   9.687  0.3250 -0.0996 -0.0852
  111OSM    H6F11513   4.830   2.124   9.661  0.3401  0.4844 -2.4648
  111OSM    H6G11514   4.986   2.195   9.685  0.6018  1.0537 -2.1814
  111OSM    C7F11515   4.867   2.321   9.576  0.3909  0.0743  1.4260
  111OSM    H7F11516   4.935   2.405   9.600 -0.7562  1.2036  0.8211
  111OSM    H7G11517   4.764   2.363   9.575  0.3196 -0.1038  0.3440
  111OSM    C8F11518   4.901   2.269   9.434  0.0544 -0.2640 -0.3417
  111OSM    H8F11519   4.818   2.209   9.392  0.4021 -0.6104 -0.5451
  111OSM    H8G11520   4.984   2.200   9.458 -0.1465  0.2039  1.9350
  111OSM    C9F11521   4.950   2.385   9.354 -0.3037 -0.2158 -0.7488
  111OSM    H9F11522   5.025   2.448   9.405 -1.8796  1.8226 -0.8182
  111OSM   C10F11523   4.917   2.416   9.226  0.2925 -0.1872 -0.4159
  111OSM   H10F11524   4.964   2.505   9.180  0.8137  0.2112  0.8614
  111OSM   C11F11525   4.831   2.346   9.126 -0.2424 -0.4434 -0.2262
  111OSM   H11F11526   4.798   2.242   9.148  0.3212 -1.2999 -3.0423
  111OSM   H11G11527   4.899   2.340   9.039  0.6164  0.6741  0.3416
  111OSM   C12F11528   4.698   2.423   9.107  0.9948 -0.1013  0.0632
  111OSM   H12F11529   4.635   2.430   9.198 -1.4682 -0.1074 -1.5447
  111OSM   H12G11530   4.651   2.358   9.030  3.2811 -0.7304 -0.8808
  111OSM   C13F11531   4.706   2.570   9.053  0.5215  0.0374  0.3597
  111OSM   H13F11532   4.768   2.640   9.112 -2.3218  2.2732  0.9185
  111OSM   H13G11533   4.606   2.618   9.060 -1.1321 -3.0957  0.1964
  111OSM   C14F11534   4.756   2.577   8.913  0.6106  0.7158  0.2057
  111OSM   H14F11535   4.689   2.525   8.840  1.8781  1.2880 -1.4390
  111OSM   H14G11536   4.854   2.524   8.910  0.4007  0.1031  2.6253
  111OSM   C15F11537   4.773   2.719   8.862 -0.0662 -0.0016 -0.0775
  111OSM   H15F11538   4.804   2.785   8.946 -0.4983  0.4340 -0.2547
  111OSM   H15G11539   4.672   2.764   8.848 -1.1457 -1.9281  1.1496
  111OSM   C16F11540   4.860   2.736   8.737  0.1558 -0.2291  0.6397
  111OSM   H16F11541   4.859   2.639   8.683 -0.4029  0.8413 -1.3565
  111OSM   H16G11542   4.959   2.777   8.764 -0.1444  1.4137 -0.6139
  111OSM   C17F11543   4.801   2.844   8.647  0.5730  0.3516 -0.3403
  111OSM   H17F11544   4.693   2.827   8.627  0.5296 -2.0953  1.5364
  111OSM   H17G11545   4.858   2.834   8.552  0.6539 -1.0948 -0.1552
  111OSM   C18F11546   4.818   2.978   8.713 -0.1232 -0.7752  0.4572
  111OSM   H18F11547   4.916   2.994   8.761 -1.2416  0.9474  2.3151
  111OSM   H18G11548   4.742   2.994   8.792  2.1592  0.3624  2.5397
  111OSM   H18H11549   4.819   3.052   8.630 -1.2721  0.3490  1.4147
  112OSM      N11550   1.219   1.302  10.630  0.2145 -0.3431 -0.5542
  112OSM    C1511551   1.253   1.441  10.615  0.8998 -0.1488  0.1945
  112OSM   H15A11552   1.182   1.503  10.666  2.4680  0.3444  1.8661
  112OSM   H15B11553   1.274   1.467  10.512 -0.5470 -1.3346 -0.4341
  112OSM   H15C11554   1.343   1.463  10.671  0.0142  1.6959  0.9484
  112OSM    C1411555   1.231   1.256  10.768 -0.1382  0.0581  0.2250
  112OSM   H14A11556   1.333   1.225  10.789  0.2459  0.8715 -0.4051
  112OSM   H14B11557   1.170   1.175  10.804 -0.5195  0.4737  0.5237
  112OSM   H14C11558   1.213   1.338  10.836  0.0487  0.6679 -0.4532
  112OSM    C1311559   1.077   1.280  10.585 -0.5516  0.4258  0.0163
  112OSM   H13A11560   1.054   1.330  10.492 -2.1354 -0.8655 -0.3304
  112OSM   H13B11561   1.002   1.308  10.656 -0.1957  1.2260  0.0852
  112OSM   H13C11562   1.059   1.174  10.570 -1.3326  0.4325  0.8574
  112OSM    C1211563   1.313   1.230  10.540 -0.2903  0.0183 -0.1486
  112OSM   H12A11564   1.286   1.268  10.443  0.5735 -1.7671 -1.1360
  112OSM   H12B11565   1.298   1.123  10.535  0.3958 -0.0508 -0.8748
  112OSM    C1111566   1.465   1.244  10.551  0.2217 -0.1394  0.3703
  112OSM   H11A11567   1.494   1.351  10.559  0.0327 -0.0353 -0.2102
  112OSM   H11B11568   1.514   1.204  10.459 -0.2754 -0.0910  0.0800
  112OSM      P11569   1.533   1.020  10.688  0.2222 -0.4226 -0.2379
  112OSM    O1311570   1.655   0.984  10.762  0.2765 -0.5096 -0.5020
  112OSM    O1411571   1.407   0.976  10.748 -0.5562 -0.7076  0.1696
  112OSM    O1111572   1.541   0.967  10.537 -0.4455 -0.1921  0.1730
  112OSM    O1211573   1.524   1.180  10.663 -0.1363  0.8807 -0.4802
  112OSM    C1S11574   1.670   0.940  10.468 -0.4025  0.0435 -0.2957
  112OSM    H1S11575   1.722   0.855  10.518  1.2098  1.7430  1.0685
  112OSM    H1T11576   1.741   1.026  10.468 -2.2430  1.7975 -3.9265
  112OSM     NF11577   1.786   0.913  10.245  0.3930  0.0044 -0.0255
  112OSM    HNF11578   1.812   1.001  10.207 -1.9120  1.4363  1.4185
  112OSM    C2S11579   1.653   0.917  10.309  0.3196 -0.7615  0.1124
  112OSM    H2S11580   1.605   0.817  10.305 -0.7393 -0.2607  0.0872
  112OSM    C3S11581   1.548   1.010  10.242  0.0140 -0.7981  0.2544
  112OSM    H3S11582   1.572   1.116  10.267  3.1029 -1.6985  1.5102
  112OSM     O311583   1.419   0.992  10.298 -0.0790  0.3674 -0.0736
  112OSM    HO311584   1.435   0.973  10.391  0.1238  2.6718  0.4125
  112OSM    C4S11585   1.551   0.984  10.093  0.5726 -0.5334 -0.1790
  112OSM    H4S11586   1.491   0.898  10.060 -1.2132  1.1165 -1.5290
  112OSM    C5S11587   1.616   1.047   9.994  0.1540 -0.3693  0.1482
  112OSM    H5S11588   1.673   1.137  10.018 -2.5959  1.1914  1.2423
  112OSM    C6S11589   1.613   1.016   9.850 -0.1034  0.2562 -0.3539
  112OSM    H6S11590   1.557   1.103   9.809 -1.6016  0.7081  2.4220
  112OSM    H6T11591   1.556   0.922   9.835  0.8714 -0.2248 -1.2477
  112OSM    C7S11592   1.746   1.020   9.777  0.6267 -0.3072 -0.4115
  112OSM    H7S11593   1.819   0.938   9.790  0.5955 -0.5104 -1.4576
  112OSM    H7T11594   1.809   1.102   9.819  2.6704 -2.7806  1.6727
  112OSM    C8S11595   1.729   1.050   9.622 -0.1559  0.8603 -0.8730
  112OSM    H8S11596   1.700   0.957   9.569 -1.6763  0.1244  1.1220
  112OSM    H8T11597   1.831   1.069   9.583 -0.7434  1.6028 -2.1212
  112OSM    C9S11598   1.644   1.173   9.582  0.0259 -0.1452 -0.0862
  112OSM    H9S11599   1.677   1.258   9.645 -0.0029 -0.4770  0.3838
  112OSM    H9T11600   1.539   1.160   9.616 -0.2787  0.0212 -0.9405
  112OSM   C10S11601   1.644   1.214   9.438  0.1974  0.4037 -0.2140
  112OSM   H10S11602   1.565   1.289   9.416 -1.0979 -1.2083 -1.2761
  112OSM   H10T11603   1.625   1.129   9.369  0.4483 -1.3512  1.7849
  112OSM   C11S11604   1.764   1.303   9.402  0.5780 -0.0698 -0.2916
  112OSM   H11S11605   1.849   1.231   9.405  1.5073  0.9602 -0.8540
  112OSM   H11T11606   1.775   1.386   9.475 -1.0674  0.9465 -1.1332
  112OSM   C12S11607   1.759   1.378   9.267  0.0972  0.6105  0.6197
  112OSM   H12S11608   1.848   1.443   9.266  0.0779  0.7034  2.0137
  112OSM   H12T11609   1.666   1.438   9.261 -1.5220 -1.8660 -1.6619
  112OSM   C13S11610   1.762   1.277   9.158 -0.0525 -0.0696 -0.0640
  112OSM   H13S11611   1.660   1.237   9.141  0.5848 -2.7704  1.8202
  112OSM   H13T11612   1.822   1.192   9.198 -0.8025 -1.3351 -1.5257
  112OSM   C14S11613   1.826   1.328   9.033  0.2756 -0.2878 -0.2167
  112OSM   H14S11614   1.934   1.344   9.052  0.1952 -0.5795  0.5557
  112OSM   H14T11615   1.793   1.431   9.008  2.7167  0.7463  0.5882
  112OSM   C15S11616   1.803   1.220   8.920 -0.4288 -0.2829 -0.6153
  112OSM   H15S11617   1.694   1.207   8.902 -0.7070  1.4899 -0.3978
  112OSM   H15T11618   1.848   1.128   8.963 -0.5780 -1.0103 -1.9647
  112OSM   C16S11619   1.872   1.253   8.794  0.0822  0.2537 -0.4431
  112OSM   H16S11620   1.980   1.266   8.817 -0.1064 -0.3702  0.9265
  112OSM   H16T11621   1.841   1.351   8.752  0.9787  0.8571  0.2577
  112OSM   C17S11622   1.852   1.147   8.681 -0.3141  0.2190  0.1117
  112OSM   H17S11623   1.745   1.120   8.667 -0.2394  0.5616 -1.1994
  112OSM   H17T11624   1.894   1.049   8.712 -1.0855  0.1258  0.9177
  112OSM   C18S11625   1.931   1.184   8.556  0.5476 -0.5226  0.3891
  112OSM   H18S11626   1.926   1.294   8.541  1.2825 -0.3824  1.1223
  112OSM   H18T11627   1.903   1.128   8.463  3.5704 -2.1575  0.3378
  112OSM   H18U11628   2.039   1.165   8.566  0.4360 -1.4282 -0.0233
  112OSM    C1F11629   1.876   0.817  10.273 -0.2951 -0.0756  0.0293
  112OSM     OF11630   1.849   0.719  10.336 -0.3531  0.8298 -0.2393
  112OSM    C2F11631   2.020   0.854  10.238 -0.4332 -0.2108 -0.3737
  112OSM    H2F11632   2.073   0.905  10.321 -1.3842 -0.6374  0.5318
  112OSM    H2G11633   2.025   0.919  10.148 -1.3850  0.0906 -0.2200
  112OSM    C3F11634   2.102   0.728  10.197  0.5375  0.6657 -0.9930
  112OSM    H3F11635   2.119   0.654  10.278 -1.8784  0.4644 -0.5938
  112OSM    H3G11636   2.199   0.769  10.162 -0.1244  1.9305 -1.4217
  112OSM    C4F11637   2.029   0.658  10.083  0.1003  0.0264 -0.2610
  112OSM    H4F11638   1.959   0.724  10.028 -0.2133 -0.7253 -0.7780
  112OSM    H4G11639   1.960   0.593  10.140  0.4691  1.0507  1.4093
  112OSM    C5F11640   2.100   0.555   9.987 -0.5014 -0.2156 -1.1013
  112OSM    H5F11641   2.011   0.508   9.941 -0.9871  0.7400 -1.1627
  112OSM    H5G11642   2.160   0.480  10.042 -0.4019  0.9068  0.3777
  112OSM    C6F11643   2.174   0.612   9.864 -0.5558 -0.1787  0.5662
  112OSM    H6F11644   2.217   0.532   9.800 -2.5101 -0.1714 -0.8508
  112OSM    H6G11645   2.255   0.685   9.885 -1.3668  1.7893 -2.4223
  112OSM    C7F11646   2.073   0.685   9.766  0.9681  0.2287 -0.1547
  112OSM    H7F11647   2.005   0.752   9.823 -2.4209 -3.6262  0.8117
  112OSM    H7G11648   2.004   0.607   9.728 -1.1941  0.4386  2.9308
  112OSM    C8F11649   2.141   0.759   9.653 -0.1805  0.0336 -0.2714
  112OSM    H8F11650   2.200   0.690   9.589  1.9837  0.4014  1.2499
  112OSM    H8G11651   2.222   0.817   9.701  0.1511 -0.0827 -0.6828
  112OSM    C9F11652   2.041   0.851   9.588 -0.2593 -0.5758  1.0307
  112OSM    H9F11653   2.005   0.925   9.661  0.8889  0.3988  0.6265
  112OSM   C10F11654   1.985   0.845   9.466 -0.2483  0.1343 -1.0823
  112OSM   H10F11655   1.904   0.913   9.437 -0.1946  0.7152  0.0643
  112OSM   C11F11656   2.006   0.737   9.366 -0.1699  0.0129 -0.5220
  112OSM   H11F11657   1.924   0.665   9.348  1.4659 -2.3964  1.0177
  112OSM   H11G11658   2.088   0.669   9.398 -1.3514 -1.0190  0.3840
  112OSM   C12F11659   2.030   0.808   9.232  0.0964  0.5281  0.0655
  112OSM   H12F11660   2.127   0.862   9.230  0.7492 -0.6293  0.0040
  112OSM   H12G11661   1.951   0.887   9.226  1.1458  2.0005  3.2599
  112OSM   C13F11662   2.024   0.707   9.113 -0.3481 -0.1443 -0.0015
  112OSM   H13F11663   1.919   0.672   9.107 -0.6415 -0.0870  3.1553
  112OSM   H13G11664   2.091   0.619   9.122  0.5429  0.6724  2.2490
  112OSM   C14F11665   2.077   0.777   8.982 -0.2421  0.4059 -0.4826
  112OSM   H14F11666   2.188   0.784   8.988 -0.3250  1.7163 -0.1931
  112OSM   H14G11667   2.029   0.877   8.987  1.4376  1.2027  1.6965
  112OSM   C15F11668   2.034   0.689   8.868  0.1972  0.4067  0.0203
  112OSM   H15F11669   1.926   0.677   8.848  0.0640  0.3198  0.7859
  112OSM   H15G11670   2.053   0.585   8.902 -0.6176  0.9427  2.3313
  112OSM   C16F11671   2.113   0.722   8.737  0.1398  0.5390  0.2751
  112OSM   H16F11672   2.119   0.633   8.670  0.0334 -0.1481  1.1660
  112OSM   H16G11673   2.220   0.744   8.759 -0.2030  1.3850  1.1675
  112OSM   C17F11674   2.048   0.839   8.664 -0.0647  0.3205 -0.0035
  112OSM   H17F11675   2.063   0.926   8.732 -0.6268 -0.6488  1.4125
  112OSM   H17G11676   1.937   0.834   8.657 -0.1324  0.3742  0.8281
  112OSM   C18F11677   2.103   0.863   8.523 -0.6054  0.3260 -0.2228
  112OSM   H18F11678   2.076   0.963   8.482  0.1932  0.6389 -0.0011
  112OSM   H18G11679   2.067   0.788   8.449 -1.4171 -0.9442  1.3994
  112OSM   H18H11680   2.214   0.858   8.527 -0.6912 -2.9836  2.0046
  113OSM      N11681   3.030   1.754  10.566  0.2003 -0.1502  0.1916
  113OSM    C1511682   3.125   1.812  10.463 -0.3877  0.0780 -0.1243
  113OSM   H15A11683   3.192   1.881  10.513 -0.4629  0.3825 -0.4460
  113OSM   H15B11684   3.073   1.866  10.385  0.1585  0.0164 -0.5345
  113OSM   H15C11685   3.191   1.739  10.419  0.9229  1.0781  0.1194
  113OSM    C1411686   2.949   1.863  10.614 -0.0632  0.1952  0.1048
  113OSM   H14A11687   3.012   1.950  10.627  0.0164  0.4606 -1.8680
  113OSM   H14B11688   2.899   1.847  10.709 -1.2448 -0.7502 -0.6572
  113OSM   H14C11689   2.874   1.898  10.545  1.5714 -2.2824 -3.1923
  113OSM    C1311690   2.940   1.652  10.504  0.6829 -0.0133 -0.0862
  113OSM   H13A11691   2.872   1.691  10.431  0.2174 -0.8249 -0.0965
  113OSM   H13B11692   2.888   1.613  10.590 -1.3875 -2.6359 -2.3776
  113OSM   H13C11693   2.983   1.564  10.458  0.7807  0.2325 -0.4705
  113OSM    C1211694   3.109   1.698  10.686  0.3002  0.4334  0.2935
  113OSM   H12A11695   3.144   1.790  10.730  1.3458 -0.3276  1.1307
  113OSM   H12B11696   3.199   1.648  10.653 -0.6713  0.1503 -2.1160
  113OSM    C1111697   3.038   1.595  10.784 -0.6474 -0.8594 -0.3004
  113OSM   H11A11698   3.111   1.551  10.856 -1.2459 -1.0769  0.1800
  113OSM   H11B11699   3.002   1.509  10.725 -0.2254 -0.8521 -0.5717
  113OSM      P11700   2.789   1.583  10.860 -0.1760  0.1076 -0.0288
  113OSM    O1311701   2.811   1.455  10.938  0.2816  0.1830  0.4678
  113OSM    O1411702   2.686   1.678  10.908  0.4153  0.6508  0.0515
  113OSM    O1111703   2.758   1.540  10.715 -0.0904 -0.4397  0.4600
  113OSM    O1211704   2.929   1.656  10.848 -0.4689 -0.2885 -0.1300
  113OSM    C1S11705   2.625   1.566  10.663 -0.7732  0.0773  0.1365
  113OSM    H1S11706   2.612   1.673  10.637  0.4709  0.2122  0.0189
  113OSM    H1T11707   2.544   1.535  10.732  1.5092 -0.6309  2.6493
  113OSM     NF11708   2.520   1.562  10.435 -0.7450 -0.1046 -0.0503
  113OSM    HNF11709   2.432   1.518  10.417 -0.5327 -0.1525 -1.0180
  113OSM    C2S11710   2.610   1.497  10.524 -0.4456 -0.2789  0.0478
  113OSM    H2S11711   2.709   1.493  10.474 -1.4083  0.2609 -1.9928
  113OSM    C3S11712   2.566   1.347  10.554  0.6679 -0.1183 -0.4746
  113OSM    H3S11713   2.467   1.357  10.605  0.9122 -0.5754  0.0970
  113OSM     O311714   2.651   1.270  10.638 -0.1079 -0.0368  0.2118
  113OSM    HO311715   2.703   1.329  10.693 -0.4794 -0.7700  1.3801
  113OSM    C4S11716   2.548   1.283  10.417 -0.2358  0.1071  0.1940
  113OSM    H4S11717   2.639   1.291  10.356  1.2192  1.6956  2.4030
  113OSM    C5S11718   2.441   1.211  10.375 -0.3801  0.2068 -0.5272
  113OSM    H5S11719   2.352   1.217  10.440 -1.8226  0.1334 -2.3993
  113OSM    C6S11720   2.421   1.159  10.232 -0.2921 -0.3543 -0.3679
  113OSM    H6S11721   2.352   1.236  10.191  2.2314  1.0121 -2.3750
  113OSM    H6T11722   2.374   1.060  10.251 -2.4268  0.9262  1.4996
  113OSM    C7S11723   2.530   1.143  10.122 -0.0744 -0.1454 -0.3758
  113OSM    H7S11724   2.488   1.073  10.046 -0.5067 -1.4408  1.0086
  113OSM    H7T11725   2.609   1.082  10.171 -0.6890 -0.7963 -0.1784
  113OSM    C8S11726   2.576   1.262  10.040  0.3339  0.0933  0.0331
  113OSM    H8S11727   2.629   1.223   9.950  0.6515 -1.8476  1.0165
  113OSM    H8T11728   2.656   1.308  10.101  1.0784 -0.4663 -0.5001
  113OSM    C9S11729   2.475   1.366   9.999  0.1957 -0.8101  0.2682
  113OSM    H9S11730   2.457   1.426  10.090  2.0677 -1.1193  0.8976
  113OSM    H9T11731   2.380   1.320   9.965  1.2384 -2.9245  0.0516
  113OSM   C10S11732   2.528   1.467   9.891 -0.1430  0.2865  0.0957
  113OSM   H10S11733   2.637   1.485   9.906 -0.0957  0.5971 -0.5626
  113OSM   H10T11734   2.480   1.566   9.909 -1.0891 -0.3042  0.8949
  113OSM   C11S11735   2.503   1.413   9.746  0.4835 -0.0022 -0.0522
  113OSM   H11S11736   2.397   1.399   9.718  0.0639  0.6996  1.1455
  113OSM   H11T11737   2.537   1.307   9.743  0.9405  0.1556 -0.9021
  113OSM   C12S11738   2.565   1.502   9.650 -0.7241 -0.5045  0.2288
  113OSM   H12S11739   2.578   1.463   9.547 -1.8859  1.7280 -0.8419
  113OSM   H12T11740   2.671   1.519   9.677 -1.1024  0.1793  1.3681
  113OSM   C13S11741   2.489   1.642   9.623  0.6087 -0.4808 -0.2103
  113OSM   H13S11742   2.549   1.727   9.660 -0.0790  0.1470 -0.5197
  113OSM   H13T11743   2.404   1.648   9.695  1.7709 -1.8381  1.3397
  113OSM   C14S11744   2.445   1.660   9.476  0.4401 -0.5070 -0.8890
  113OSM   H14S11745   2.394   1.758   9.490  2.8347  0.5598  0.9874
  113OSM   H14T11746   2.379   1.576   9.444 -0.6864  0.1420 -0.3365
  113OSM   C15S11747   2.556   1.675   9.372  0.2970  0.4587 -0.4287
  113OSM   H15S11748   2.598   1.572   9.363  0.9026  0.6045  0.5386
  113OSM   H15T11749   2.629   1.756   9.393 -0.3020  1.2576 -1.3728
  113OSM   C16S11750   2.495   1.719   9.237 -0.2053 -0.6424 -0.1717
  113OSM   H16S11751   2.452   1.820   9.254 -0.1866 -0.5166 -0.8475
  113OSM   H16T11752   2.411   1.654   9.206 -2.5936  1.2997  1.7571
  113OSM   C17S11753   2.594   1.713   9.121  0.1165  0.1763 -0.7692
  113OSM   H17S11754   2.636   1.610   9.123 -0.3270 -0.0026  0.7062
  113OSM   H17T11755   2.682   1.778   9.143 -0.3196 -0.1745  2.3888
  113OSM   C18S11756   2.534   1.750   8.985  0.1961 -0.5052  0.0012
  113OSM   H18S11757   2.510   1.858   8.971  0.0570 -0.4310  0.7408
  113OSM   H18T11758   2.443   1.691   8.963 -0.2844 -0.5486  1.8980
  113OSM   H18U11759   2.615   1.745   8.909  0.8484  2.1943  0.4044
  113OSM    C1F11760   2.539   1.680  10.384 -0.2983  0.8587 -0.4488
  113OSM     OF11761   2.651   1.734  10.384  0.0824 -0.0649  0.3523
  113OSM    C2F11762   2.414   1.743  10.331  0.0239  0.5276  0.3155
  113OSM    H2F11763   2.359   1.782  10.419  2.6836  2.9291  1.0733
  113OSM    H2G11764   2.346   1.670  10.282 -0.3044  0.9545  0.1258
  113OSM    C3F11765   2.435   1.879  10.245 -0.1316 -0.1666  0.3931
  113OSM    H3F11766   2.519   1.929  10.298 -1.4136  1.2658  1.1596
  113OSM    H3G11767   2.341   1.935  10.261 -0.1990 -0.3868  0.7839
  113OSM    C4F11768   2.450   1.861  10.092  0.1936 -0.0080 -0.3962
  113OSM    H4F11769   2.357   1.817  10.050  1.1175 -0.9033 -1.5679
  113OSM    H4G11770   2.531   1.789  10.071  0.7484  1.0874 -2.2294
  113OSM    C5F11771   2.482   1.993  10.016  0.0297 -0.2232  0.0544
  113OSM    H5F11772   2.554   2.046  10.081 -1.1759 -1.8069  2.8992
  113OSM    H5G11773   2.395   2.063  10.013  0.9815  0.9613 -0.4665
  113OSM    C6F11774   2.540   1.969   9.881 -0.2290 -0.8354  0.3970
  113OSM    H6F11775   2.468   1.908   9.822 -0.7303 -1.4511  1.6199
  113OSM    H6G11776   2.638   1.919   9.894  0.3368  0.0303 -0.3530
  113OSM    C7F11777   2.564   2.107   9.804  0.3857  0.8405 -0.8354
  113OSM    H7F11778   2.645   2.155   9.863  2.1689 -1.2187 -1.4740
  113OSM    H7G11779   2.470   2.167   9.808  1.2324  2.1698  0.2084
  113OSM    C8F11780   2.617   2.089   9.665  0.0856  0.0301  0.7543
  113OSM    H8F11781   2.676   1.995   9.658 -0.6542 -0.4266  0.4535
  113OSM    H8G11782   2.669   2.183   9.639  0.3345 -0.4880 -0.7303
  113OSM    C9F11783   2.504   2.076   9.569  0.7031 -0.2645  0.1593
  113OSM    H9F11784   2.401   2.080   9.606  0.2162 -2.1062 -0.8369
  113OSM   C10F11785   2.518   2.106   9.439  0.4251 -0.0714 -0.0873
  113OSM   H10F11786   2.432   2.101   9.371 -0.0146  1.3455  0.3343
  113OSM   C11F11787   2.651   2.144   9.371 -0.0021 -0.4003  0.0468
  113OSM   H11F11788   2.652   2.088   9.275 -0.0720 -1.2206  0.5141
  113OSM   H11G11789   2.735   2.107   9.435 -1.1077 -0.2635  1.6291
  113OSM   C12F11790   2.673   2.294   9.346  0.0516  0.5358 -0.1398
  113OSM   H12F11791   2.768   2.300   9.289 -0.6060 -2.1602 -1.6707
  113OSM   H12G11792   2.683   2.336   9.448 -0.4006  1.4280 -0.4505
  113OSM   C13F11793   2.570   2.380   9.274 -0.3894  0.1107 -0.1833
  113OSM   H13F11794   2.466   2.368   9.309 -1.0047 -2.9578 -2.6417
  113OSM   H13G11795   2.558   2.338   9.172 -3.0099 -2.2881  0.9965
  113OSM   C14F11796   2.604   2.526   9.278  0.0213  0.0060  0.7260
  113OSM   H14F11797   2.526   2.575   9.217  0.3834  0.3054  0.4992
  113OSM   H14G11798   2.700   2.558   9.230  0.2178 -1.7620 -0.1171
  113OSM   C15F11799   2.588   2.594   9.413  0.5832  0.0469  0.5028
  113OSM   H15F11800   2.678   2.583   9.477  1.2544  1.6864 -0.1162
  113OSM   H15G11801   2.502   2.548   9.465 -1.5752  2.9478 -0.2561
  113OSM   C16F11802   2.569   2.747   9.388 -0.1312 -0.2724 -1.1531
  113OSM   H16F11803   2.545   2.789   9.488 -0.5725 -2.1607 -0.4326
  113OSM   H16G11804   2.490   2.759   9.311 -1.8763  2.9000  0.8883
  113OSM   C17F11805   2.696   2.820   9.344 -0.1969  0.6453 -0.3622
  113OSM   H17F11806   2.732   2.787   9.244  2.7553 -0.1525  0.8489
  113OSM   H17G11807   2.780   2.788   9.410  0.0217 -0.7007 -1.2504
  113OSM   C18F11808   2.696   2.974   9.354  0.1679 -0.3647 -0.2383
  113OSM   H18F11809   2.625   3.021   9.283  0.6676  2.3339  0.9468
  113OSM   H18G11810   2.793   3.028   9.345 -2.0337  4.2325  0.7681
  113OSM   H18H11811   2.648   3.005   9.449 -1.2999 -0.3495 -0.9619
  114OSM      N11812   4.541   3.765  11.405 -0.1115  0.2791 -0.2120
  114OSM    C1511813   4.403   3.792  11.360 -0.3152  0.4132  0.4668
  114OSM   H15A11814   4.405   3.848  11.267  0.8932 -1.8422 -0.9444
  114OSM   H15B11815   4.351   3.849  11.435 -1.4527  2.2654 -1.5838
  114OSM   H15C11816   4.359   3.695  11.338  0.9727  0.5881 -3.9704
  114OSM    C1411817   4.606   3.900  11.446 -0.3069  0.3677  0.5887
  114OSM   H14A11818   4.570   3.937  11.541  0.2279  0.0086  0.9367
  114OSM   H14B11819   4.573   3.979  11.380  3.0943  2.8167  1.5560
  114OSM   H14C11820   4.713   3.890  11.449 -0.0094  2.3204 -1.2895
  114OSM    C1311821   4.519   3.678  11.530 -0.2996  0.1168 -0.0262
  114OSM   H13A11822   4.474   3.585  11.498  1.0054 -1.4840  2.4475
  114OSM   H13B11823   4.466   3.732  11.607  0.1256 -1.7990  1.6901
  114OSM   H13C11824   4.612   3.651  11.576 -0.2356  0.8548  0.2988
  114OSM    C1211825   4.614   3.684  11.297  0.2682  0.1954 -0.1420
  114OSM   H12A11826   4.656   3.760  11.232  0.0070  1.2918  0.9228
  114OSM   H12B11827   4.541   3.619  11.250 -1.1555  1.3216  0.4129
  114OSM    C1111828   4.731   3.586  11.327 -0.2009 -0.4949 -0.2363
  114OSM   H11A11829   4.765   3.546  11.229 -1.7555 -1.1268 -0.5445
  114OSM   H11B11830   4.707   3.498  11.390 -0.8732  0.7701  1.3364
  114OSM      P11831   4.936   3.736  11.312 -0.2615 -0.3337 -0.4528
  114OSM    O1311832   4.865   3.841  11.237  0.1538 -0.3798 -0.6484
  114OSM    O1411833   5.048   3.779  11.401  0.0599 -0.5080 -0.4535
  114OSM    O1111834   4.991   3.629  11.206 -0.2358 -0.3920 -0.0325
  114OSM    O1211835   4.837   3.648  11.394  0.1581  0.3216  0.4047
  114OSM    C1S11836   5.019   3.676  11.068 -0.0273 -0.1036  0.1008
  114OSM    H1S11837   5.077   3.771  11.067  1.4083 -0.9585 -0.7583
  114OSM    H1T11838   4.924   3.693  11.013  0.7336  0.2314 -1.1620
  114OSM     NF11839   5.141   3.633  10.857  0.0702  1.2602 -0.0546
  114OSM    HNF11840   5.092   3.594  10.780  2.2136 -1.9373  0.0164
  114OSM    C2S11841   5.107   3.576  10.985  0.8630  0.1325  0.2140
  114OSM    H2S11842   5.197   3.556  11.047  0.6212 -1.6972  0.0202
  114OSM    C3S11843   5.035   3.436  10.969 -0.3572 -0.0663 -0.3179
  114OSM    H3S11844   4.936   3.437  10.918 -1.0688  3.1172  0.8504
  114OSM     O311845   5.001   3.389  11.099  0.6692 -0.3520 -0.6275
  114OSM    HO311846   4.987   3.465  11.155 -0.4919 -1.3605  0.5406
  114OSM    C4S11847   5.119   3.335  10.912  0.7106  0.4098 -0.7609
  114OSM    H4S11848   5.214   3.321  10.966 -0.4092 -0.2568  1.1169
  114OSM    C5S11849   5.089   3.266  10.799  0.0007  0.1147 -0.2884
  114OSM    H5S11850   4.986   3.275  10.762  0.1484  0.2727 -0.6604
  114OSM    C6S11851   5.182   3.162  10.743  0.7534  0.0811  0.1244
  114OSM    H6S11852   5.130   3.064  10.754  1.5836 -0.9059 -3.5309
  114OSM    H6T11853   5.278   3.159  10.799  0.3710  2.4559  1.0240
  114OSM    C7S11854   5.203   3.178  10.585  0.1719 -0.2833 -0.6561
  114OSM    H7S11855   5.231   3.284  10.569  1.3428 -0.3773  0.5689
  114OSM    H7T11856   5.111   3.150  10.530  0.7041 -0.5210 -1.4326
  114OSM    C8S11857   5.306   3.074  10.533 -0.1690 -0.1505  0.5156
  114OSM    H8S11858   5.317   2.990  10.605  1.2530 -1.0914 -0.7424
  114OSM    H8T11859   5.410   3.112  10.543  0.8502 -2.8354  0.9779
  114OSM    C9S11860   5.278   3.021  10.389  0.6190  0.0761 -0.2348
  114OSM    H9S11861   5.168   3.016  10.374  0.4347 -0.5662  1.0807
  114OSM    H9T11862   5.320   2.918  10.386 -1.2147 -0.6758 -1.8524
  114OSM   C10S11863   5.328   3.115  10.287 -0.2361 -0.3426 -0.2888
  114OSM   H10S11864   5.436   3.137  10.303 -0.0256 -0.7076 -1.1354
  114OSM   H10T11865   5.277   3.213  10.278  4.4075  2.2113 -2.7147
  114OSM   C11S11866   5.321   3.061  10.147 -0.2775  0.7553  0.4055
  114OSM   H11S11867   5.223   3.014  10.123  0.2437  0.0796 -0.4787
  114OSM   H11T11868   5.396   2.979  10.141  1.8788  2.6006  0.8441
  114OSM   C12S11869   5.360   3.161  10.049 -0.0816 -0.1249 -0.1985
  114OSM   H12S11870   5.459   3.208  10.067 -0.9619  1.3443  1.0815
  114OSM   H12T11871   5.282   3.241  10.045 -0.7628 -0.8113 -3.6146
  114OSM   C13S11872   5.374   3.109   9.903  0.3780 -0.3439  0.0806
  114OSM   H13S11873   5.275   3.089   9.858  1.5002 -0.8356 -2.3633
  114OSM   H13T11874   5.438   3.018   9.894 -0.7858 -1.0201 -2.3072
  114OSM   C14S11875   5.443   3.220   9.813  0.3414  0.3199  0.0637
  114OSM   H14S11876   5.552   3.217   9.830  0.4208 -1.1700 -0.5835
  114OSM   H14T11877   5.398   3.318   9.839  0.7508  0.4653  0.2283
  114OSM   C15S11878   5.397   3.208   9.664 -0.7633 -0.0142 -0.0399
  114OSM   H15S11879   5.299   3.260   9.655  0.2276  1.8675 -0.4663
  114OSM   H15T11880   5.381   3.103   9.632 -0.9925  0.0404 -0.1033
  114OSM   C16S11881   5.486   3.288   9.563 -0.1882 -0.1181  0.6471
  114OSM   H16S11882   5.585   3.237   9.569  0.1045  0.5979  2.9376
  114OSM   H16T11883   5.500   3.390   9.605 -0.2987  0.3921 -0.5209
  114OSM   C17S11884   5.431   3.294   9.413  0.1867  0.7296 -0.2392
  114OSM   H17S11885   5.350   3.219   9.403  1.7239 -0.6416 -5.0975
  114OSM   H17T11886   5.510   3.252   9.347  1.8194  0.8565  1.5282
  114OSM   C18S11887   5.382   3.433   9.372 -0.6655 -0.3230 -0.2603
  114OSM   H18S11888   5.353   3.444   9.265 -0.5209  1.4146 -0.1483
  114OSM   H18T11889   5.465   3.505   9.391  0.0875 -1.2570  0.0885
  114OSM   H18U11890   5.288   3.460   9.424 -0.9907  0.7845 -1.3881
  114OSM    C1F11891   5.213   3.743  10.840 -0.0265  0.9657  1.2009
  114OSM     OF11892   5.267   3.795  10.936  0.7188  0.4927 -0.7320
  114OSM    C2F11893   5.224   3.799  10.704  0.5784 -0.3245 -0.3014
  114OSM    H2F11894   5.254   3.906  10.708 -1.2534  0.1920  0.6580
  114OSM    H2G11895   5.123   3.810  10.659  0.3269  2.3427  0.7551
  114OSM    C3F11896   5.308   3.705  10.616 -0.4414  0.5889  0.8232
  114OSM    H3F11897   5.264   3.603  10.615  1.1274 -0.1486 -1.2978
  114OSM    H3G11898   5.413   3.701  10.651  0.2233  0.0572 -1.0857
  114OSM    C4F11899   5.314   3.762  10.474  0.1409  0.5157 -0.3340
  114OSM    H4F11900   5.378   3.853  10.471 -1.2637  1.5788  0.5047
  114OSM    H4G11901   5.211   3.779  10.435 -0.2552 -1.4867 -0.2672
  114OSM    C5F11902   5.368   3.664  10.372 -0.3299  0.5003  0.4232
  114OSM    H5F11903   5.304   3.573  10.375  0.6410 -0.1895  0.5629
  114OSM    H5G11904   5.470   3.626  10.395 -0.6748  0.1848  1.4702
  114OSM    C6F11905   5.376   3.717  10.226 -0.0036 -0.3173  0.3135
  114OSM    H6F11906   5.462   3.787  10.218  0.1752 -0.5231  0.4422
  114OSM    H6G11907   5.281   3.769  10.201 -0.3284 -0.0643  1.9649
  114OSM    C7F11908   5.411   3.609  10.125 -0.0853 -0.2195  0.4079
  114OSM    H7F11909   5.355   3.517  10.148 -1.8028 -0.2170 -3.1403
  114OSM    H7G11910   5.513   3.568  10.145  0.1214 -0.1513 -0.4724
  114OSM    C8F11911   5.394   3.650   9.977  0.2492 -0.4207  0.0621
  114OSM    H8F11912   5.425   3.567   9.911  0.7207 -0.3435  0.1850
  114OSM    H8G11913   5.475   3.725   9.966 -0.4602  0.4927  0.8261
  114OSM    C9F11914   5.263   3.704   9.934 -0.2320 -0.1583 -1.2858
  114OSM    H9F11915   5.178   3.675   9.997  1.2413 -0.4304  0.6428
  114OSM   C10F11916   5.240   3.805   9.846  0.4473  0.3177 -0.5255
  114OSM   H10F11917   5.141   3.840   9.812  0.7414  0.0312 -1.7348
  114OSM   C11F11918   5.352   3.868   9.769 -0.0645 -0.2366  0.6741
  114OSM   H11F11919   5.441   3.889   9.832  0.0088  2.0271 -0.0768
  114OSM   H11G11920   5.330   3.971   9.734 -0.9754 -0.5409  0.3323
  114OSM   C12F11921   5.396   3.786   9.647  0.3593  0.1889  0.1683
  114OSM   H12F11922   5.309   3.750   9.589  0.6619  0.6728 -0.5948
  114OSM   H12G11923   5.454   3.703   9.694  1.0918  1.9757  2.5906
  114OSM   C13F11924   5.492   3.861   9.553  0.2967 -0.3308  0.1124
  114OSM   H13F11925   5.587   3.881   9.607  1.5760 -1.9873 -1.3991
  114OSM   H13G11926   5.452   3.961   9.528 -0.8211 -0.3010  1.8390
  114OSM   C14F11927   5.541   3.782   9.421 -0.2505 -0.5946 -0.1661
  114OSM   H14F11928   5.464   3.796   9.342 -1.2369 -0.1769  0.8437
  114OSM   H14G11929   5.565   3.675   9.436 -0.1896 -0.5998 -0.3000
  114OSM   C15F11930   5.668   3.851   9.359  0.0795 -0.0544 -0.0138
  114OSM   H15F11931   5.755   3.827   9.424  0.1920 -1.5001 -0.6479
  114OSM   H15G11932   5.648   3.960   9.352  0.3284  0.0917  1.2172
  114OSM   C16F11933   5.703   3.799   9.217 -0.4360 -0.0412  0.2737
  114OSM   H16F11934   5.624   3.807   9.141  0.2140 -0.6326 -0.4793
  114OSM   H16G11935   5.714   3.689   9.218 -0.3291 -0.0379 -0.4263
  114OSM   C17F11936   5.826   3.883   9.174 -0.5270  0.2122 -0.1455
  114OSM   H17F11937   5.811   3.993   9.184 -1.3437  0.0558  0.4735
  114OSM   H17G11938   5.832   3.852   9.068  1.4703  0.4070 -0.1242
  114OSM   C18F11939   5.957   3.841   9.227  0.4317  0.4515 -0.3196
  114OSM   H18F11940   6.039   3.892   9.171  1.6965 -0.5538  0.5475
  114OSM   H18G11941   5.973   3.731   9.214 -1.9488  0.0362 -0.1240
  114OSM   H18H11942   5.970   3.871   9.333  0.7154 -0.2653 -0.1449
  115OSM      N11943   5.238   2.423   6.097 -0.3162  0.1381 -0.5561
  115OSM    C1511944   5.213   2.552   6.016 -0.6774  0.4556 -0.6706
  115OSM   H15A11945   5.107   2.562   5.995 -1.3313 -4.1192 -0.6263
  115OSM   H15B11946   5.275   2.550   5.927  0.0903 -2.6908 -0.1620
  115OSM   H15C11947   5.246   2.643   6.065 -0.4309 -0.2654  0.5395
  115OSM    C1411948   5.207   2.317   6.005  0.8353  0.3773 -0.0092
  115OSM   H14A11949   5.236   2.219   6.039  1.0149  0.2095 -0.6342
  115OSM   H14B11950   5.260   2.330   5.912 -0.6272  2.3252 -0.6327
  115OSM   H14C11951   5.101   2.317   5.989  1.0668  1.9920 -1.8536
  115OSM    C1311952   5.375   2.413   6.154 -0.0450  0.9157  0.7789
  115OSM   H13A11953   5.380   2.332   6.226  1.0329  0.1894 -0.0834
  115OSM   H13B11954   5.400   2.504   6.207  1.5877  1.8697 -1.4869
  115OSM   H13C11955   5.443   2.391   6.073 -1.1476 -1.8176  0.4765
  115OSM    C1211956   5.144   2.410   6.223 -0.1182  0.5903 -0.1837
  115OSM   H12A11957   5.163   2.317   6.274 -1.0073 -0.0573 -1.0218
  115OSM   H12B11958   5.045   2.398   6.183 -0.2471  0.4340  0.1848
  115OSM    C1111959   5.145   2.530   6.317  0.4037 -0.3239 -0.7299
  115OSM   H11A11960   5.248   2.563   6.345  0.6058 -0.6312 -1.1108
  115OSM   H11B11961   5.101   2.501   6.415 -1.1567 -0.7594 -1.5229
  115OSM      P11962   5.108   2.789   6.284  0.2783 -0.4374  0.0941
  115OSM    O1311963   5.253   2.798   6.272  0.6769  0.0082  0.7537
  115OSM    O1411964   5.036   2.873   6.185 -0.5384 -0.0538  0.0289
  115OSM    O1111965   5.057   2.819   6.427  0.5550 -0.6483  0.3459
  115OSM    O1211966   5.074   2.643   6.255 -0.6102  0.4003  0.1121
  115OSM    C1S11967   4.934   2.771   6.480  0.0405 -0.9359 -0.4938
  115OSM    H1S11968   4.932   2.660   6.474  1.1428 -0.8936 -2.2498
  115OSM    H1T11969   4.843   2.809   6.428  1.3070  1.1012 -1.3498
  115OSM     NF11970   4.819   2.730   6.693 -0.5509  0.0097 -0.1666
  115OSM    HNF11971   4.743   2.784   6.729 -1.3715 -0.1523 -1.5894
  115OSM    C2S11972   4.926   2.800   6.632  0.2768 -0.0867  0.0285
  115OSM    H2S11973   5.024   2.765   6.672  1.4959  0.3627 -2.3520
  115OSM    C3S11974   4.917   2.957   6.655 -0.0385  0.9202 -0.1883
  115OSM    H3S11975   4.822   2.984   6.604 -0.0625 -0.4177 -0.8838
  115OSM     O311976   5.014   3.034   6.582  0.7820  0.2254  0.3597
  115OSM    HO311977   5.052   2.965   6.528  2.2980  0.7384  0.7337
  115OSM    C4S11978   4.928   2.985   6.800  0.1172  0.4456 -0.9212
  115OSM    H4S11979   5.021   2.945   6.843 -0.5286 -0.9637 -0.7759
  115OSM    C5S11980   4.838   3.030   6.892 -0.3069 -0.1760  0.1948
  115OSM    H5S11981   4.734   3.040   6.860  0.5607  0.5800 -2.6814
  115OSM    C6S11982   4.868   3.051   7.040  0.4363  0.4794  0.3179
  115OSM    H6S11983   4.797   2.985   7.094  1.2558  0.3458  1.2586
  115OSM    H6T11984   4.824   3.148   7.073 -2.1145 -1.3396  2.8255
  115OSM    C7S11985   5.011   3.039   7.093 -0.3368 -0.9170 -0.2885
  115OSM    H7S11986   5.090   3.078   7.024  0.9456  0.9326  2.0868
  115OSM    H7T11987   5.029   2.930   7.109  1.6505 -0.5331  0.4161
  115OSM    C8S11988   5.037   3.108   7.226  0.2561 -0.0883  0.2582
  115OSM    H8S11989   4.989   3.208   7.215 -0.5768 -0.5396 -0.3826
  115OSM    H8T11990   5.147   3.122   7.228  0.4038  2.2549 -5.1621
  115OSM    C9S11991   4.976   3.029   7.344 -0.1805  0.8242 -0.4614
  115OSM    H9S11992   5.024   2.930   7.331  0.2877  1.0620 -0.5599
  115OSM    H9T11993   4.872   2.993   7.329  0.2441 -1.0502  0.7430
  115OSM   C10S11994   5.022   3.089   7.476  0.1264 -0.0475  0.0196
  115OSM   H10S11995   4.947   3.167   7.503 -0.7189 -1.1582  0.9499
  115OSM   H10T11996   5.128   3.123   7.467 -0.1690  1.7821  2.3018
  115OSM   C11S11997   5.033   2.990   7.593 -0.7026  0.2726 -0.6512
  115OSM   H11S11998   5.104   2.906   7.581 -0.6890 -0.2959  2.5955
  115OSM   H11T11999   4.929   2.952   7.606 -0.1645 -1.0012  0.1307
  115OSM   C12S12000   5.066   3.064   7.723 -0.7812  0.8414  0.1896
  115OSM   H12S12001   4.985   3.138   7.738  0.0767  1.7513  0.4246
  115OSM   H12T12002   5.160   3.122   7.714  0.0345 -0.3413  0.8783
  115OSM   C13S12003   5.066   2.967   7.839  0.4643 -0.1853  0.0925
  115OSM   H13S12004   5.143   2.888   7.827  0.7603  0.1922 -0.4956
  115OSM   H13T12005   4.965   2.920   7.845  0.4968 -0.3238 -0.4185
  115OSM   C14S12006   5.084   3.029   7.981 -0.8031 -0.0038 -0.6944
  115OSM   H14S12007   5.004   3.104   7.998 -2.7223 -2.2258  0.6732
  115OSM   H14T12008   5.184   3.075   7.983 -1.4360  1.3939  0.2365
  115OSM   C15S12009   5.083   2.927   8.101  0.1950  1.0615 -0.4689
  115OSM   H15S12010   5.156   2.849   8.071 -0.2538  0.6223 -0.4262
  115OSM   H15T12011   4.985   2.876   8.115  1.7248 -2.0733 -0.3884
  115OSM   C16S12012   5.122   2.990   8.234  0.5092 -0.7078 -0.5817
  115OSM   H16S12013   5.218   3.046   8.226  0.2663  0.1769  1.7799
  115OSM   H16T12014   5.152   2.905   8.299  1.6037 -0.9986 -1.4340
  115OSM   C17S12015   5.017   3.070   8.307 -0.3501 -0.5556  0.2305
  115OSM   H17S12016   4.929   3.007   8.334 -0.6025  0.2884  1.4928
  115OSM   H17T12017   4.977   3.138   8.228 -1.0768 -0.3488  0.7576
  115OSM   C18S12018   5.059   3.160   8.428  0.1086  0.0289 -0.3248
  115OSM   H18S12019   4.972   3.219   8.466  1.4552  0.3871  2.5227
  115OSM   H18T12020   5.140   3.228   8.393  0.0034 -0.1445 -0.9145
  115OSM   H18U12021   5.107   3.096   8.506 -1.7653 -0.3999  0.5513
  115OSM    C1F12022   4.832   2.597   6.707  0.0836 -0.1140 -0.6164
  115OSM     OF12023   4.932   2.537   6.676 -0.4182 -0.5568 -0.2769
  115OSM    C2F12024   4.714   2.520   6.769  0.0882  0.2942 -0.1345
  115OSM    H2F12025   4.668   2.454   6.693 -1.4833  1.0445  0.1345
  115OSM    H2G12026   4.631   2.589   6.794 -1.2700 -1.5917  0.7643
  115OSM    C3F12027   4.753   2.430   6.891  0.5263  0.6223  0.8395
  115OSM    H3F12028   4.848   2.378   6.868 -0.2705 -1.6909  2.4014
  115OSM    H3G12029   4.668   2.362   6.912  1.1104 -1.1555 -2.0463
  115OSM    C4F12030   4.783   2.520   7.013  0.3455 -0.4914  0.0279
  115OSM    H4F12031   4.691   2.579   7.033  0.7837  0.6476 -1.1917
  115OSM    H4G12032   4.855   2.597   6.980 -1.2151  1.0405  0.0900
  115OSM    C5F12033   4.840   2.448   7.137 -0.1433  0.5263 -0.0821
  115OSM    H5F12034   4.936   2.396   7.118  0.4891  1.0334  1.5846
  115OSM    H5G12035   4.765   2.372   7.166  0.1876 -0.4395 -1.6614
  115OSM    C6F12036   4.856   2.540   7.257 -0.6051 -0.0927 -0.0809
  115OSM    H6F12037   4.918   2.632   7.244  0.7382 -1.1837 -1.8719
  115OSM    H6G12038   4.924   2.488   7.328  0.1905  3.9203  2.4353
  115OSM    C7F12039   4.734   2.578   7.337 -0.0642  0.4225  0.0099
  115OSM    H7F12040   4.696   2.487   7.388  2.3684 -0.4932  0.2731
  115OSM    H7G12041   4.658   2.621   7.268  1.7156  0.6938 -1.8454
  115OSM    C8F12042   4.775   2.681   7.449 -0.4877  0.1071  0.2664
  115OSM    H8F12043   4.687   2.723   7.503 -0.3189 -0.5594  1.0797
  115OSM    H8G12044   4.827   2.762   7.393  1.4313  0.9245  3.0145
  115OSM    C9F12045   4.881   2.626   7.540  0.3316 -0.4856  0.1886
  115OSM    H9F12046   4.979   2.625   7.490 -0.0425  1.3835 -0.6799
  115OSM   C10F12047   4.875   2.610   7.670  0.1993  0.5020 -0.0428
  115OSM   H10F12048   4.968   2.583   7.722  0.6879 -0.4500 -1.3374
  115OSM   C11F12049   4.763   2.648   7.760 -0.0802 -0.5706 -0.3590
  115OSM   H11F12050   4.667   2.596   7.741 -1.0545  0.8144  0.5482
  115OSM   H11G12051   4.734   2.754   7.746 -0.7893 -0.7038  0.0425
  115OSM   C12F12052   4.795   2.634   7.919  0.3330 -0.2619 -0.1322
  115OSM   H12F12053   4.708   2.684   7.965  0.3767  2.2343 -2.4599
  115OSM   H12G12054   4.881   2.704   7.932  1.2713 -1.2923 -0.6042
  115OSM   C13F12055   4.826   2.495   7.973  0.1803  0.4484 -0.4390
  115OSM   H13F12056   4.901   2.442   7.911  0.2666 -1.1632  0.9602
  115OSM   H13G12057   4.742   2.422   7.975 -0.7002  1.4598  1.5661
  115OSM   C14F12058   4.890   2.502   8.110 -0.9398 -0.6330 -0.4700
  115OSM   H14F12059   4.984   2.562   8.104 -0.4759 -1.1590  0.9682
  115OSM   H14G12060   4.923   2.406   8.155 -2.8587 -1.2356 -0.2603
  115OSM   C15F12061   4.806   2.560   8.230 -0.4959 -0.0085 -0.0161
  115OSM   H15F12062   4.711   2.503   8.226 -0.1574 -0.7232  1.4799
  115OSM   H15G12063   4.778   2.664   8.201  0.9356  0.7310  1.1276
  115OSM   C16F12064   4.867   2.548   8.371 -0.1573  1.0165  0.2694
  115OSM   H16F12065   4.798   2.593   8.446 -0.1130 -0.7912  1.4664
  115OSM   H16G12066   4.961   2.607   8.384  1.4762 -1.5781  0.9400
  115OSM   C17F12067   4.882   2.398   8.414 -0.3244  0.2630  0.2669
  115OSM   H17F12068   4.930   2.344   8.330  1.6880  3.3699 -0.7426
  115OSM   H17G12069   4.779   2.363   8.437  0.1087 -0.5343  1.0428
  115OSM   C18F12070   4.969   2.360   8.533  0.1065 -0.4082  0.1881
  115OSM   H18F12071   4.932   2.404   8.628  0.1343 -2.2041  1.0858
  115OSM   H18G12072   5.073   2.396   8.517  1.0494 -2.7434  0.6523
  115OSM   H18H12073   4.975   2.249   8.545 -1.7195 -0.4887  0.5925
  116OSM      N12074   5.047   6.411   6.140 -0.3493 -0.0448  0.3105
  116OSM    C1512075   4.933   6.387   6.044  0.3288 -0.8067  0.2339
  116OSM   H15A12076   4.847   6.430   6.093  0.3078 -1.9839  1.3016
  116OSM   H15B12077   4.913   6.286   6.012  2.7513 -1.6904  1.1697
  116OSM   H15C12078   4.956   6.440   5.953 -3.2052 -0.5402 -0.6304
  116OSM    C1412079   5.038   6.301   6.247  0.2103  0.0690  0.1977
  116OSM   H14A12080   5.053   6.203   6.205 -0.8165 -1.5573  3.3086
  116OSM   H14B12081   4.947   6.310   6.304 -1.3395 -0.8341 -1.9752
  116OSM   H14C12082   5.114   6.321   6.322 -0.0299 -0.2245  0.5217
  116OSM    C1312083   5.173   6.396   6.054 -0.5155 -0.1140  0.0177
  116OSM   H13A12084   5.253   6.405   6.126 -0.7471  2.4359  0.0410
  116OSM   H13B12085   5.183   6.468   5.974  0.7461 -1.8501 -1.4852
  116OSM   H13C12086   5.177   6.297   6.012 -0.4034 -0.1438  0.0998
  116OSM    C1212087   5.055   6.551   6.206  0.2225  0.1839 -0.1691
  116OSM   H12A12088   5.069   6.618   6.123  0.8065 -2.4300 -2.3021
  116OSM   H12B12089   5.144   6.552   6.268  0.1629 -1.4095 -0.0309
  116OSM    C1112090   4.927   6.604   6.288 -0.1249  0.0966 -0.1501
  116OSM   H11A12091   4.943   6.703   6.337 -0.6989 -0.5994  1.4886
  116OSM   H11B12092   4.921   6.525   6.365  1.9217 -0.1374 -0.1701
  116OSM      P12093   4.674   6.565   6.247 -0.3562 -0.1869  0.3905
  116OSM    O1312094   4.575   6.646   6.182 -0.0330 -0.2067 -0.6646
  116OSM    O1412095   4.657   6.420   6.237  0.2058 -0.3458 -0.4235
  116OSM    O1112096   4.673   6.605   6.404  0.4243 -0.1283  0.1626
  116OSM    O1212097   4.818   6.615   6.200 -0.0647  0.0599 -0.2129
  116OSM    C1S12098   4.546   6.600   6.470 -0.8434  0.1487  0.3584
  116OSM    H1S12099   4.504   6.498   6.475  0.3938 -0.3083  2.5585
  116OSM    H1T12100   4.477   6.679   6.432  1.4918  3.2150  1.9935
  116OSM     NF12101   4.449   6.624   6.695  0.2733 -0.0331 -0.3331
  116OSM    HNF12102   4.398   6.709   6.703  0.9808  0.4211 -0.6067
  116OSM    C2S12103   4.574   6.631   6.618  0.2501 -0.3275 -0.5418
  116OSM    H2S12104   4.648   6.563   6.664 -0.3403 -0.3206  0.4367
  116OSM    C3S12105   4.630   6.773   6.628 -0.2699  0.4566 -0.4377
  116OSM    H3S12106   4.548   6.834   6.586  0.3475 -0.2192 -2.7987
  116OSM     O312107   4.743   6.798   6.551 -0.0811 -0.4608  0.2960
  116OSM    HO312108   4.738   6.722   6.493  1.7401  0.6174 -1.4140
  116OSM    C4S12109   4.666   6.806   6.775  0.2946  0.2316 -0.7410
  116OSM    H4S12110   4.696   6.716   6.830 -2.0654 -0.7866 -1.0223
  116OSM    C5S12111   4.647   6.926   6.833  0.3957  0.0285 -0.6066
  116OSM    H5S12112   4.587   7.000   6.777 -0.7187  1.6028  2.4521
  116OSM    C6S12113   4.667   6.957   6.971 -0.1173 -0.0145 -0.4776
  116OSM    H6S12114   4.701   6.865   7.024 -0.2850  1.4866  2.4890
  116OSM    H6T12115   4.571   6.978   7.024 -0.7809  0.8039 -1.9547
  116OSM    C7S12116   4.781   7.063   6.989  1.5832  0.8679 -0.1178
  116OSM    H7S12117   4.747   7.152   6.932 -0.8226  0.2240  0.1921
  116OSM    H7T12118   4.872   7.023   6.939  0.0146  1.3461 -3.7165
  116OSM    C8S12119   4.800   7.109   7.137 -0.6346  0.6731  0.4824
  116OSM    H8S12120   4.811   7.013   7.192 -0.6057  0.7799  0.6641
  116OSM    H8T12121   4.709   7.162   7.173 -0.3077  0.9843  0.8646
  116OSM    C9S12122   4.928   7.198   7.158 -0.2177  0.0508  0.2402
  116OSM    H9S12123   4.917   7.297   7.108  3.2756 -0.1281 -1.1496
  116OSM    H9T12124   5.017   7.160   7.104  0.4864  0.6944  0.9164
  116OSM   C10S12125   4.958   7.221   7.311 -0.2550  0.6740  0.1342
  116OSM   H10S12126   5.066   7.245   7.310  0.7424 -2.8288  2.5386
  116OSM   H10T12127   4.966   7.118   7.352 -0.6332  0.1971 -0.9447
  116OSM   C11S12128   4.863   7.310   7.377  0.1509 -0.4027  0.0469
  116OSM   H11S12129   4.760   7.301   7.337  0.7572 -0.5134 -1.5287
  116OSM   H11T12130   4.893   7.411   7.343 -0.1465 -0.1096  0.6197
  116OSM   C12S12131   4.839   7.310   7.534 -0.7496 -0.1349 -0.2262
  116OSM   H12S12132   4.769   7.231   7.568 -0.5054  0.3322  1.4407
  116OSM   H12T12133   4.795   7.408   7.562  0.1298  0.1510  0.1779
  116OSM   C13S12134   4.973   7.308   7.614  0.3398  0.3340  0.0449
  116OSM   H13S12135   5.049   7.373   7.567  2.4228 -0.9154  1.5249
  116OSM   H13T12136   5.018   7.208   7.595  0.4895  0.6298 -1.2799
  116OSM   C14S12137   4.961   7.350   7.755  0.4975 -0.5585 -0.2639
  116OSM   H14S12138   4.910   7.449   7.759  0.1909 -0.7252 -0.0109
  116OSM   H14T12139   5.063   7.372   7.791  0.5744 -0.3093 -0.6295
  116OSM   C15S12140   4.885   7.264   7.852 -0.7782  0.3754 -0.0748
  116OSM   H15S12141   4.923   7.159   7.855 -2.6869 -0.3586 -0.5249
  116OSM   H15T12142   4.782   7.246   7.816  0.4235 -3.1925 -2.3305
  116OSM   C16S12143   4.873   7.323   7.990 -0.0214 -0.4797  0.3148
  116OSM   H16S12144   4.763   7.333   8.001 -0.0944 -0.9533  0.0315
  116OSM   H16T12145   4.922   7.423   7.996  0.6169 -0.8470  1.6752
  116OSM   C17S12146   4.921   7.233   8.100  0.0604 -0.1269  0.0101
  116OSM   H17S12147   5.031   7.234   8.108  0.1138 -1.7770 -0.0624
  116OSM   H17T12148   4.885   7.130   8.078 -0.0189  0.0152 -0.5248
  116OSM   C18S12149   4.867   7.291   8.232 -0.1474 -1.1979  0.1760
  116OSM   H18S12150   4.905   7.234   8.319  2.6172  0.5852  0.2704
  116OSM   H18T12151   4.756   7.291   8.228 -0.1572 -1.2696  0.4606
  116OSM   H18U12152   4.893   7.398   8.245  0.1403 -1.0486 -1.4069
  116OSM    C1F12153   4.406   6.518   6.762  0.5112  0.0488 -0.3037
  116OSM     OF12154   4.470   6.417   6.764 -0.4158  0.2543 -0.0216
  116OSM    C2F12155   4.276   6.533   6.850 -0.1457 -0.0606  0.4094
  116OSM    H2F12156   4.231   6.434   6.827 -0.3374  0.0406  0.3513
  116OSM    H2G12157   4.217   6.622   6.820  2.4539  1.5264 -0.3219
  116OSM    C3F12158   4.323   6.545   6.994 -0.4214  0.3088 -0.3766
  116OSM    H3F12159   4.387   6.462   7.029 -2.3177 -1.0564  0.0163
  116OSM    H3G12160   4.227   6.534   7.049 -1.2559  0.2211 -1.7911
  116OSM    C4F12161   4.390   6.685   7.020 -0.0169  0.4511 -0.1122
  116OSM    H4F12162   4.319   6.756   6.974 -0.2348  1.8720  2.2505
  116OSM    H4G12163   4.484   6.691   6.960 -2.3716  2.1232 -3.9866
  116OSM    C5F12164   4.385   6.741   7.165  0.6292 -0.1523  0.1106
  116OSM    H5F12165   4.291   6.713   7.216  0.7719 -0.5069  0.1789
  116OSM    H5G12166   4.382   6.852   7.158  0.5235 -0.0668  1.3407
  116OSM    C6F12167   4.497   6.695   7.263 -0.4348  0.4669  1.0681
  116OSM    H6F12168   4.601   6.692   7.223 -1.1817  2.4113 -1.2199
  116OSM    H6G12169   4.469   6.587   7.272 -1.6649  0.7984  1.3625
  116OSM    C7F12170   4.503   6.754   7.403  0.0923 -0.3309 -0.6127
  116OSM    H7F12171   4.548   6.672   7.463 -1.4241  0.5772  1.9153
  116OSM    H7G12172   4.399   6.747   7.440  1.3329 -2.4643  2.9724
  116OSM    C8F12173   4.558   6.901   7.412  0.4149  0.1830  0.3054
  116OSM    H8F12174   4.510   6.942   7.504  2.0341 -0.1650  1.3371
  116OSM    H8G12175   4.526   6.967   7.328  1.5375 -0.1786 -0.4148
  116OSM    C9F12176   4.705   6.893   7.432  0.7632  0.1278  0.6364
  116OSM    H9F12177   4.767   6.927   7.348  0.1484  1.4182  0.6730
  116OSM   C10F12178   4.765   6.864   7.551 -0.2863 -0.7090  0.6712
  116OSM   H10F12179   4.873   6.847   7.554  0.2133  2.0002  0.4065
  116OSM   C11F12180   4.688   6.844   7.682  0.3942  0.2524  0.3357
  116OSM   H11F12181   4.765   6.790   7.742  1.4011 -0.0891 -1.2141
  116OSM   H11G12182   4.594   6.787   7.662 -0.2817  0.8145  1.7873
  116OSM   C12F12183   4.670   6.973   7.758 -0.4216 -0.6462 -0.0802
  116OSM   H12F12184   4.614   7.046   7.696 -0.0597  0.0114  0.3547
  116OSM   H12G12185   4.769   7.020   7.778  0.2558 -0.7892 -2.7767
  116OSM   C13F12186   4.607   6.940   7.890  0.2479 -0.8035 -0.4172
  116OSM   H13F12187   4.682   6.902   7.963  0.9043  1.0040 -0.1028
  116OSM   H13G12188   4.536   6.856   7.873  0.6520 -0.8828 -1.9191
  116OSM   C14F12189   4.544   7.068   7.955 -0.2060  0.6465 -0.4951
  116OSM   H14F12190   4.477   7.111   7.878 -1.5171 -5.4923 -3.3926
  116OSM   H14G12191   4.625   7.143   7.970 -0.5009  1.1916 -1.5448
  116OSM   C15F12192   4.475   7.038   8.090  0.0906 -0.3157 -0.4655
  116OSM   H15F12193   4.557   7.020   8.162  0.7946 -1.0015 -1.4115
  116OSM   H15G12194   4.425   6.939   8.085  0.9260 -0.8678  1.2567
  116OSM   C16F12195   4.380   7.143   8.148  0.6367  0.6472  0.5267
  116OSM   H16F12196   4.306   7.157   8.067  1.7704 -1.2813 -0.9270
  116OSM   H16G12197   4.433   7.241   8.157  1.6889  0.1280  0.1492
  116OSM   C17F12198   4.322   7.103   8.279 -0.4373  0.1270 -0.8756
  116OSM   H17F12199   4.403   7.103   8.355  0.1331  0.2835 -1.4751
  116OSM   H17G12200   4.270   7.005   8.274  0.6809 -0.4661 -1.2345
  116OSM   C18F12201   4.219   7.209   8.315  0.2128 -0.2822  0.4676
  116OSM   H18F12202   4.122   7.204   8.262 -0.4990 -3.3116  1.8349
  116OSM   H18G12203   4.265   7.308   8.297  0.5414 -0.8963 -2.6949
  116OSM   H18H12204   4.202   7.202   8.424  1.2541  0.3169  0.6868
  117OSM      N12205   3.416   1.183   6.104  0.9827  0.3200  0.4725
  117OSM    C1512206   3.345   1.053   6.102  0.8803 -0.6936  0.4442
  117OSM   H15A12207   3.238   1.068   6.109  0.7731 -1.6622  1.1710
  117OSM   H15B12208   3.368   0.983   6.182  2.5452 -1.1101 -0.3511
  117OSM   H15C12209   3.365   0.998   6.011 -0.3760 -0.2095 -0.1396
  117OSM    C1412210   3.548   1.162   6.046  0.6204 -0.5481 -0.0302
  117OSM   H14A12211   3.554   1.137   5.941  1.5185 -2.1772  0.3721
  117OSM   H14B12212   3.581   1.077   6.104 -2.4324 -0.4065  2.1312
  117OSM   H14C12213   3.602   1.253   6.069 -0.3897  0.4413 -1.3987
  117OSM    C1312214   3.344   1.270   6.010 -0.2080 -1.4295  0.3386
  117OSM   H13A12215   3.322   1.218   5.918  1.1127 -0.1689 -0.7315
  117OSM   H13B12216   3.396   1.363   5.994 -1.7106 -0.2851  1.7155
  117OSM   H13C12217   3.249   1.305   6.049  1.5722  0.8273  3.0368
  117OSM    C1212218   3.421   1.259   6.239  0.2513  0.0462  0.3921
  117OSM   H12A12219   3.448   1.361   6.215 -0.1661  0.1577  0.3866
  117OSM   H12B12220   3.492   1.210   6.303  1.0780  0.9636  0.1918
  117OSM    C1112221   3.292   1.280   6.320 -0.3201  0.2148 -0.3411
  117OSM   H11A12222   3.308   1.313   6.425 -1.2342 -0.6044  0.0735
  117OSM   H11B12223   3.237   1.186   6.343  0.4342  0.0610  0.9624
  117OSM      P12224   3.212   1.521   6.272 -0.0875 -0.3332  0.1216
  117OSM    O1312225   3.352   1.549   6.229 -0.1275  0.5123  0.0216
  117OSM    O1412226   3.100   1.590   6.210  0.3168 -0.3882  0.3116
  117OSM    O1112227   3.211   1.544   6.432 -0.2224  0.2171  0.5105
  117OSM    O1212228   3.199   1.366   6.256 -0.4484 -0.2122 -0.1126
  117OSM    C1S12229   3.085   1.565   6.502 -0.3437  0.0332 -0.6987
  117OSM    H1S12230   3.042   1.466   6.527 -1.9579  1.5374  3.2602
  117OSM    H1T12231   3.012   1.626   6.444 -1.4168 -1.2987 -0.7959
  117OSM     NF12232   2.979   1.661   6.707 -0.4038 -0.5394  0.8429
  117OSM    HNF12233   2.940   1.752   6.695 -0.2220 -0.4612  0.8447
  117OSM    C2S12234   3.105   1.641   6.634 -0.3088  0.1514 -0.2416
  117OSM    H2S12235   3.165   1.572   6.696  1.3568  0.8216 -1.0535
  117OSM    C3S12236   3.187   1.774   6.609 -0.1218  0.0958  0.3139
  117OSM    H3S12237   3.139   1.821   6.522 -1.8921 -1.5312  0.3358
  117OSM     O312238   3.314   1.751   6.557 -0.6511 -0.0419 -0.2850
  117OSM    HO312239   3.308   1.658   6.538 -1.8629  0.4513 -2.7403
  117OSM    C4S12240   3.197   1.857   6.724 -0.8331 -0.7009 -0.4741
  117OSM    H4S12241   3.236   1.792   6.805  1.8521  0.0150 -1.0885
  117OSM    C5S12242   3.176   1.992   6.744 -0.3727 -0.3280  0.1908
  117OSM    H5S12243   3.140   2.047   6.656 -1.6786 -0.8201  0.3904
  117OSM    C6S12244   3.184   2.072   6.875 -0.2898  0.8154  0.6091
  117OSM    H6S12245   3.093   2.132   6.893  0.0606  1.2642  0.8815
  117OSM    H6T12246   3.264   2.146   6.854 -0.6262  1.9798  3.1091
  117OSM    C7S12247   3.230   1.999   7.001 -0.3699 -0.2625  0.1490
  117OSM    H7S12248   3.332   1.956   7.001 -1.1385 -2.2239 -1.4331
  117OSM    H7T12249   3.159   1.917   7.023 -1.6059  0.8522  0.5192
  117OSM    C8S12250   3.236   2.097   7.124  0.0184 -0.6882 -0.1528
  117OSM    H8S12251   3.137   2.144   7.142  0.1850 -0.5861  0.5609
  117OSM    H8T12252   3.312   2.173   7.096  1.4419 -1.5129  1.2819
  117OSM    C9S12253   3.283   2.023   7.247  0.4223  0.2683  0.5641
  117OSM    H9S12254   3.373   1.960   7.229 -0.8017 -1.9959  1.8928
  117OSM    H9T12255   3.203   1.948   7.263 -1.2086  1.0175 -2.9524
  117OSM   C10S12256   3.298   2.120   7.366 -0.3944  0.7674  0.5620
  117OSM   H10S12257   3.201   2.167   7.392 -0.2706  1.5026 -0.2578
  117OSM   H10T12258   3.360   2.209   7.344  1.0718 -0.7560 -2.0335
  117OSM   C11S12259   3.359   2.057   7.495  0.2158  0.7905 -0.5316
  117OSM   H11S12260   3.462   2.021   7.476 -0.2136 -0.0586 -1.3357
  117OSM   H11T12261   3.296   1.975   7.537 -2.1079  1.7358 -1.9260
  117OSM   C12S12262   3.361   2.165   7.608 -0.0513  0.2762  0.1149
  117OSM   H12S12263   3.256   2.181   7.639 -1.1857  0.5272 -3.4048
  117OSM   H12T12264   3.402   2.263   7.576 -2.5085  1.7093  1.0967
  117OSM   C13S12265   3.430   2.117   7.738  0.0274  0.3662 -0.3201
  117OSM   H13S12266   3.382   2.160   7.829  0.8132 -2.3571  1.5169
  117OSM   H13T12267   3.532   2.161   7.738  0.3192 -0.2412  1.2476
  117OSM   C14S12268   3.459   1.968   7.772 -0.3931 -0.3887  0.2998
  117OSM   H14S12269   3.518   1.928   7.686 -0.1830 -2.2090  1.2378
  117OSM   H14T12270   3.359   1.921   7.781  0.2626 -1.8905  0.1581
  117OSM   C15S12271   3.534   1.954   7.909  0.0963  0.7095  0.5733
  117OSM   H15S12272   3.469   2.012   7.978 -0.5977  0.2173  0.3351
  117OSM   H15T12273   3.636   1.995   7.892 -0.5232  2.1115  0.0537
  117OSM   C16S12274   3.538   1.813   7.955 -0.1763  0.3756  1.0300
  117OSM   H16S12275   3.577   1.758   7.868 -0.7835  0.0906  0.9352
  117OSM   H16T12276   3.430   1.790   7.967 -0.6654  1.7487 -0.4231
  117OSM   C17S12277   3.620   1.780   8.082 -0.2293 -0.0977 -0.3187
  117OSM   H17S12278   3.725   1.806   8.061  0.1572 -2.0912 -1.1294
  117OSM   H17T12279   3.617   1.669   8.089  0.3045 -0.1940 -1.4128
  117OSM   C18S12280   3.574   1.846   8.210  0.8901  0.0883  0.8028
  117OSM   H18S12281   3.649   1.837   8.292  2.0671 -0.2468 -0.2857
  117OSM   H18T12282   3.475   1.803   8.239  0.6680 -0.7726 -1.1325
  117OSM   H18U12283   3.560   1.952   8.181 -0.1373 -0.3220 -0.2968
  117OSM    C1F12284   2.913   1.565   6.760  0.1730  0.1951 -0.7537
  117OSM     OF12285   2.944   1.449   6.752 -0.0709  0.4340  0.6688
  117OSM    C2F12286   2.790   1.608   6.842  0.0537  0.0945  0.3385
  117OSM    H2F12287   2.702   1.574   6.783  0.4533  1.6610 -1.2459
  117OSM    H2G12288   2.785   1.719   6.842  0.7520  0.1329  0.2739
  117OSM    C3F12289   2.778   1.539   6.981  0.2667  0.1941  0.8964
  117OSM    H3F12290   2.877   1.547   7.030  0.8647 -0.8700 -0.0989
  117OSM    H3G12291   2.757   1.435   6.950 -0.5841  1.2308 -2.4184
  117OSM    C4F12292   2.661   1.593   7.066  0.3760  0.1960 -0.1482
  117OSM    H4F12293   2.586   1.514   7.088  0.2583  0.7396  1.6038
  117OSM    H4G12294   2.608   1.678   7.018 -0.4538 -0.2827 -0.1154
  117OSM    C5F12295   2.697   1.649   7.211  0.1165  0.2410  0.4734
  117OSM    H5F12296   2.622   1.728   7.235 -1.1792 -0.6257 -0.5476
  117OSM    H5G12297   2.794   1.703   7.206  0.7970 -1.0178 -3.4905
  117OSM    C6F12298   2.691   1.548   7.330  0.1476 -0.3708  0.1196
  117OSM    H6F12299   2.682   1.444   7.290  0.0144 -0.1608 -0.4118
  117OSM    H6G12300   2.593   1.555   7.381  0.4571 -1.6281  0.9389
  117OSM    C7F12301   2.808   1.557   7.427 -0.1270  0.3678 -0.1970
  117OSM    H7F12302   2.841   1.661   7.448 -0.2931  0.0111  2.0512
  117OSM    H7G12303   2.895   1.513   7.374 -0.1190 -0.1667  0.2584
  117OSM    C8F12304   2.779   1.486   7.561  0.3701 -0.3658  0.3345
  117OSM    H8F12305   2.737   1.386   7.539  1.7386 -0.4154 -2.4683
  117OSM    H8G12306   2.707   1.553   7.612  2.4447  2.0499  0.3190
  117OSM    C9F12307   2.911   1.471   7.640  0.5046  0.3708  0.2583
  117OSM    H9F12308   3.001   1.442   7.584  1.4744 -0.7384  2.2904
  117OSM   C10F12309   2.924   1.493   7.767 -0.6324 -0.9286 -0.2344
  117OSM   H10F12310   3.026   1.489   7.807  0.2485  2.6421 -1.7203
  117OSM   C11F12311   2.822   1.542   7.865 -0.0406  0.7358  0.7757
  117OSM   H11F12312   2.724   1.541   7.814 -0.3960  0.9195  1.4476
  117OSM   H11G12313   2.851   1.645   7.896  2.0071 -0.4334  3.0693
  117OSM   C12F12314   2.816   1.458   7.993  0.2065 -0.2008  0.5024
  117OSM   H12F12315   2.910   1.466   8.052 -0.3905 -0.4546  1.5168
  117OSM   H12G12316   2.788   1.354   7.967  3.5413 -0.8406 -1.1487
  117OSM   C13F12317   2.708   1.514   8.084 -0.6782  0.1087  0.6829
  117OSM   H13F12318   2.611   1.500   8.032 -0.8900  1.2756  0.7486
  117OSM   H13G12319   2.725   1.623   8.093  0.0141  0.1754 -1.0933
  117OSM   C14F12320   2.716   1.453   8.225 -0.5635 -0.0516 -0.2916
  117OSM   H14F12321   2.813   1.495   8.260 -0.1280 -0.7953 -0.5892
  117OSM   H14G12322   2.711   1.343   8.212 -0.1396 -0.2710  1.2158
  117OSM   C15F12323   2.605   1.488   8.322 -0.4576  0.2334  0.3203
  117OSM   H15F12324   2.627   1.433   8.417  1.0757 -1.9457 -1.1885
  117OSM   H15G12325   2.505   1.451   8.292 -0.5357  0.2709  0.5310
  117OSM   C16F12326   2.576   1.644   8.349 -0.2758  0.0341  0.4011
  117OSM   H16F12327   2.473   1.650   8.391 -0.4879  1.5861 -0.2510
  117OSM   H16G12328   2.578   1.700   8.253 -3.0073  0.8986  0.7519
  117OSM   C17F12329   2.671   1.720   8.440 -0.8661  0.2630 -0.1191
  117OSM   H17F12330   2.672   1.685   8.546  1.3065 -0.8964 -0.4754
  117OSM   H17G12331   2.777   1.703   8.414 -0.9100 -0.2577  0.0367
  117OSM   C18F12332   2.649   1.876   8.436  0.3550  0.3122 -0.6645
  117OSM   H18F12333   2.568   1.921   8.496  0.5169  1.4770 -1.2892
  117OSM   H18G12334   2.648   1.919   8.333  1.6931  0.0762 -0.7987
  117OSM   H18H12335   2.744   1.919   8.474  0.6007 -0.0900 -0.8162
  118OSM      N12336   6.034   2.833   6.092  0.7077 -0.5985  0.4295
  118OSM    C1512337   5.912   2.842   6.000 -0.1265  0.0096 -0.5201
  118OSM   H15A12338   5.940   2.866   5.898  1.3774 -1.4230 -0.4849
  118OSM   H15B12339   5.845   2.915   6.043  0.6347  0.4698 -0.0721
  118OSM   H15C12340   5.865   2.745   5.999  2.2433 -1.2538  1.1724
  118OSM    C1412341   5.999   2.738   6.203  0.1829 -0.0467  0.6208
  118OSM   H14A12342   5.956   2.648   6.161 -2.2504  1.3995 -0.2210
  118OSM   H14B12343   5.921   2.785   6.261 -1.2523  0.7152 -1.7690
  118OSM   H14C12344   6.085   2.715   6.264  0.6250  0.8160  0.3402
  118OSM    C1312345   6.133   2.770   6.002  0.2975 -0.3490  0.2778
  118OSM   H13A12346   6.139   2.824   5.909 -3.6045 -2.1792 -1.2455
  118OSM   H13B12347   6.106   2.670   5.970 -0.2998  0.1266 -0.7640
  118OSM   H13C12348   6.233   2.778   6.043  0.4045  2.8065 -0.3871
  118OSM    C1212349   6.078   2.968   6.128  0.5002 -0.6838  0.2351
  118OSM   H12A12350   6.084   3.026   6.037 -1.5927 -1.2971 -0.3581
  118OSM   H12B12351   6.173   2.963   6.180  0.6344  0.8527  0.1768
  118OSM    C1112352   5.984   3.046   6.219  0.0571  0.2444 -0.2363
  118OSM   H11A12353   6.035   3.140   6.249 -1.7343  1.6486 -1.3663
  118OSM   H11B12354   5.976   2.988   6.313  0.0898 -1.5564 -1.3111
  118OSM      P12355   5.825   3.199   6.082  0.3882 -0.0339 -0.1097
  118OSM    O1312356   5.934   3.227   5.989 -0.3850  0.4191 -0.5120
  118OSM    O1412357   5.687   3.194   6.030 -0.0405  0.3844  0.0998
  118OSM    O1112358   5.824   3.319   6.197 -0.4164  0.1334 -0.1308
  118OSM    O1212359   5.852   3.070   6.169 -0.5731 -0.1129 -0.4097
  118OSM    C1S12360   5.729   3.324   6.306  0.1751 -0.0685  0.0174
  118OSM    H1S12361   5.657   3.239   6.300  1.7187 -1.5887  1.8169
  118OSM    H1T12362   5.674   3.420   6.301 -1.3759 -0.8421  1.2914
  118OSM     NF12363   5.691   3.302   6.540 -0.7604  0.4488 -0.1585
  118OSM    HNF12364   5.659   3.382   6.590 -0.1740  0.7784 -0.2951
  118OSM    C2S12365   5.791   3.327   6.448  0.5511 -0.1695 -0.0967
  118OSM    H2S12366   5.862   3.242   6.452  0.0244 -0.6025  0.2585
  118OSM    C3S12367   5.877   3.454   6.464  0.3250 -0.3569  0.5624
  118OSM    H3S12368   5.817   3.545   6.447  0.6190 -0.1060  0.8534
  118OSM     O312369   5.986   3.476   6.380 -0.2308 -0.1506  0.4172
  118OSM    HO312370   5.975   3.423   6.301  4.5551 -1.1813  0.1556
  118OSM    C4S12371   5.923   3.467   6.610  0.4450  0.5676 -0.0817
  118OSM    H4S12372   5.850   3.523   6.670 -0.4370 -0.8286  0.1993
  118OSM    C5S12373   6.032   3.422   6.675  0.3243  0.5305 -0.4474
  118OSM    H5S12374   6.109   3.364   6.622  0.9557  0.3756  0.6056
  118OSM    C6S12375   6.061   3.456   6.824  0.7016 -0.1076  0.2146
  118OSM    H6S12376   5.983   3.527   6.860  0.1985 -0.2311 -0.5951
  118OSM    H6T12377   6.162   3.489   6.857  0.2635  0.8625  0.6319
  118OSM    C7S12378   6.018   3.325   6.891  0.1235  0.4995 -0.5335
  118OSM    H7S12379   6.073   3.241   6.844 -1.6106 -0.4086 -1.0452
  118OSM    H7T12380   5.911   3.303   6.868  0.3957 -0.4693 -0.8904
  118OSM    C8S12381   6.034   3.332   7.046  0.2329  0.1848  0.1111
  118OSM    H8S12382   5.987   3.423   7.090 -2.3830 -1.6070  1.2649
  118OSM    H8T12383   6.142   3.314   7.062  0.6299  0.6122 -1.8016
  118OSM    C9S12384   5.962   3.220   7.118 -0.1949  0.5208 -0.1611
  118OSM    H9S12385   5.993   3.121   7.079 -0.1512  0.6363 -0.4258
  118OSM    H9T12386   5.853   3.222   7.098  0.0393  0.8467 -1.5237
  118OSM   C10S12387   5.985   3.234   7.274 -0.3236 -0.4971 -0.2813
  118OSM   H10S12388   5.947   3.335   7.301  2.1551  0.3719  0.2590
  118OSM   H10T12389   6.093   3.230   7.302 -0.9787 -1.8646  2.4629
  118OSM   C11S12390   5.904   3.134   7.352  0.5818  1.3466 -0.7307
  118OSM   H11S12391   5.933   3.029   7.331 -1.8071  0.1104  1.5273
  118OSM   H11T12392   5.795   3.137   7.333 -1.1915 -3.9619  5.2064
  118OSM   C12S12393   5.913   3.166   7.504  0.0596 -0.2063 -0.1892
  118OSM   H12S12394   5.828   3.119   7.559  1.4840 -0.5052  1.9103
  118OSM   H12T12395   5.907   3.275   7.524  0.1968  0.1923 -2.1703
  118OSM   C13S12396   6.042   3.121   7.572  0.0198  0.2455 -0.6097
  118OSM   H13S12397   6.123   3.182   7.527  0.2718  1.0800  0.9193
  118OSM   H13T12398   6.064   3.017   7.541  2.1158  0.1623  0.9900
  118OSM   C14S12399   6.042   3.122   7.729  0.3594  0.3520  0.5470
  118OSM   H14S12400   5.996   3.213   7.773 -0.3978  0.0041  0.4820
  118OSM   H14T12401   6.146   3.100   7.762  0.6767 -0.1297 -0.7323
  118OSM   C15S12402   5.959   3.007   7.791 -0.2548 -0.3815  0.0423
  118OSM   H15S12403   6.024   2.918   7.775  0.3206 -0.0884  0.6703
  118OSM   H15T12404   5.864   2.987   7.737 -1.2302 -0.1752  1.6204
  118OSM   C16S12405   5.933   3.019   7.939  0.4566  0.4720  0.2068
  118OSM   H16S12406   5.867   2.936   7.972  1.9521 -1.8951 -2.3302
  118OSM   H16T12407   5.885   3.115   7.968 -0.4548  0.5558 -1.4422
  118OSM   C17S12408   6.060   3.005   8.014 -0.2425 -0.2728  0.5903
  118OSM   H17S12409   6.125   3.092   7.990  0.7138 -1.8039 -3.1845
  118OSM   H17T12410   6.111   2.918   7.967 -0.2990  1.2522 -2.5874
  118OSM   C18S12411   6.045   2.988   8.166 -0.3972  0.2082  0.0922
  118OSM   H18S12412   5.988   3.080   8.194 -0.7191  0.2422 -0.6399
  118OSM   H18T12413   6.141   2.991   8.221  0.3082  0.5304 -1.1074
  118OSM   H18U12414   5.980   2.900   8.187 -1.5900  1.6696  3.0685
  118OSM    C1F12415   5.629   3.184   6.558 -1.0420  1.2557 -0.4213
  118OSM     OF12416   5.674   3.079   6.509  0.1723  0.0033  0.3283
  118OSM    C2F12417   5.502   3.184   6.636 -0.1782  0.2867  0.7223
  118OSM    H2F12418   5.412   3.213   6.578 -1.1271 -1.6420  1.1808
  118OSM    H2G12419   5.523   3.262   6.713 -1.2332  1.3568 -0.0410
  118OSM    C3F12420   5.481   3.061   6.725  0.1194 -0.0646  0.3187
  118OSM    H3F12421   5.569   3.066   6.793  0.5042  2.0745 -0.2717
  118OSM    H3G12422   5.483   2.967   6.667 -1.4925  1.2663 -2.0747
  118OSM    C4F12423   5.345   3.072   6.799  0.1993  0.0981 -0.5175
  118OSM    H4F12424   5.314   2.969   6.830 -1.8095  0.3559 -1.4921
  118OSM    H4G12425   5.259   3.106   6.738 -1.4792 -0.2065  1.5656
  118OSM    C5F12426   5.369   3.149   6.930  0.2828  0.2568  0.1467
  118OSM    H5F12427   5.266   3.176   6.963  1.0378  3.9266 -0.0541
  118OSM    H5G12428   5.420   3.244   6.904 -0.6539 -0.2842 -4.6234
  118OSM    C6F12429   5.450   3.081   7.040  0.4278  0.5067 -0.0803
  118OSM    H6F12430   5.544   3.031   7.009  0.2538 -1.7169  2.6324
  118OSM    H6G12431   5.391   2.996   7.081 -0.8484  0.8171 -1.2160
  118OSM    C7F12432   5.487   3.185   7.143  0.5062 -0.2878  0.2308
  118OSM    H7F12433   5.397   3.241   7.175 -1.3708 -3.2380  0.5475
  118OSM    H7G12434   5.565   3.250   7.098  0.2845 -0.3631 -0.2706
  118OSM    C8F12435   5.536   3.128   7.272 -0.2705  0.1180  0.4091
  118OSM    H8F12436   5.574   3.209   7.339  2.3370 -2.6041  2.5030
  118OSM    H8G12437   5.627   3.072   7.240 -0.9665 -1.0879  0.4713
  118OSM    C9F12438   5.451   3.019   7.343 -0.7029  0.8524 -0.0513
  118OSM    H9F12439   5.388   2.956   7.279 -0.8725  0.9027  0.0666
  118OSM   C10F12440   5.425   3.023   7.478 -0.2801 -0.0654  0.4027
  118OSM   H10F12441   5.359   2.951   7.529  1.1504 -0.9610  1.0611
  118OSM   C11F12442   5.494   3.108   7.576 -0.1858 -0.5776 -0.5510
  118OSM   H11F12443   5.446   3.208   7.563 -3.0098 -1.6746  0.6686
  118OSM   H11G12444   5.603   3.107   7.558 -0.4404 -0.4819 -2.1986
  118OSM   C12F12445   5.468   3.054   7.724  0.0964 -0.3076 -0.3672
  118OSM   H12F12446   5.499   2.949   7.743  1.9379  0.5485  1.9894
  118OSM   H12G12447   5.361   3.070   7.747  0.3687 -2.1285  2.9372
  118OSM   C13F12448   5.550   3.140   7.824 -0.2667  0.4284 -0.2417
  118OSM   H13F12449   5.513   3.245   7.818  0.5041  1.0555  3.3624
  118OSM   H13G12450   5.656   3.160   7.799 -1.0975  3.0489 -2.1456
  118OSM   C14F12451   5.521   3.092   7.964 -0.2121  0.7186 -0.7593
  118OSM   H14F12452   5.544   2.984   7.978  0.2511  0.8212 -0.7169
  118OSM   H14G12453   5.411   3.099   7.982 -0.1313 -1.0025  0.6905
  118OSM   C15F12454   5.591   3.172   8.075 -0.7127 -0.0547 -0.2602
  118OSM   H15F12455   5.560   3.279   8.065 -1.3717 -0.1882  0.2592
  118OSM   H15G12456   5.702   3.171   8.067 -0.8110 -0.2429 -1.8357
  118OSM   C16F12457   5.547   3.127   8.212  0.2471 -1.1627  0.1792
  118OSM   H16F12458   5.438   3.143   8.228  0.3834 -0.3658  0.3721
  118OSM   H16G12459   5.594   3.200   8.282 -1.1163 -0.1741  0.1078
  118OSM   C17F12460   5.588   2.978   8.258  0.1530 -0.3838  0.4075
  118OSM   H17F12461   5.538   2.906   8.191 -0.5729 -0.4045  0.9622
  118OSM   H17G12462   5.552   2.971   8.363 -2.6897 -0.8018 -0.5123
  118OSM   C18F12463   5.733   2.951   8.261  0.3598  0.5937  0.1012
  118OSM   H18F12464   5.739   2.842   8.237 -0.3936 -0.1814  3.0747
  118OSM   H18G12465   5.773   2.974   8.362 -0.1431 -0.9185  0.6708
  118OSM   H18H12466   5.788   3.006   8.181 -0.1906  2.6314  1.0810
  119OSM      N12467   6.504   3.242   5.455  0.2508  0.2566  0.6497
  119OSM    C1512468   6.424   3.224   5.334 -0.3539  0.5372  0.3876
  119OSM   H15A12469   6.357   3.140   5.340  0.9482 -0.7147 -1.6383
  119OSM   H15B12470   6.487   3.206   5.248 -0.3354 -2.1559  0.8615
  119OSM   H15C12471   6.363   3.313   5.326  0.8230  1.4169  0.8980
  119OSM    C1412472   6.584   3.116   5.487 -0.4175 -0.2021 -0.3510
  119OSM   H14A12473   6.656   3.101   5.408 -0.4905  1.2103 -0.7099
  119OSM   H14B12474   6.520   3.029   5.492 -0.4787 -0.1404  4.0492
  119OSM   H14C12475   6.630   3.111   5.585 -1.0833 -0.0450 -0.0284
  119OSM    C1312476   6.597   3.356   5.443 -0.7884 -0.1006  0.1644
  119OSM   H13A12477   6.597   3.391   5.340  2.8129 -2.5179 -0.8565
  119OSM   H13B12478   6.701   3.330   5.456 -0.6757 -0.2479 -0.9107
  119OSM   H13C12479   6.569   3.442   5.501 -2.7899  0.2427 -1.2140
  119OSM    C1212480   6.416   3.274   5.574  1.0973  0.1465 -0.6781
  119OSM   H12A12481   6.327   3.213   5.575 -0.5255  2.3481 -2.4124
  119OSM   H12B12482   6.374   3.372   5.558 -1.7129 -0.6862  1.0057
  119OSM    C1112483   6.476   3.265   5.720 -0.2616 -0.2005  0.5449
  119OSM   H11A12484   6.402   3.326   5.776  0.5535  1.5249 -0.1906
  119OSM   H11B12485   6.572   3.320   5.712 -1.2532  1.4361 -0.8963
  119OSM      P12486   6.614   3.119   5.878  0.1350 -0.0065  0.0990
  119OSM    O1312487   6.587   3.008   5.968 -0.1680  0.0964 -0.2232
  119OSM    O1412488   6.736   3.101   5.795  0.2416 -0.2728 -0.0440
  119OSM    O1112489   6.617   3.254   5.958  0.1693  0.0029 -0.2574
  119OSM    O1212490   6.490   3.136   5.774  0.1033 -0.0151  0.0348
  119OSM    C1S12491   6.506   3.286   6.044 -0.3347 -0.7662 -0.4908
  119OSM    H1S12492   6.438   3.200   6.064 -2.1775  0.5608 -0.8025
  119OSM    H1T12493   6.440   3.352   5.983  1.0054 -0.1601 -1.3326
  119OSM     NF12494   6.441   3.340   6.274 -0.2510 -0.8220 -0.5688
  119OSM    HNF12495   6.375   3.415   6.274  0.2435 -0.3800 -1.0057
  119OSM    C2S12496   6.544   3.350   6.175 -1.0251  0.2128  0.4897
  119OSM    H2S12497   6.636   3.301   6.213 -0.8962  0.1480  0.1021
  119OSM    C3S12498   6.584   3.504   6.146 -0.6439  0.5846  0.3127
  119OSM    H3S12499   6.495   3.556   6.105 -0.5102 -0.6119 -1.6369
  119OSM     O312500   6.677   3.520   6.037  0.2065  0.4946  0.1868
  119OSM    HO312501   6.677   3.431   6.001 -0.0005  0.2071  0.8623
  119OSM    C4S12502   6.648   3.569   6.263 -0.3644  1.3925  0.0044
  119OSM    H4S12503   6.748   3.532   6.290 -1.8207 -0.9676  2.8503
  119OSM    C5S12504   6.577   3.652   6.341 -0.2525  0.6430 -0.2128
  119OSM    H5S12505   6.472   3.668   6.310 -0.2737 -1.3005 -1.2855
  119OSM    C6S12506   6.634   3.715   6.468 -0.2401  0.6488 -0.3763
  119OSM    H6S12507   6.595   3.818   6.467  0.3211  0.9201  1.5345
  119OSM    H6T12508   6.746   3.715   6.469 -0.2216 -0.2602  1.2242
  119OSM    C7S12509   6.570   3.654   6.592 -0.8088 -0.4240  0.3243
  119OSM    H7S12510   6.626   3.707   6.672 -0.1081 -0.5119 -0.1053
  119OSM    H7T12511   6.598   3.547   6.594 -0.4473 -0.3434  2.4916
  119OSM    C8S12512   6.426   3.671   6.612 -0.2165  0.8303  0.1582
  119OSM    H8S12513   6.370   3.616   6.533  0.1338  0.7871 -0.0603
  119OSM    H8T12514   6.394   3.775   6.593  0.5208  0.9559 -0.4335
  119OSM    C9S12515   6.380   3.631   6.751  0.2635  0.2090 -0.0163
  119OSM    H9S12516   6.409   3.527   6.777 -1.0603 -0.1180  0.2214
  119OSM    H9T12517   6.269   3.622   6.742  0.4844 -1.6690 -1.5062
  119OSM   C10S12518   6.416   3.721   6.867  0.3856  0.2418  0.4152
  119OSM   H10S12519   6.384   3.826   6.851 -0.3145  0.2170  1.6373
  119OSM   H10T12520   6.527   3.726   6.861  0.4542 -0.8375  0.5844
  119OSM   C11S12521   6.353   3.666   6.996 -0.1963 -0.6161 -0.4910
  119OSM   H11S12522   6.403   3.569   7.021 -0.2943 -0.4318  0.4715
  119OSM   H11T12523   6.246   3.653   6.972 -0.5638  0.4583  0.4539
  119OSM   C12S12524   6.362   3.764   7.111 -0.3394 -0.3807  0.7650
  119OSM   H12S12525   6.306   3.859   7.099  1.1520  0.4554  0.1000
  119OSM   H12T12526   6.471   3.781   7.123  0.2247 -2.7227 -0.2986
  119OSM   C13S12527   6.307   3.698   7.239 -1.0307  0.0628  0.3321
  119OSM   H13S12528   6.368   3.721   7.329 -1.1766 -0.5051  0.5753
  119OSM   H13T12529   6.324   3.591   7.216  2.1085  0.6939 -0.8154
  119OSM   C14S12530   6.158   3.709   7.261  0.6077  0.1458  0.2538
  119OSM   H14S12531   6.107   3.648   7.183  0.4459  1.9240 -1.0785
  119OSM   H14T12532   6.125   3.814   7.247 -0.2915 -0.3419 -1.5219
  119OSM   C15S12533   6.122   3.654   7.395 -0.1999 -0.1148  0.6010
  119OSM   H15S12534   6.159   3.552   7.416  0.9944  0.0249 -0.6806
  119OSM   H15T12535   6.011   3.649   7.401 -0.1641 -0.9513  0.6969
  119OSM   C16S12536   6.164   3.749   7.503 -0.0160  0.3394 -0.3468
  119OSM   H16S12537   6.135   3.851   7.468  0.5512  0.8714  0.6668
  119OSM   H16T12538   6.274   3.744   7.521  0.9134  4.3648 -3.4027
  119OSM   C17S12539   6.086   3.720   7.627 -0.0605  0.0287  0.0003
  119OSM   H17S12540   6.092   3.612   7.654 -1.2479 -0.0931 -0.1623
  119OSM   H17T12541   5.978   3.737   7.604 -0.3843 -0.4586  1.0966
  119OSM   C18S12542   6.137   3.813   7.733 -0.5686 -0.4593  0.0004
  119OSM   H18S12543   6.127   3.916   7.693 -2.1324 -0.5698  0.0671
  119OSM   H18T12544   6.243   3.793   7.761 -0.5148  1.1231  1.0829
  119OSM   H18U12545   6.083   3.794   7.828  0.7625  0.7015  1.0361
  119OSM    C1F12546   6.408   3.222   6.326  0.1311 -0.5298  0.5660
  119OSM     OF12547   6.464   3.117   6.298 -0.3962 -0.2714 -0.2181
  119OSM    C2F12548   6.293   3.223   6.418  0.0653  0.5817 -0.1089
  119OSM    H2F12549   6.201   3.267   6.374 -1.7105 -1.7113  1.0437
  119OSM    H2G12550   6.313   3.287   6.507 -2.4117  0.8090  0.3507
  119OSM    C3F12551   6.245   3.082   6.463 -0.6875 -1.2900 -0.1290
  119OSM    H3F12552   6.334   3.030   6.505  0.4042 -0.3609 -1.2076
  119OSM    H3G12553   6.203   3.028   6.376 -0.5864 -1.7054  0.0785
  119OSM    C4F12554   6.145   3.083   6.571 -0.6175 -0.1301 -0.1355
  119OSM    H4F12555   6.059   3.148   6.542 -0.6293 -1.1867 -2.6781
  119OSM    H4G12556   6.180   3.127   6.667 -1.4175  1.8494 -0.7019
  119OSM    C5F12557   6.076   2.950   6.599 -0.0742  0.0896 -0.1569
  119OSM    H5F12558   6.158   2.876   6.608  0.0002  0.3423  1.4947
  119OSM    H5G12559   6.010   2.915   6.517 -2.0099  3.0871 -0.0612
  119OSM    C6F12560   5.985   2.953   6.729  0.1898  0.1308  0.0248
  119OSM    H6F12561   5.894   3.014   6.709  0.6555  0.7842 -0.1278
  119OSM    H6G12562   6.033   3.000   6.817  0.3186 -0.4519  0.2703
  119OSM    C7F12563   5.916   2.829   6.780  0.1814 -0.0024 -0.8779
  119OSM    H7F12564   5.984   2.757   6.831 -0.0087 -0.0871 -0.7407
  119OSM    H7G12565   5.882   2.781   6.686  0.9664  1.4151 -1.9096
  119OSM    C8F12566   5.790   2.850   6.875 -0.3500  0.2305  1.0699
  119OSM    H8F12567   5.722   2.899   6.802  0.9465 -0.0559 -0.3955
  119OSM    H8G12568   5.815   2.922   6.956  1.0662  2.5755 -1.2804
  119OSM    C9F12569   5.737   2.715   6.917  0.0501  0.7646 -0.8285
  119OSM    H9F12570   5.688   2.661   6.835 -1.5572  0.3735  0.3500
  119OSM   C10F12571   5.738   2.663   7.042  0.3290 -0.3860  1.1337
  119OSM   H10F12572   5.709   2.559   7.062 -4.0834  0.4615  0.2244
  119OSM   C11F12573   5.799   2.735   7.160  0.0951 -0.2352  0.4642
  119OSM   H11F12574   5.720   2.792   7.212 -0.7242 -1.9373  1.1451
  119OSM   H11G12575   5.875   2.813   7.140  0.1461 -0.2971  0.4117
  119OSM   C12F12576   5.873   2.633   7.254 -0.1740  0.5428 -0.6534
  119OSM   H12F12577   5.948   2.569   7.202 -0.3715 -0.2443 -0.0059
  119OSM   H12G12578   5.789   2.570   7.291 -0.3524  1.6316  0.9137
  119OSM   C13F12579   5.950   2.712   7.368 -1.0059 -0.0415  0.4317
  119OSM   H13F12580   6.033   2.768   7.321 -0.0745 -0.2218  1.7761
  119OSM   H13G12581   6.006   2.630   7.418 -0.4125  0.5249  0.7113
  119OSM   C14F12582   5.864   2.774   7.475  0.9299  0.1662  0.0921
  119OSM   H14F12583   5.826   2.856   7.411 -1.9521 -1.3446 -0.2752
  119OSM   H14G12584   5.925   2.813   7.559  0.6645 -0.0218  0.3712
  119OSM   C15F12585   5.751   2.687   7.538  0.4031  0.1171  0.3473
  119OSM   H15F12586   5.681   2.648   7.461  1.6512 -1.0314 -0.2347
  119OSM   H15G12587   5.681   2.755   7.591  0.8515  0.9621 -0.1167
  119OSM   C16F12588   5.785   2.573   7.635  0.5056  0.0327  0.4938
  119OSM   H16F12589   5.867   2.513   7.590  1.2655  0.1531  1.6902
  119OSM   H16G12590   5.698   2.509   7.662  0.1850  0.8517  1.4777
  119OSM   C17F12591   5.838   2.620   7.769 -0.7770  0.1948 -0.0328
  119OSM   H17F12592   5.926   2.685   7.749  0.5695 -1.3626  0.6246
  119OSM   H17G12593   5.896   2.546   7.828 -0.5195  0.1366 -0.3550
  119OSM   C18F12594   5.740   2.698   7.863 -0.0571 -0.2885 -0.1118
  119OSM   H18F12595   5.728   2.799   7.819 -0.9543  0.1121  1.0200
  119OSM   H18G12596   5.793   2.714   7.959  1.5953 -1.1250 -0.8303
  119OSM   H18H12597   5.639   2.654   7.877 -0.0483 -0.1635  0.3559
  120OSM      N12598   5.848   0.390   6.479 -0.6555  0.0542 -0.4879
  120OSM    C1512599   5.946   0.486   6.414 -0.0189  0.5845  0.4081
  120OSM   H15A12600   5.937   0.479   6.306 -2.1455 -0.0492  0.5869
  120OSM   H15B12601   6.045   0.449   6.434  0.5328  1.3739 -0.7531
  120OSM   H15C12602   5.945   0.588   6.449 -0.6554  0.3764  1.0145
  120OSM    C1412603   5.874   0.256   6.415  0.4219  1.0094  0.2770
  120OSM   H14A12604   5.808   0.180   6.454  1.2363  0.1800  0.0587
  120OSM   H14B12605   5.977   0.224   6.423  0.5786  0.9699 -1.5195
  120OSM   H14C12606   5.855   0.256   6.309  0.8997 -2.8573  0.0629
  120OSM    C1312607   5.860   0.380   6.627  0.2765 -0.9602 -0.6353
  120OSM   H13A12608   5.959   0.348   6.656  1.1943  0.7431 -1.7409
  120OSM   H13B12609   5.796   0.303   6.669 -0.8143  0.1283 -0.2569
  120OSM   H13C12610   5.829   0.464   6.687  2.6286 -1.1967  1.0381
  120OSM    C1212611   5.708   0.437   6.457 -0.4956  0.1307 -0.0253
  120OSM   H12A12612   5.687   0.533   6.501 -0.3383  1.1953 -2.1074
  120OSM   H12B12613   5.653   0.363   6.513  2.0680 -0.7746  1.4442
  120OSM    C1112614   5.662   0.445   6.314  0.4368 -0.5305  1.1146
  120OSM   H11A12615   5.713   0.522   6.252 -1.3570 -0.1957 -0.0096
  120OSM   H11B12616   5.559   0.486   6.323 -0.6896 -3.2530  1.5375
  120OSM      P12617   5.534   0.215   6.243  0.1896  0.0018 -0.1420
  120OSM    O1312618   5.431   0.264   6.147  0.0160  0.1948 -0.0599
  120OSM    O1412619   5.595   0.087   6.209 -0.3545  0.6932 -0.0184
  120OSM    O1112620   5.489   0.210   6.393  0.6417 -0.0461 -1.0399
  120OSM    O1212621   5.654   0.318   6.246 -0.2933 -0.1976  0.3711
  120OSM    C1S12622   5.512   0.102   6.477 -0.4181 -0.1472  0.0196
  120OSM    H1S12623   5.619   0.071   6.479 -0.6389 -0.9375  2.3574
  120OSM    H1T12624   5.466   0.007   6.443 -1.2697  0.6377 -1.0874
  120OSM     NF12625   5.529   0.044   6.713 -0.0228 -1.2725  0.1118
  120OSM    HNF12626   5.458  -0.006   6.762 -1.4342 -1.7442 -2.2380
  120OSM    C2S12627   5.474   0.138   6.622 -0.4401 -0.5598  0.0238
  120OSM    H2S12628   5.519   0.234   6.654  0.5003 -0.7582 -0.6735
  120OSM    C3S12629   5.320   0.155   6.624  0.0197  0.1685 -0.3735
  120OSM    H3S12630   5.267   0.059   6.608 -1.8603  1.0125  0.4432
  120OSM     O312631   5.266   0.257   6.535 -0.0955 -0.3687 -0.1175
  120OSM    HO312632   5.328   0.251   6.463  1.3882 -1.4083  1.1891
  120OSM    C4S12633   5.279   0.191   6.766  0.1024 -0.7087 -0.7982
  120OSM    H4S12634   5.313   0.287   6.807 -1.2060 -1.6179  2.7643
  120OSM    C5S12635   5.220   0.097   6.851 -0.0980  0.5537  0.1669
  120OSM    H5S12636   5.192  -0.001   6.809  2.5192  0.0030 -0.4765
  120OSM    C6S12637   5.179   0.112   6.989 -1.0409 -0.0864 -0.2208
  120OSM    H6S12638   5.075   0.079   7.010 -0.0736 -0.9834  4.1061
  120OSM    H6T12639   5.180   0.220   7.017 -0.7236 -0.3898  0.9750
  120OSM    C7S12640   5.244   0.042   7.104  0.4529 -0.3077  0.6905
  120OSM    H7S12641   5.350   0.076   7.109  0.7021 -0.8661 -0.3484
  120OSM    H7T12642   5.233  -0.068   7.096  0.1154 -0.2836  0.8285
  120OSM    C8S12643   5.184   0.081   7.238 -0.0441  0.0684  0.6935
  120OSM    H8S12644   5.074   0.066   7.237 -0.4969  2.7113  1.9677
  120OSM    H8T12645   5.202   0.190   7.248  1.6876 -0.2188  0.9417
  120OSM    C9S12646   5.244   0.015   7.359 -0.4481 -0.3206  0.6344
  120OSM    H9S12647   5.354   0.007   7.342 -0.8152 -0.8300 -1.7915
  120OSM    H9T12648   5.210  -0.091   7.359  2.1783 -1.2675  1.7636
  120OSM   C10S12649   5.217   0.097   7.487 -0.0937  0.0952  0.5874
  120OSM   H10S12650   5.107   0.115   7.481 -0.8140 -2.2403  4.0760
  120OSM   H10T12651   5.251   0.201   7.465  1.8554  0.0227  2.8864
  120OSM   C11S12652   5.259   0.036   7.619 -1.0191  0.5002 -0.0175
  120OSM   H11S12653   5.369   0.020   7.628 -0.5612  3.0967 -0.1410
  120OSM   H11T12654   5.221  -0.068   7.625 -2.2661  0.7969 -2.1391
  120OSM   C12S12655   5.204   0.104   7.747  0.7782  0.5698  0.2667
  120OSM   H12S12656   5.097   0.079   7.757  0.6426 -0.2609 -2.4767
  120OSM   H12T12657   5.211   0.215   7.744  0.6185  0.5559 -1.7416
  120OSM   C13S12658   5.275   0.062   7.881  0.1808  0.1702 -0.5546
  120OSM   H13S12659   5.386   0.069   7.875  0.2212  1.3328  0.8981
  120OSM   H13T12660   5.258  -0.047   7.882  2.0325 -0.1792  2.3432
  120OSM   C14S12661   5.219   0.123   8.011  0.4464 -0.3672  0.4951
  120OSM   H14S12662   5.154   0.211   7.993  0.0796 -0.7408 -0.0325
  120OSM   H14T12663   5.311   0.154   8.066  0.1907  2.6518 -0.5717
  120OSM   C15S12664   5.141   0.031   8.103  0.5924  0.6150 -0.3489
  120OSM   H15S12665   5.210  -0.055   8.121  2.3744  2.0306 -0.1588
  120OSM   H15T12666   5.059  -0.005   8.037  0.7213 -1.4118  0.5065
  120OSM   C16S12667   5.086   0.096   8.235 -0.3280 -0.3532  0.6209
  120OSM   H16S12668   5.008   0.035   8.286 -2.1605  1.2128 -0.1939
  120OSM   H16T12669   5.032   0.191   8.215 -1.4762 -0.9681  0.7092
  120OSM   C17S12670   5.201   0.115   8.335 -0.1962 -0.8864  0.0904
  120OSM   H17S12671   5.275   0.188   8.297 -0.6544  0.3670  1.4735
  120OSM   H17T12672   5.251   0.017   8.347  1.0930 -0.3238 -0.5084
  120OSM   C18S12673   5.154   0.164   8.475  0.1694  0.1590 -0.3344
  120OSM   H18S12674   5.103   0.074   8.515 -1.0133  0.9943  0.0666
  120OSM   H18T12675   5.095   0.258   8.473  0.4477  0.3215 -1.7298
  120OSM   H18U12676   5.241   0.184   8.542  2.5053 -2.7953 -2.1876
  120OSM    C1F12677   5.657   0.041   6.737 -0.2488  0.0637  0.0646
  120OSM     OF12678   5.742   0.112   6.686  0.4297  0.0142  0.5656
  120OSM    C2F12679   5.693  -0.069   6.829 -0.7234 -0.8936 -0.5939
  120OSM    H2F12680   5.798  -0.101   6.815 -0.5549 -0.1309 -1.1468
  120OSM    H2G12681   5.622  -0.155   6.831  0.3861 -1.8486  1.9357
  120OSM    C3F12682   5.679  -0.030   6.978  0.0745  0.3839 -0.2125
  120OSM    H3F12683   5.572  -0.010   6.999  0.0280  0.9719 -0.9714
  120OSM    H3G12684   5.740   0.061   6.997  0.9238 -0.1523 -0.2715
  120OSM    C4F12685   5.738  -0.142   7.074  0.1559 -0.1841  0.1983
  120OSM    H4F12686   5.840  -0.170   7.039  0.1138  0.9273 -0.9144
  120OSM    H4G12687   5.681  -0.237   7.064  0.0733 -0.4398  2.5401
  120OSM    C5F12688   5.754  -0.102   7.222 -0.4537  0.3703 -1.2476
  120OSM    H5F12689   5.822  -0.015   7.234  0.0626 -0.2840  1.1209
  120OSM    H5G12690   5.796  -0.192   7.272 -0.1178  0.8049 -0.7479
  120OSM    C6F12691   5.617  -0.051   7.276 -0.2092 -0.2043 -0.6739
  120OSM    H6F12692   5.537  -0.118   7.240 -1.9000  0.7919  1.0459
  120OSM    H6G12693   5.599   0.048   7.229  0.5310  0.4110  0.2990
  120OSM    C7F12694   5.618  -0.050   7.431  0.0241 -0.0782  0.4084
  120OSM    H7F12695   5.640  -0.150   7.475  0.8875  1.2149  3.1372
  120OSM    H7G12696   5.515  -0.027   7.464 -1.3882 -1.7478 -2.4610
  120OSM    C8F12697   5.729   0.047   7.487  0.4493  0.5461  0.3944
  120OSM    H8F12698   5.719   0.137   7.422 -3.6339  0.9074  1.2291
  120OSM    H8G12699   5.833   0.011   7.475  0.1664  0.2605 -1.6664
  120OSM    C9F12700   5.707   0.093   7.630  0.3260 -1.0056  0.6442
  120OSM    H9F12701   5.618   0.046   7.674 -1.3686  0.6098 -0.8174
  120OSM   C10F12702   5.780   0.185   7.692 -0.1133  0.2749  0.2835
  120OSM   H10F12703   5.756   0.208   7.797 -3.2670 -0.7970 -0.1134
  120OSM   C11F12704   5.905   0.254   7.640 -0.2540  0.4995 -0.0015
  120OSM   H11F12705   5.879   0.356   7.603 -1.4120  0.1437 -0.2235
  120OSM   H11G12706   5.976   0.199   7.575  0.7468 -1.3969  2.5271
  120OSM   C12F12707   5.993   0.284   7.766 -0.0621 -0.1548  0.0650
  120OSM   H12F12708   5.934   0.308   7.857 -2.3191  0.3064 -1.4165
  120OSM   H12G12709   6.057   0.373   7.745 -3.1417  1.8753 -1.7615
  120OSM   C13F12710   6.087   0.162   7.798 -0.1488  0.1925  0.0058
  120OSM   H13F12711   6.160   0.154   7.714 -1.1072  0.5585 -0.8828
  120OSM   H13G12712   6.016   0.077   7.796  0.6599 -0.4874 -1.7647
  120OSM   C14F12713   6.166   0.186   7.926 -0.2752  1.0011 -0.1043
  120OSM   H14F12714   6.099   0.210   8.012  0.3928  0.8841  0.4589
  120OSM   H14G12715   6.232   0.274   7.905  1.8030 -0.2228  0.9633
  120OSM   C15F12716   6.243   0.057   7.969  0.3954 -0.3859 -0.1915
  120OSM   H15F12717   6.305   0.026   7.882  1.1866 -3.7911  1.3841
  120OSM   H15G12718   6.168  -0.024   7.985 -2.0026  1.7509 -0.0355
  120OSM   C16F12719   6.321   0.074   8.108  0.0365 -0.3955 -0.7521
  120OSM   H16F12720   6.249   0.102   8.188 -2.8064 -2.7694 -2.2468
  120OSM   H16G12721   6.393   0.156   8.089  0.4775 -0.7374 -0.5470
  120OSM   C17F12722   6.413  -0.042   8.142  0.6563  0.5262  0.1841
  120OSM   H17F12723   6.479  -0.017   8.228  0.7088 -0.3720  0.4108
  120OSM   H17G12724   6.487  -0.058   8.061  1.1955  0.8821  0.5917
  120OSM   C18F12725   6.338  -0.184   8.161 -0.4128 -0.3824 -0.3708
  120OSM   H18F12726   6.289  -0.215   8.066 -2.0271 -0.2373  0.3927
  120OSM   H18G12727   6.259  -0.163   8.235  0.5273  1.0625  0.2870
  120OSM   H18H12728   6.407  -0.269   8.176 -2.2800 -1.9342 -0.2648
  121OSM      N12729   6.728   2.706   5.956  0.1139  0.2396 -0.4112
  121OSM    C1512730   6.746   2.705   6.100  0.6986 -0.0005  0.2143
  121OSM   H15A12731   6.686   2.632   6.152  0.4761  1.3178  1.9127
  121OSM   H15B12732   6.717   2.803   6.133  0.0880 -0.5148  1.2559
  121OSM   H15C12733   6.850   2.695   6.128  0.4477  0.0579  1.2165
  121OSM    C1412734   6.771   2.575   5.893 -0.0184 -0.6206 -0.0840
  121OSM   H14A12735   6.741   2.562   5.790 -3.7295 -0.6651  0.8572
  121OSM   H14B12736   6.722   2.492   5.943 -0.7239 -0.7761 -0.9973
  121OSM   H14C12737   6.875   2.555   5.914 -0.0238  0.3282  0.9524
  121OSM    C1312738   6.585   2.713   5.929  0.3836 -0.3314  0.3422
  121OSM   H13A12739   6.537   2.625   5.969  0.5043 -0.4719  0.1762
  121OSM   H13B12740   6.579   2.720   5.821  1.3068 -1.7955  0.1740
  121OSM   H13C12741   6.534   2.802   5.963 -0.5157  0.1193 -2.0090
  121OSM    C1212742   6.809   2.816   5.883 -0.0994  0.2153  0.1999
  121OSM   H12A12743   6.766   2.915   5.894 -1.1192 -0.1329 -0.4865
  121OSM   H12B12744   6.811   2.791   5.778  5.6802  0.1873  0.0245
  121OSM    C1112745   6.965   2.823   5.916  0.3713 -0.9493 -0.5069
  121OSM   H11A12746   6.962   2.857   6.021  0.5020  1.3214 -1.1936
  121OSM   H11B12747   7.000   2.906   5.850  0.5779  0.1899  0.9876
  121OSM      P12748   7.133   2.635   6.000 -0.2452  0.1330 -0.3552
  121OSM    O1312749   7.156   2.492   5.962  0.0659 -0.0086  0.1180
  121OSM    O1412750   7.256   2.720   6.020  0.4751  0.1125  0.3257
  121OSM    O1112751   7.047   2.640   6.131 -0.6954 -0.3959  0.6613
  121OSM    O1212752   7.037   2.703   5.891  0.6032  0.9235  0.1485
  121OSM    C1S12753   7.105   2.693   6.249  0.0732  0.1992  0.0903
  121OSM    H1S12754   7.134   2.799   6.233  0.5691 -0.2406 -2.2104
  121OSM    H1T12755   7.196   2.637   6.277 -0.2937 -1.2545 -1.4890
  121OSM     NF12756   7.075   2.727   6.489  0.6886  0.8844 -0.0678
  121OSM    HNF12757   7.090   2.640   6.536  0.7313  0.3212 -1.0994
  121OSM    C2S12758   7.003   2.695   6.368 -0.0089 -0.5082  0.5297
  121OSM    H2S12759   6.931   2.777   6.349  0.5111  0.3592  2.1201
  121OSM    C3S12760   6.939   2.560   6.386  0.2893 -0.2583  0.5576
  121OSM    H3S12761   7.014   2.484   6.416  0.8730 -0.3173 -0.9540
  121OSM     O312762   6.899   2.489   6.269  0.0275 -0.0410 -0.2312
  121OSM    HO312763   6.955   2.526   6.201 -1.9776 -0.0143 -1.9656
  121OSM    C4S12764   6.828   2.568   6.483 -0.1218 -0.0277 -0.2277
  121OSM    H4S12765   6.755   2.637   6.438  0.9497  1.4211  0.1577
  121OSM    C5S12766   6.816   2.517   6.605  0.0308 -0.8179 -0.9066
  121OSM    H5S12767   6.897   2.452   6.643 -0.3751 -0.9087 -0.1613
  121OSM    C6S12768   6.693   2.537   6.695 -0.1743 -0.4627  0.0218
  121OSM    H6S12769   6.614   2.468   6.657 -0.7318  0.4131 -0.4507
  121OSM    H6T12770   6.658   2.641   6.678  1.9984  0.3402  0.1138
  121OSM    C7S12771   6.719   2.528   6.844  0.2724 -0.1406  0.6088
  121OSM    H7S12772   6.775   2.433   6.860  1.0069 -0.3457 -2.4480
  121OSM    H7T12773   6.623   2.516   6.899 -1.6860  0.9526 -2.2931
  121OSM    C8S12774   6.794   2.652   6.896  0.3237 -0.2090 -0.1469
  121OSM    H8S12775   6.740   2.741   6.856 -0.5086 -1.3600 -1.6736
  121OSM    H8T12776   6.895   2.659   6.850  1.3617 -1.4178  1.8180
  121OSM    C9S12777   6.795   2.656   7.049  0.1086  0.0152  0.1388
  121OSM    H9S12778   6.856   2.569   7.082 -0.9780 -0.3506  1.2523
  121OSM    H9T12779   6.695   2.643   7.095 -1.1464  2.6468 -1.6465
  121OSM   C10S12780   6.874   2.778   7.097  0.8468 -0.1243 -0.0519
  121OSM   H10S12781   6.829   2.870   7.054 -0.1406 -1.0410 -1.0338
  121OSM   H10T12782   6.975   2.765   7.053  1.1329 -0.1801  0.5974
  121OSM   C11S12783   6.881   2.785   7.257  0.2340  0.4737  0.2192
  121OSM   H11S12784   6.920   2.687   7.291 -1.9739  0.7392  4.1199
  121OSM   H11T12785   6.777   2.776   7.294  0.6909 -2.6132  0.9737
  121OSM   C12S12786   6.966   2.892   7.316 -0.6939 -0.5778  0.3670
  121OSM   H12S12787   6.967   2.973   7.240  1.5091  0.3942  1.3352
  121OSM   H12T12788   7.073   2.862   7.326  0.4797  2.9613  0.0598
  121OSM   C13S12789   6.927   2.939   7.455  0.0193  0.1248 -0.4019
  121OSM   H13S12790   6.911   2.848   7.516  1.0162  0.2883  0.1237
  121OSM   H13T12791   6.830   2.992   7.451 -1.1996 -1.9159  0.3964
  121OSM   C14S12792   7.034   3.020   7.528 -0.2418  0.0223 -0.3269
  121OSM   H14S12793   7.065   3.113   7.476 -0.5969  0.2595 -0.1222
  121OSM   H14T12794   7.123   2.955   7.521  1.2575  2.2134 -3.4583
  121OSM   C15S12795   6.990   3.065   7.664  0.1331 -0.4039 -0.4982
  121OSM   H15S12796   6.940   2.984   7.720 -0.3632  0.7153  0.7461
  121OSM   H15T12797   6.909   3.142   7.666 -0.7931 -1.3637  1.2905
  121OSM   C16S12798   7.110   3.122   7.739 -0.0926 -0.1717  0.1547
  121OSM   H16S12799   7.164   3.199   7.680 -0.3783  1.5014  1.9814
  121OSM   H16T12800   7.182   3.039   7.758  0.4455  0.2375 -0.0726
  121OSM   C17S12801   7.069   3.186   7.874 -0.2987 -0.1239 -0.1317
  121OSM   H17S12802   7.020   3.111   7.940  1.7007 -0.5831  0.9192
  121OSM   H17T12803   7.000   3.270   7.852  0.1769  0.6597  1.2423
  121OSM   C18S12804   7.192   3.245   7.951 -0.7406 -0.2207  0.7519
  121OSM   H18S12805   7.267   3.282   7.878  0.7132 -0.8864  1.8499
  121OSM   H18T12806   7.256   3.175   8.009 -0.7757  0.1682  1.2659
  121OSM   H18U12807   7.172   3.335   8.014  1.0066  1.1466 -0.5304
  121OSM    C1F12808   7.105   2.852   6.526  0.7769 -0.1128 -0.2881
  121OSM     OF12809   7.089   2.956   6.455 -0.1160  0.2706 -0.2436
  121OSM    C2F12810   7.191   2.862   6.648  0.3637 -0.6442 -0.1744
  121OSM    H2F12811   7.292   2.888   6.609  1.1979 -3.0316  0.2368
  121OSM    H2G12812   7.206   2.758   6.685  1.6764 -0.4747 -0.1925
  121OSM    C3F12813   7.145   2.956   6.766 -0.5682 -0.1248  0.6329
  121OSM    H3F12814   7.039   2.928   6.780 -0.3490 -1.8490 -0.7116
  121OSM    H3G12815   7.150   3.060   6.727  2.8234  0.5330  2.4521
  121OSM    C4F12816   7.221   2.949   6.895 -0.3866  0.6741 -0.3035
  121OSM    H4F12817   7.317   3.002   6.874  0.3286 -0.5451 -0.2446
  121OSM    H4G12818   7.257   2.847   6.921  0.8032  0.6733 -1.7762
  121OSM    C5F12819   7.170   3.012   7.027 -0.6293 -0.1190 -0.0653
  121OSM    H5F12820   7.235   2.982   7.112  1.5633  0.5385 -1.4135
  121OSM    H5G12821   7.071   2.963   7.040 -0.1349 -0.2802  4.7166
  121OSM    C6F12822   7.169   3.162   7.038 -0.3801  0.1468  0.3162
  121OSM    H6F12823   7.125   3.195   6.941  2.3201 -1.5872 -1.6427
  121OSM    H6G12824   7.275   3.195   7.043 -0.5765  0.9649 -0.5522
  121OSM    C7F12825   7.097   3.203   7.160  0.3647 -0.1482  0.6033
  121OSM    H7F12826   7.145   3.153   7.247  0.2610  0.2925  0.9202
  121OSM    H7G12827   6.987   3.190   7.154  0.1260  2.0613 -1.3474
  121OSM    C8F12828   7.086   3.354   7.181  0.5695  0.4089  1.0115
  121OSM    H8F12829   7.002   3.381   7.249 -0.5018 -0.6939  0.1623
  121OSM    H8G12830   7.067   3.410   7.087 -2.2663  1.2244  1.9696
  121OSM    C9F12831   7.201   3.421   7.258 -0.2433  0.2650  0.2323
  121OSM    H9F12832   7.294   3.395   7.205 -0.9425 -2.0300  0.0019
  121OSM   C10F12833   7.208   3.491   7.374  0.2328 -0.8511 -0.0541
  121OSM   H10F12834   7.307   3.519   7.411 -0.8280  2.9078  0.2925
  121OSM   C11F12835   7.088   3.529   7.460 -0.2570 -0.3028  0.3656
  121OSM   H11F12836   6.986   3.490   7.437 -0.4761  0.5572 -0.1563
  121OSM   H11G12837   7.079   3.639   7.447  0.8037 -0.3784 -1.1248
  121OSM   C12F12838   7.116   3.497   7.608  0.9097 -0.5081 -0.4990
  121OSM   H12F12839   7.099   3.388   7.624 -1.7271 -0.2738 -1.2246
  121OSM   H12G12840   7.030   3.544   7.659 -0.8193 -0.5928 -3.0972
  121OSM   C13F12841   7.238   3.565   7.672  0.1070 -0.0741 -0.2914
  121OSM   H13F12842   7.265   3.660   7.620 -1.5442 -0.5656 -2.2164
  121OSM   H13G12843   7.322   3.494   7.658  1.1070  0.9008  0.5689
  121OSM   C14F12844   7.206   3.576   7.820 -1.1810 -0.3575 -0.9381
  121OSM   H14F12845   7.149   3.486   7.853 -0.1384 -0.6997 -0.0261
  121OSM   H14G12846   7.141   3.666   7.832 -1.8072 -0.4706 -3.1515
  121OSM   C15F12847   7.330   3.586   7.915 -0.0216 -0.1585  0.0778
  121OSM   H15F12848   7.390   3.677   7.895  0.2655 -0.5934 -1.1102
  121OSM   H15G12849   7.408   3.514   7.883  3.0805  2.4591  1.2383
  121OSM   C16F12850   7.301   3.590   8.070 -0.0092  1.1018 -0.2129
  121OSM   H16F12851   7.220   3.517   8.091  1.5620 -0.7552 -0.3216
  121OSM   H16G12852   7.247   3.686   8.085  1.2546  1.7802  0.1089
  121OSM   C17F12853   7.421   3.565   8.166  0.2453 -0.5428  0.4764
  121OSM   H17F12854   7.503   3.639   8.150  1.7251 -2.3972 -1.0304
  121OSM   H17G12855   7.470   3.471   8.131  0.1147  0.0314 -1.3474
  121OSM   C18F12856   7.387   3.557   8.313  0.7553  0.1960  0.1609
  121OSM   H18F12857   7.337   3.650   8.348  0.0324 -0.4498  0.9023
  121OSM   H18G12858   7.478   3.538   8.373  2.2376  3.1887 -0.9469
  121OSM   H18H12859   7.320   3.468   8.320  2.1120 -0.9053 -0.4733
  122OSM      N12860   4.613   4.385   6.103  0.1075  0.2323  0.0520
  122OSM    C1512861   4.712   4.445   6.193 -0.2409  0.6591 -0.9346
  122OSM   H15A12862   4.660   4.492   6.276  2.8640  1.3069  0.7832
  122OSM   H15B12863   4.770   4.513   6.134 -0.3437  0.1315 -1.6502
  122OSM   H15C12864   4.773   4.370   6.240 -0.7866 -0.6548 -2.2598
  122OSM    C1412865   4.526   4.498   6.061  0.3109  0.9704  0.1132
  122OSM   H14A12866   4.581   4.584   6.025 -1.1233  2.3082  0.9517
  122OSM   H14B12867   4.467   4.518   6.149 -0.2741 -1.4349  0.3238
  122OSM   H14C12868   4.457   4.461   5.986 -0.3252  1.4594  0.4495
  122OSM    C1312869   4.701   4.343   5.985  0.9202  0.1370 -0.6848
  122OSM   H13A12870   4.785   4.411   5.973  2.0252 -1.1666 -0.5172
  122OSM   H13B12871   4.648   4.354   5.891 -1.2203  2.9093  0.6794
  122OSM   H13C12872   4.744   4.246   6.003 -3.5339 -1.7850  0.9308
  122OSM    C1212873   4.536   4.273   6.166 -0.1242  0.6890 -1.1214
  122OSM   H12A12874   4.472   4.229   6.090  0.6793 -1.9162 -0.3870
  122OSM   H12B12875   4.465   4.309   6.239  1.4679 -0.8102  1.2602
  122OSM    C1112876   4.603   4.158   6.231  0.0790  0.3737  0.0855
  122OSM   H11A12877   4.519   4.090   6.256 -0.0739  1.4924  2.9826
  122OSM   H11B12878   4.646   4.188   6.329  1.7343 -0.4265 -0.3605
  122OSM      P12879   4.696   3.957   6.090 -0.1073  0.5336  0.0782
  122OSM    O1312880   4.577   3.954   6.000 -0.5140 -0.0378  0.0870
  122OSM    O1412881   4.821   3.916   6.015  0.1551  0.8698  0.8567
  122OSM    O1112882   4.673   3.862   6.210  0.6952  0.1588 -0.1757
  122OSM    O1212883   4.704   4.104   6.144  0.3310 -0.0811  0.3078
  122OSM    C1S12884   4.777   3.848   6.313 -0.9232 -0.3884  0.2402
  122OSM    H1S12885   4.850   3.931   6.302 -0.4197 -0.7136  0.9782
  122OSM    H1T12886   4.830   3.751   6.307 -2.1497 -0.9849 -1.8530
  122OSM     NF12887   4.842   3.859   6.547  0.0766  1.0207  0.1658
  122OSM    HNF12888   4.828   3.777   6.602  0.6958  1.1929  0.5957
  122OSM    C2S12889   4.731   3.876   6.458  0.6080  0.0762  0.0090
  122OSM    H2S12890   4.709   3.985   6.460 -0.8081 -0.1962  2.0020
  122OSM    C3S12891   4.605   3.794   6.491 -0.3301  0.1158 -0.4606
  122OSM    H3S12892   4.630   3.691   6.523  0.8421  0.6948  0.5645
  122OSM     O312893   4.498   3.785   6.400 -0.3500 -0.2477  0.5629
  122OSM    HO312894   4.536   3.825   6.321 -0.1574  0.4350  0.9979
  122OSM    C4S12895   4.552   3.836   6.631  0.6648 -0.0811 -0.2033
  122OSM    H4S12896   4.595   3.777   6.713 -1.7408  0.1994  1.3566
  122OSM    C5S12897   4.457   3.932   6.667 -0.4516 -0.0752  0.8979
  122OSM    H5S12898   4.418   3.980   6.576 -0.2567 -2.5412 -0.5662
  122OSM    C6S12899   4.418   3.973   6.807  0.6163 -0.0138 -0.6037
  122OSM    H6S12900   4.309   3.976   6.828  0.2364 -1.5081 -2.1001
  122OSM    H6T12901   4.441   4.081   6.820  0.2478  0.0910 -0.7866
  122OSM    C7S12902   4.462   3.897   6.927 -0.0689  0.0316  0.1201
  122OSM    H7S12903   4.572   3.902   6.930 -0.1432  1.9326  0.7882
  122OSM    H7T12904   4.438   3.788   6.922  0.1196  0.0036 -0.2079
  122OSM    C8S12905   4.410   3.944   7.063  0.3237 -0.4692  0.3259
  122OSM    H8S12906   4.317   4.005   7.059  1.7578  1.8685  0.1881
  122OSM    H8T12907   4.490   4.010   7.104  0.7565  0.0934 -1.3410
  122OSM    C9S12908   4.380   3.834   7.162  0.5017  0.3995 -0.4281
  122OSM    H9S12909   4.434   3.739   7.145 -2.9590 -2.2102  1.7263
  122OSM    H9T12910   4.272   3.809   7.165  0.7269 -0.4901  1.3976
  122OSM   C10S12911   4.413   3.870   7.309  0.2895 -0.1230  0.2802
  122OSM   H10S12912   4.339   3.940   7.353 -0.7229 -0.8943 -0.1600
  122OSM   H10T12913   4.518   3.907   7.315  0.1218  0.4740 -0.3313
  122OSM   C11S12914   4.409   3.757   7.415 -0.7413 -0.2237 -0.3530
  122OSM   H11S12915   4.468   3.667   7.386 -0.9748 -0.7217  0.6931
  122OSM   H11T12916   4.312   3.706   7.430  0.0891 -1.3121  1.6564
  122OSM   C12S12917   4.441   3.806   7.555 -0.0445  0.1784  0.0157
  122OSM   H12S12918   4.397   3.905   7.582  1.1611  0.7248  0.0540
  122OSM   H12T12919   4.550   3.815   7.575 -0.4412  2.1966  1.6393
  122OSM   C13S12920   4.396   3.699   7.657  0.5082  0.5028  0.6617
  122OSM   H13S12921   4.464   3.613   7.639 -0.6455 -0.1953 -0.5525
  122OSM   H13T12922   4.293   3.665   7.631  1.0290 -3.7977  3.2421
  122OSM   C14S12923   4.386   3.757   7.800  0.4809  0.5302 -0.0459
  122OSM   H14S12924   4.315   3.841   7.809  1.4777  1.3799  0.1230
  122OSM   H14T12925   4.476   3.818   7.826  0.4236  1.3765 -1.6655
  122OSM   C15S12926   4.343   3.667   7.915  0.1214  0.8259 -0.1241
  122OSM   H15S12927   4.396   3.570   7.918 -2.9815 -1.0391 -1.1852
  122OSM   H15T12928   4.241   3.631   7.890  1.3128 -2.2034 -0.9948
  122OSM   C16S12929   4.342   3.750   8.048 -0.0454 -0.3625  0.5584
  122OSM   H16S12930   4.274   3.837   8.039  0.4180  0.0810  1.2210
  122OSM   H16T12931   4.444   3.794   8.057 -1.2968  2.8177  0.2715
  122OSM   C17S12932   4.318   3.664   8.169 -0.2574 -0.0953 -0.3831
  122OSM   H17S12933   4.380   3.572   8.157  0.8848  0.0577  3.0879
  122OSM   H17T12934   4.212   3.632   8.174 -0.2948  0.1838  1.3269
  122OSM   C18S12935   4.359   3.718   8.309  0.2854  0.9621  0.5999
  122OSM   H18S12936   4.464   3.753   8.298  1.1132 -1.8218 -2.0203
  122OSM   H18T12937   4.358   3.648   8.395  0.2209  0.0781 -0.0990
  122OSM   H18U12938   4.293   3.801   8.340 -0.1924  0.9495 -0.3446
  122OSM    C1F12939   4.949   3.937   6.555  0.1455  0.2881 -0.5602
  122OSM     OF12940   4.960   4.045   6.492 -0.1342  0.2830 -0.6283
  122OSM    C2F12941   5.057   3.885   6.643 -0.5154 -0.1853  0.5713
  122OSM    H2F12942   5.080   3.778   6.624  1.4185  0.4137 -0.6649
  122OSM    H2G12943   5.020   3.889   6.748  0.2757  0.0314  0.8450
  122OSM    C3F12944   5.181   3.971   6.644  0.5034 -0.1202  0.2826
  122OSM    H3F12945   5.157   4.078   6.662 -0.3301 -0.6142  2.4374
  122OSM    H3G12946   5.221   3.954   6.542 -1.9405 -0.5388 -0.6677
  122OSM    C4F12947   5.292   3.928   6.743  0.3139  0.0807  0.4049
  122OSM    H4F12948   5.385   3.937   6.684  1.4876  1.4712  2.3487
  122OSM    H4G12949   5.272   3.822   6.770 -3.0613  0.6784  0.6649
  122OSM    C5F12950   5.299   4.017   6.869  0.1762 -0.5867 -0.0097
  122OSM    H5F12951   5.200   4.027   6.916  0.3558  0.0085  0.2491
  122OSM    H5G12952   5.328   4.122   6.849 -1.0425  0.3671  2.8053
  122OSM    C6F12953   5.388   3.970   6.986 -0.3841  0.6864 -0.7992
  122OSM    H6F12954   5.493   3.961   6.952 -0.9643 -0.4915 -2.3769
  122OSM    H6G12955   5.363   3.868   7.023  0.1186  0.8979  0.1477
  122OSM    C7F12956   5.364   4.072   7.106 -0.5686  0.0698 -0.3295
  122OSM    H7F12957   5.254   4.072   7.115 -0.8213  1.3951 -2.6946
  122OSM    H7G12958   5.392   4.177   7.081 -1.7509  0.2377 -0.9897
  122OSM    C8F12959   5.417   4.027   7.242 -0.2813  0.0062  0.2801
  122OSM    H8F12960   5.523   4.000   7.220  0.7244  3.2918  0.5609
  122OSM    H8G12961   5.365   3.933   7.272 -0.1758 -0.1734 -0.0909
  122OSM    C9F12962   5.411   4.121   7.357 -0.1300  0.2243 -0.1160
  122OSM    H9F12963   5.434   4.227   7.338  1.6438 -0.2555 -0.8369
  122OSM   C10F12964   5.401   4.084   7.484 -0.1952  0.0722 -0.5375
  122OSM   H10F12965   5.408   4.162   7.563  1.8913 -0.2427 -0.3619
  122OSM   C11F12966   5.378   3.941   7.527 -0.2041 -0.3266 -0.1391
  122OSM   H11F12967   5.395   3.868   7.445  2.9033  1.4044 -1.1687
  122OSM   H11G12968   5.275   3.931   7.568 -0.2255  0.1223 -0.0827
  122OSM   C12F12969   5.488   3.899   7.631  0.0244  0.2627  0.0093
  122OSM   H12F12970   5.585   3.943   7.598 -1.6475  1.1150 -4.3660
  122OSM   H12G12971   5.501   3.789   7.625 -1.1004 -0.0259  1.8965
  122OSM   C13F12972   5.464   3.939   7.782  0.5904 -0.4120  0.3418
  122OSM   H13F12973   5.365   3.894   7.802  0.1200  0.0708 -0.8502
  122OSM   H13G12974   5.459   4.050   7.779 -0.8548 -0.4432  0.7602
  122OSM   C14F12975   5.567   3.883   7.874 -0.3614  0.1660  0.6564
  122OSM   H14F12976   5.658   3.944   7.854  0.0471  0.6027  3.5321
  122OSM   H14G12977   5.585   3.776   7.854  1.2928  0.5326  0.0342
  122OSM   C15F12978   5.535   3.883   8.020 -0.1191 -0.2448 -0.8543
  122OSM   H15F12979   5.466   3.796   8.033  2.1491 -2.5682 -3.1647
  122OSM   H15G12980   5.476   3.973   8.049 -1.0448 -1.3571  0.9738
  122OSM   C16F12981   5.656   3.878   8.113 -0.7832  0.3885 -0.0154
  122OSM   H16F12982   5.700   3.981   8.115 -1.1190  0.6091  3.5288
  122OSM   H16G12983   5.742   3.819   8.076  1.7220  3.1516  0.9221
  122OSM   C17F12984   5.631   3.849   8.260  0.5112  0.0821  0.2396
  122OSM   H17F12985   5.594   3.744   8.264  1.7092 -0.4150 -0.9501
  122OSM   H17G12986   5.549   3.912   8.300 -1.1852  0.7771 -3.8376
  122OSM   C18F12987   5.757   3.858   8.346 -0.0709  0.3157 -0.2079
  122OSM   H18F12988   5.776   3.966   8.366  1.7942 -0.0617  0.2308
  122OSM   H18G12989   5.846   3.811   8.298 -0.4615 -1.2824  0.5554
  122OSM   H18H12990   5.746   3.802   8.441 -0.9969  1.3220  0.3000
  123OSM      N12991   2.974   6.047   6.661  0.6545  0.0014 -0.3143
  123OSM    C1512992   3.007   5.989   6.795  0.3958 -0.3183 -0.4317
  123OSM   H15A12993   3.077   5.907   6.799  1.9566  0.8029 -2.5189
  123OSM   H15B12994   2.912   5.960   6.837  0.8810 -0.3264  0.6872
  123OSM   H15C12995   3.044   6.070   6.857  0.4091 -1.3116  0.8969
  123OSM    C1412996   2.943   5.932   6.578 -0.2376 -0.2567 -0.8544
  123OSM   H14A12997   2.907   5.955   6.479  0.5014  0.8240 -0.8905
  123OSM   H14B12998   2.862   5.880   6.626 -1.2176  1.1677 -0.8878
  123OSM   H14C12999   3.024   5.862   6.566  0.9728  1.0152 -0.4570
  123OSM    C1313000   2.853   6.138   6.685 -0.3248  0.5600 -0.3296
  123OSM   H13A13001   2.889   6.221   6.744  1.0346  0.3080 -0.7720
  123OSM   H13B13002   2.770   6.090   6.736  0.9084 -1.2425  0.0498
  123OSM   H13C13003   2.812   6.176   6.593 -0.8604  2.3146  0.5866
  123OSM    C1213004   3.089   6.132   6.611 -0.1738 -0.0178  0.1965
  123OSM   H12A13005   3.048   6.175   6.521  0.5289 -2.7654 -1.5728
  123OSM   H12B13006   3.173   6.076   6.573  2.4499  2.5259  1.8359
  123OSM    C1113007   3.149   6.241   6.703 -0.0248 -0.3346 -0.3216
  123OSM   H11A13008   3.225   6.292   6.642  0.5075  0.3562  0.8908
  123OSM   H11B13009   3.205   6.189   6.784  2.7014  0.3551 -1.6715
  123OSM      P13010   3.016   6.456   6.662  0.4206 -0.6048 -0.0655
  123OSM    O1313011   3.116   6.497   6.562  0.7073 -0.6357  0.3707
  123OSM    O1413012   2.875   6.448   6.618 -0.9295 -0.2439  0.2959
  123OSM    O1113013   3.036   6.571   6.771 -0.0385  0.2637  0.2762
  123OSM    O1213014   3.054   6.332   6.759 -0.7006  0.2126 -0.1391
  123OSM    C1S13015   2.940   6.560   6.880 -0.3875 -0.3475 -0.6197
  123OSM    H1S13016   2.959   6.476   6.951 -1.2211  1.3056  1.6756
  123OSM    H1T13017   2.836   6.549   6.842 -0.9019  1.8655  0.0070
  123OSM     NF13018   2.861   6.642   7.100 -0.4917  0.0632 -0.1611
  123OSM    HNF13019   2.770   6.670   7.129 -0.6128 -0.2272 -0.2553
  123OSM    C2S13020   2.929   6.679   6.980  0.9381  0.4393  0.6901
  123OSM    H2S13021   3.028   6.721   7.006  1.1948  0.8522 -0.8398
  123OSM    C3S13022   2.858   6.800   6.903 -0.4833 -0.0521  0.0672
  123OSM    H3S13023   2.754   6.766   6.883 -0.6729 -0.1654  1.1823
  123OSM     O313024   2.928   6.830   6.781 -0.1201  0.3176 -0.2884
  123OSM    HO313025   2.970   6.746   6.762 -0.6293 -0.0130  0.0517
  123OSM    C4S13026   2.861   6.920   6.992  0.0981 -0.8726  0.2681
  123OSM    H4S13027   2.951   6.926   7.055 -0.9182 -1.1228  1.7853
  123OSM    C5S13028   2.765   7.005   7.031  0.1284  0.1327 -0.1975
  123OSM    H5S13029   2.663   6.986   6.995 -0.0456 -1.1516  0.9093
  123OSM    C6S13030   2.780   7.116   7.130 -0.3753  0.5914  0.8365
  123OSM    H6S13031   2.732   7.207   7.089 -2.3878 -1.6559 -2.3044
  123OSM    H6T13032   2.887   7.136   7.154  0.3497 -1.3509 -0.4448
  123OSM    C7S13033   2.696   7.078   7.256  0.3578  0.7074 -0.3157
  123OSM    H7S13034   2.726   6.976   7.289 -2.8152 -1.3487 -3.1601
  123OSM    H7T13035   2.588   7.074   7.232 -0.0090  1.3379  1.1473
  123OSM    C8S13036   2.715   7.182   7.363 -0.4542 -0.1753  0.2431
  123OSM    H8S13037   2.656   7.267   7.322 -0.0424 -0.2082 -0.4364
  123OSM    H8T13038   2.823   7.206   7.375 -0.2124 -0.8889 -0.4293
  123OSM    C9S13039   2.653   7.160   7.503  0.0534  0.0473 -0.0642
  123OSM    H9S13040   2.703   7.065   7.532 -0.1179 -0.1130 -0.3033
  123OSM    H9T13041   2.544   7.145   7.489  0.2643 -0.6513 -0.9676
  123OSM   C10S13042   2.683   7.281   7.598 -0.0652  0.4929  0.2362
  123OSM   H10S13043   2.613   7.365   7.579 -3.1566 -1.8900  0.1591
  123OSM   H10T13044   2.785   7.323   7.583 -0.2594  0.7247 -0.4565
  123OSM   C11S13045   2.676   7.251   7.745 -0.5887 -0.1337 -0.1089
  123OSM   H11S13046   2.712   7.341   7.800 -1.6187  1.2854 -1.6578
  123OSM   H11T13047   2.751   7.174   7.775 -0.3055  0.4652  0.7866
  123OSM   C12S13048   2.538   7.206   7.788  0.7656 -0.2552 -0.4495
  123OSM   H12S13049   2.522   7.108   7.740 -2.7213 -1.9822  3.6411
  123OSM   H12T13050   2.465   7.281   7.750  1.4310  1.4050  1.3389
  123OSM   C13S13051   2.511   7.188   7.932  0.0216 -0.0371 -0.7010
  123OSM   H13S13052   2.595   7.134   7.981  0.4911 -0.9438 -2.4405
  123OSM   H13T13053   2.434   7.108   7.934 -0.3095  0.2816  1.1147
  123OSM   C14S13054   2.462   7.320   8.004  0.2222  0.4051  0.0783
  123OSM   H14S13055   2.375   7.364   7.950  0.3956  2.4619  1.3350
  123OSM   H14T13056   2.549   7.388   7.993  2.6357 -2.4583  0.0935
  123OSM   C15S13057   2.417   7.306   8.153 -0.0532 -0.1553  0.4590
  123OSM   H15S13058   2.505   7.298   8.220  1.4723  2.2835 -1.0807
  123OSM   H15T13059   2.349   7.218   8.152  0.3181 -0.4407  0.4025
  123OSM   C16S13060   2.334   7.428   8.192 -0.0380  0.3485 -0.1929
  123OSM   H16S13061   2.246   7.431   8.124 -0.6826  1.5107  0.6399
  123OSM   H16T13062   2.386   7.525   8.179 -0.8848  0.6166 -1.7961
  123OSM   C17S13063   2.277   7.398   8.324  0.4741  0.4740 -0.2979
  123OSM   H17S13064   2.234   7.296   8.337 -2.4689  1.8398  1.9730
  123OSM   H17T13065   2.188   7.465   8.329 -1.4044 -1.8765 -0.4673
  123OSM   C18S13066   2.373   7.431   8.438  1.0339  0.5908 -0.1760
  123OSM   H18S13067   2.388   7.541   8.444  0.1050  0.6451  2.5520
  123OSM   H18T13068   2.474   7.385   8.437  0.6488 -0.4832  2.6201
  123OSM   H18U13069   2.343   7.401   8.540  0.8359  1.3892  0.0097
  123OSM    C1F13070   2.928   6.556   7.180  0.2662 -0.3322  0.1074
  123OSM     OF13071   3.047   6.549   7.163 -0.2599 -0.3334  0.3523
  123OSM    C2F13072   2.864   6.495   7.297  0.1797  0.8421 -0.0746
  123OSM    H2F13073   2.794   6.415   7.265 -0.4081  1.7145 -1.0321
  123OSM    H2G13074   2.807   6.573   7.351 -2.7893 -1.2493  0.0696
  123OSM    C3F13075   2.961   6.442   7.412  0.1259 -0.9646 -0.6269
  123OSM    H3F13076   3.039   6.519   7.429 -1.1209  0.3828 -0.8992
  123OSM    H3G13077   3.023   6.355   7.380  0.5907 -1.5886  1.7601
  123OSM    C4F13078   2.882   6.413   7.538  0.3378  0.3872  0.0929
  123OSM    H4F13079   2.826   6.322   7.508 -0.8288  1.7664 -2.1635
  123OSM    H4G13080   2.808   6.494   7.553  0.3796  0.1357  1.8748
  123OSM    C5F13081   2.962   6.389   7.667  0.0441  0.6471  0.1121
  123OSM    H5F13082   3.035   6.470   7.688 -0.2620  0.7274  0.8947
  123OSM    H5G13083   3.013   6.291   7.659 -0.4095  0.3907  0.2604
  123OSM    C6F13084   2.873   6.361   7.792  0.0202 -0.8442  0.0766
  123OSM    H6F13085   2.831   6.260   7.773 -1.3206 -0.2264 -0.3149
  123OSM    H6G13086   2.788   6.432   7.799 -2.0274 -3.1049 -0.3852
  123OSM    C7F13087   2.948   6.355   7.925 -0.9203  0.7479  0.1514
  123OSM    H7F13088   2.993   6.456   7.925  1.0791 -0.0570 -1.6807
  123OSM    H7G13089   3.029   6.280   7.912 -1.5523  0.3840 -1.9796
  123OSM    C8F13090   2.863   6.337   8.055 -0.1211  0.3636  1.5519
  123OSM    H8F13091   2.816   6.237   8.051 -2.3555  1.3876  0.1719
  123OSM    H8G13092   2.784   6.415   8.053 -0.1867  0.2996 -0.2214
  123OSM    C9F13093   2.939   6.353   8.175 -0.1462 -0.9312 -0.7344
  123OSM    H9F13094   2.957   6.456   8.209 -1.1905 -1.1998  0.7625
  123OSM   C10F13095   2.994   6.258   8.254 -0.1264 -0.7186  0.7598
  123OSM   H10F13096   3.052   6.282   8.344  0.3180 -1.1468  0.5935
  123OSM   C11F13097   3.008   6.114   8.218 -0.2460 -0.7652 -0.5059
  123OSM   H11F13098   3.117   6.107   8.196  0.5565  2.2198  1.7471
  123OSM   H11G13099   2.958   6.094   8.121 -0.9286  0.7114 -0.4969
  123OSM   C12F13100   2.952   6.018   8.322 -0.1660  0.2249  0.3303
  123OSM   H12F13101   2.996   5.920   8.294  0.3540  1.0651 -2.0180
  123OSM   H12G13102   2.843   6.002   8.313  0.3350 -2.6938 -2.0072
  123OSM   C13F13103   2.996   6.034   8.474 -0.1953 -0.6402 -0.1678
  123OSM   H13F13104   2.929   5.959   8.522 -0.9351  0.1842  0.1158
  123OSM   H13G13105   2.951   6.132   8.503 -1.9516 -1.5588  0.3304
  123OSM   C14F13106   3.144   6.026   8.516  0.2306 -0.2267  0.8001
  123OSM   H14F13107   3.185   6.128   8.498  0.7333 -0.5920 -0.1930
  123OSM   H14G13108   3.195   5.945   8.460  0.0095  0.6056 -0.6606
  123OSM   C15F13109   3.154   5.982   8.663 -0.3645  0.4864 -0.2373
  123OSM   H15F13110   3.129   5.875   8.680 -1.0011  0.4840 -1.1275
  123OSM   H15G13111   3.081   6.044   8.720 -0.7703  0.9405 -1.2328
  123OSM   C16F13112   3.291   6.010   8.734  0.7695 -0.4251 -0.4825
  123OSM   H16F13113   3.316   6.116   8.711 -1.0928  0.4550  1.3161
  123OSM   H16G13114   3.368   5.948   8.683  1.1840  0.2057 -0.6407
  123OSM   C17F13115   3.301   5.994   8.889  0.3299 -0.1212  0.4070
  123OSM   H17F13116   3.258   5.893   8.909  1.4104 -1.1759 -2.1595
  123OSM   H17G13117   3.238   6.069   8.941 -3.4720 -1.1828 -2.1888
  123OSM   C18F13118   3.448   6.000   8.939  0.7443  0.0088 -0.0520
  123OSM   H18F13119   3.513   5.937   8.876  1.2648 -0.7971  1.2456
  123OSM   H18G13120   3.459   5.965   9.044  0.5985 -0.1746 -0.0994
  123OSM   H18H13121   3.481   6.106   8.935 -2.0797  0.9868  0.2798
  124OSM      N13122   4.335   2.578   5.969  0.1112 -0.1148  0.4900
  124OSM    C1513123   4.453   2.484   5.998 -0.2382 -0.2691 -0.1476
  124OSM   H15A13124   4.486   2.430   5.910  0.7622  2.5588 -1.6050
  124OSM   H15B13125   4.429   2.414   6.076 -0.7426  0.8014  0.6753
  124OSM   H15C13126   4.542   2.534   6.032 -0.8560 -0.0877  1.2428
  124OSM    C1413127   4.376   2.686   5.878 -0.4353  0.6772  0.7358
  124OSM   H14A13128   4.316   2.773   5.899 -1.6049  0.0442  0.1319
  124OSM   H14B13129   4.370   2.654   5.775  1.2956  0.8461  0.5466
  124OSM   H14C13130   4.483   2.700   5.882 -0.3726  1.2662 -1.7141
  124OSM    C1313131   4.224   2.508   5.902 -0.6454 -0.2530  0.2891
  124OSM   H13A13132   4.132   2.566   5.905 -0.5505 -0.0323 -0.5995
  124OSM   H13B13133   4.210   2.411   5.947  0.1158 -0.2523  0.5315
  124OSM   H13C13134   4.248   2.488   5.798 -0.6996 -1.2038  0.4530
  124OSM    C1213135   4.298   2.623   6.104  0.1964 -0.1526 -0.1915
  124OSM   H12A13136   4.383   2.670   6.151 -0.2800 -0.0008  0.5404
  124OSM   H12B13137   4.271   2.536   6.162 -2.4735 -0.5989 -1.9324
  124OSM    C1113138   4.185   2.734   6.105  0.6255 -0.0726 -0.0838
  124OSM   H11A13139   4.213   2.820   6.042  0.2224  1.7536  2.0964
  124OSM   H11B13140   4.182   2.778   6.207  0.1750  1.1363 -0.5974
  124OSM      P13141   3.952   2.638   6.171  0.4495  0.2315  0.0301
  124OSM    O1313142   3.820   2.689   6.127  0.1583  0.5746  0.5825
  124OSM    O1413143   3.954   2.492   6.182  0.1512 -0.0351 -0.3996
  124OSM    O1113144   3.991   2.705   6.309 -0.1753 -0.4966 -0.1648
  124OSM    O1213145   4.054   2.693   6.060  0.1971 -0.0540  0.3245
  124OSM    C1S13146   3.913   2.807   6.380 -1.1664  0.3701 -0.0803
  124OSM    H1S13147   3.816   2.830   6.331 -0.9154  3.3134  0.6043
  124OSM    H1T13148   3.975   2.899   6.370 -0.0743 -0.5271 -2.3286
  124OSM     NF13149   3.811   2.870   6.593 -0.1124 -0.9456  0.9036
  124OSM    HNF13150   3.876   2.935   6.633 -1.7575  1.5755 -0.2995
  124OSM    C2S13151   3.888   2.763   6.525  0.2754 -0.2561 -0.2494
  124OSM    H2S13152   3.818   2.676   6.521  0.3417 -0.3640  0.7208
  124OSM    C3S13153   4.011   2.724   6.600  0.4818  0.2648  0.1021
  124OSM    H3S13154   4.082   2.808   6.584  0.4955  0.3514  0.6118
  124OSM     O313155   4.081   2.610   6.552  0.2237 -0.9080  0.3866
  124OSM    HO313156   4.032   2.585   6.474  0.1339 -0.0760  0.1636
  124OSM    C4S13157   3.976   2.702   6.747 -0.1061  0.6621  0.2178
  124OSM    H4S13158   3.886   2.646   6.776 -1.1638  1.9486 -0.4546
  124OSM    C5S13159   4.055   2.747   6.846 -0.4655 -0.5175  0.2953
  124OSM    H5S13160   4.153   2.796   6.841 -0.0596 -1.2705  0.5893
  124OSM    C6S13161   4.021   2.739   6.987  0.2291  0.0350 -0.3707
  124OSM    H6S13162   4.044   2.826   7.052 -1.0822 -0.1530  0.3784
  124OSM    H6T13163   4.078   2.649   7.020  1.3792 -0.0351 -2.3993
  124OSM    C7S13164   3.876   2.697   7.028 -0.2009  0.6165  0.5330
  124OSM    H7S13165   3.847   2.609   6.966  2.4921  1.7495 -2.7110
  124OSM    H7T13166   3.807   2.776   6.993 -2.4048 -1.6008 -0.3738
  124OSM    C8S13167   3.871   2.687   7.181 -0.2974  0.2401 -0.0742
  124OSM    H8S13168   3.776   2.719   7.229  1.4788  3.1002  1.9325
  124OSM    H8T13169   3.934   2.772   7.218 -1.2277  1.0684 -0.3611
  124OSM    C9S13170   3.930   2.559   7.229  0.7484  0.3772 -0.5378
  124OSM    H9S13171   4.039   2.546   7.210  1.1864  1.5106  1.0247
  124OSM    H9T13172   3.873   2.481   7.173  0.7640 -0.1547  0.1696
  124OSM   C10S13173   3.905   2.536   7.376  0.8066 -0.2746 -0.1414
  124OSM   H10S13174   3.942   2.434   7.400 -0.0797  0.0036  2.8070
  124OSM   H10T13175   3.798   2.526   7.404  0.8216 -0.9278 -0.3129
  124OSM   C11S13176   3.965   2.643   7.480 -0.1286 -0.1187 -0.9475
  124OSM   H11S13177   3.936   2.748   7.462 -1.7718  0.1118  2.3466
  124OSM   H11T13178   4.076   2.640   7.483 -0.1248 -0.0092 -0.9781
  124OSM   C12S13179   3.939   2.618   7.634  0.2733 -1.2529  0.0909
  124OSM   H12S13180   3.834   2.633   7.666  0.4707 -0.5668  0.4215
  124OSM   H12T13181   4.012   2.683   7.687 -1.2840  0.8573 -0.2680
  124OSM   C13S13182   3.971   2.474   7.689 -0.8420 -0.3373 -0.2738
  124OSM   H13S13183   4.064   2.447   7.634 -0.3651  0.4079  0.1472
  124OSM   H13T13184   3.892   2.404   7.652 -0.7353  0.0416 -1.2459
  124OSM   C14S13185   4.001   2.469   7.838 -0.1500  0.5878 -0.3554
  124OSM   H14S13186   3.910   2.495   7.896 -0.6990 -1.7908 -0.0452
  124OSM   H14T13187   4.088   2.535   7.855  0.8515 -0.9279  0.7635
  124OSM   C15S13188   4.049   2.330   7.896  0.5480 -0.1715  0.5635
  124OSM   H15S13189   4.130   2.296   7.829 -0.9335 -1.1494 -0.8113
  124OSM   H15T13190   3.970   2.252   7.900  2.0114 -1.6654  1.6084
  124OSM   C16S13191   4.100   2.345   8.043 -0.4077  0.2554  0.5482
  124OSM   H16S13192   4.024   2.406   8.097  0.7567  0.3890  2.0759
  124OSM   H16T13193   4.197   2.398   8.049 -1.1243  1.5562  0.9915
  124OSM   C17S13194   4.098   2.206   8.115 -0.0811  0.2471 -0.0483
  124OSM   H17S13195   4.160   2.136   8.056 -1.4652 -0.6385 -0.5070
  124OSM   H17T13196   3.997   2.161   8.113  0.6841 -1.5035 -0.8410
  124OSM   C18S13197   4.162   2.209   8.260 -0.0628  0.5414 -0.2028
  124OSM   H18S13198   4.119   2.301   8.307  3.8807  1.5879  1.7655
  124OSM   H18T13199   4.272   2.217   8.248  0.1489 -0.6482  0.7546
  124OSM   H18U13200   4.140   2.114   8.312 -0.8311  0.3190 -0.9119
  124OSM    C1F13201   3.681   2.901   6.580  0.2443  0.5113  0.3091
  124OSM     OF13202   3.607   2.825   6.521 -0.3627 -0.1866  0.0552
  124OSM    C2F13203   3.630   3.032   6.634  0.4559 -0.7643 -0.6892
  124OSM    H2F13204   3.625   3.105   6.551  3.4638  1.0146  0.5305
  124OSM    H2G13205   3.708   3.072   6.701  0.3885 -0.2226 -0.9332
  124OSM    C3F13206   3.498   3.012   6.712  0.2817  0.9332  0.1078
  124OSM    H3F13207   3.418   2.966   6.650  0.9301  1.3585 -1.0802
  124OSM    H3G13208   3.457   3.113   6.732  0.7576  1.1484  0.0167
  124OSM    C4F13209   3.515   2.944   6.848  0.0045 -0.1210  0.6332
  124OSM    H4F13210   3.568   2.846   6.852  0.7571  0.2416 -0.1060
  124OSM    H4G13211   3.416   2.935   6.897  0.6863 -2.4611  1.7722
  124OSM    C5F13212   3.603   3.028   6.949  0.7482  0.1503  0.1321
  124OSM    H5F13213   3.577   3.135   6.937  1.9747  0.4817  0.2978
  124OSM    H5G13214   3.712   3.030   6.929  0.2694 -0.9229 -3.2670
  124OSM    C6F13215   3.565   2.990   7.098  0.4699  0.4482  0.1563
  124OSM    H6F13216   3.587   2.881   7.098 -1.4266 -0.0022  1.7102
  124OSM    H6G13217   3.460   3.012   7.127  1.3244  1.3616  2.8321
  124OSM    C7F13218   3.657   3.064   7.197 -0.1887  0.4344 -0.7609
  124OSM    H7F13219   3.621   3.169   7.194 -0.6367  0.2543 -2.8524
  124OSM    H7G13220   3.762   3.072   7.161  0.4458  1.5936  1.1676
  124OSM    C8F13221   3.665   2.992   7.333 -0.0493  0.6819 -0.7774
  124OSM    H8F13222   3.770   3.003   7.368  0.1529  1.0126 -1.4702
  124OSM    H8G13223   3.646   2.885   7.308  0.4141  0.4905 -0.3351
  124OSM    C9F13224   3.568   3.033   7.441  0.1033 -0.3449 -1.1334
  124OSM    H9F13225   3.465   3.043   7.405  0.2385 -1.9277 -2.0602
  124OSM   C10F13226   3.592   3.046   7.570 -0.2266 -0.0418  0.4606
  124OSM   H10F13227   3.507   3.076   7.633 -0.1603 -1.1199  1.0772
  124OSM   C11F13228   3.727   3.029   7.640 -0.3634  0.2789 -0.9312
  124OSM   H11F13229   3.767   3.132   7.649 -0.1736  0.2254 -1.1679
  124OSM   H11G13230   3.802   2.966   7.588  1.6238  0.9723  0.9273
  124OSM   C12F13231   3.707   2.955   7.774 -0.1555  0.0872  0.0787
  124OSM   H12F13232   3.646   2.864   7.757 -1.6429  0.7896  1.4104
  124OSM   H12G13233   3.651   3.009   7.854  1.2758  3.0883 -0.8151
  124OSM   C13F13234   3.835   2.905   7.841 -0.1916 -0.2275  0.2365
  124OSM   H13F13235   3.890   2.998   7.867 -0.6877  1.3624 -3.7094
  124OSM   H13G13236   3.897   2.843   7.774 -0.0179 -1.4897  1.5040
  124OSM   C14F13237   3.803   2.825   7.962  0.5501 -0.1839  0.0440
  124OSM   H14F13238   3.722   2.753   7.937 -0.1672  0.9078 -0.8785
  124OSM   H14G13239   3.749   2.884   8.039  1.0361  2.1496 -1.2917
  124OSM   C15F13240   3.915   2.750   8.015  0.1956 -0.3189 -0.5656
  124OSM   H15F13241   3.989   2.831   8.034 -0.3080  0.0123  0.0365
  124OSM   H15G13242   3.970   2.687   7.943  1.9222 -0.8181  1.1026
  124OSM   C16F13243   3.895   2.681   8.153 -0.2481  0.1077 -0.0322
  124OSM   H16F13244   3.983   2.613   8.167 -1.0583 -0.9624 -0.0418
  124OSM   H16G13245   3.811   2.612   8.133  0.4988 -0.9564  0.3475
  124OSM   C17F13246   3.869   2.762   8.278 -0.4859  0.0390 -0.2983
  124OSM   H17F13247   3.765   2.802   8.279  0.1098  1.6733 -0.8736
  124OSM   H17G13248   3.937   2.849   8.294  1.4345 -1.1660 -1.4803
  124OSM   C18F13249   3.898   2.679   8.410  0.3926  0.4249 -0.3363
  124OSM   H18F13250   3.859   2.728   8.501  0.3489  0.0976 -0.1784
  124OSM   H18G13251   4.005   2.655   8.423  0.5390  1.5129  0.5404
  124OSM   H18H13252   3.839   2.586   8.392  0.9254  0.0915 -0.3651
  125OSM      N13253   1.056   1.709   6.309  0.0991  0.2725 -0.1190
  125OSM    C1513254   0.991   1.603   6.387  0.3436  0.2543 -0.4178
  125OSM   H15A13255   1.003   1.502   6.351  0.2174 -0.2183  0.8477
  125OSM   H15B13256   0.887   1.620   6.365  0.2080 -0.8299 -0.6798
  125OSM   H15C13257   1.002   1.615   6.493 -2.7650 -1.7478  0.2415
  125OSM    C1413258   1.196   1.687   6.317 -0.0858  0.3089 -0.8861
  125OSM   H14A13259   1.220   1.684   6.422 -0.1314 -0.8960 -0.9012
  125OSM   H14B13260   1.249   1.763   6.262 -2.4120  4.0602  1.5164
  125OSM   H14C13261   1.227   1.590   6.280 -0.7090 -0.2666  0.0454
  125OSM    C1313262   1.027   1.696   6.167  0.6247  0.4022  0.9556
  125OSM   H13A13263   0.920   1.713   6.170  0.6079  0.1510  2.4862
  125OSM   H13B13264   1.048   1.596   6.133 -1.5272  0.4275 -0.6700
  125OSM   H13C13265   1.087   1.767   6.111 -0.2705  0.6948  0.3276
  125OSM    C1213266   1.018   1.845   6.365 -0.5117  0.7287 -0.9027
  125OSM   H12A13267   1.028   1.925   6.293 -2.1831  1.1124 -0.7315
  125OSM   H12B13268   1.091   1.873   6.440 -2.3243 -1.1669  1.7492
  125OSM    C1113269   0.879   1.860   6.441 -0.0852  0.3094  0.2965
  125OSM   H11A13270   0.863   1.969   6.456  0.6084  0.8865 -2.5608
  125OSM   H11B13271   0.896   1.825   6.545 -0.2052  0.7598  0.4726
  125OSM      P13272   0.711   1.857   6.249 -0.0319 -0.0720 -0.0973
  125OSM    O1313273   0.799   1.957   6.188 -0.5205  0.1273  0.3381
  125OSM    O1413274   0.666   1.759   6.155  0.2597 -0.5647  0.2614
  125OSM    O1113275   0.586   1.923   6.321 -0.4179 -0.7186 -0.3198
  125OSM    O1213276   0.778   1.791   6.378 -0.1508  0.4475 -0.0285
  125OSM    C1S13277   0.476   1.838   6.362  0.4768  0.3933  0.0820
  125OSM    H1S13278   0.488   1.736   6.322  3.7036  0.3013  0.9796
  125OSM    H1T13279   0.376   1.866   6.324 -0.1573 -1.3058  0.4372
  125OSM     NF13280   0.346   1.749   6.554  0.2783  0.0539 -0.2162
  125OSM    HNF13281   0.258   1.794   6.565  1.9362  3.3586  0.6721
  125OSM    C2S13282   0.457   1.835   6.513 -0.7204  0.1189  0.0571
  125OSM    H2S13283   0.547   1.784   6.554 -1.8516 -0.4353  1.9840
  125OSM    C3S13284   0.452   1.973   6.577 -0.3198 -0.1142 -0.5928
  125OSM    H3S13285   0.363   2.016   6.527  0.2894  0.4103 -1.2435
  125OSM     O313286   0.563   2.055   6.538 -0.3546  0.0025 -0.0837
  125OSM    HO313287   0.592   2.007   6.461  1.3360 -1.2155  1.2337
  125OSM    C4S13288   0.451   1.964   6.728 -0.7308 -0.1424 -0.5930
  125OSM    H4S13289   0.349   1.975   6.768 -1.2458  2.1232 -2.3258
  125OSM    C5S13290   0.547   1.952   6.818 -0.1005  0.1362 -0.2028
  125OSM    H5S13291   0.650   1.969   6.782  0.3237 -2.1319 -0.2103
  125OSM    C6S13292   0.532   1.932   6.966 -0.3223 -0.2203  0.0277
  125OSM    H6S13293   0.537   2.030   7.018  1.7758  0.7892 -1.8879
  125OSM    H6T13294   0.610   1.862   7.002 -1.2879 -0.9300  0.7926
  125OSM    C7S13295   0.407   1.860   7.002 -0.0856  0.1042 -0.4251
  125OSM    H7S13296   0.395   1.761   6.952  0.1812 -0.4852  0.6428
  125OSM    H7T13297   0.318   1.923   6.981 -2.2400 -1.7418  2.2483
  125OSM    C8S13298   0.388   1.826   7.150 -0.5673  0.1287  0.0202
  125OSM    H8S13299   0.481   1.780   7.191 -2.0627 -1.9244  1.3160
  125OSM    H8T13300   0.318   1.740   7.147 -0.1541 -0.1903 -2.0878
  125OSM    C9S13301   0.317   1.942   7.225 -0.2190 -0.4604 -0.3763
  125OSM    H9S13302   0.216   1.964   7.185  0.3061  0.6217 -1.1281
  125OSM    H9T13303   0.368   2.039   7.210 -2.1874  0.3894 -1.8144
  125OSM   C10S13304   0.321   1.912   7.377 -0.0285 -0.7601 -0.4694
  125OSM   H10S13305   0.275   1.813   7.399 -1.0808 -0.4731 -1.2936
  125OSM   H10T13306   0.260   1.992   7.424  3.2610  1.6767 -0.0740
  125OSM   C11S13307   0.458   1.900   7.438  0.3040 -0.3937  0.1986
  125OSM   H11S13308   0.518   1.993   7.431 -0.4699  0.2853  2.0544
  125OSM   H11T13309   0.522   1.826   7.385  0.6391 -0.1239  0.2178
  125OSM   C12S13310   0.451   1.860   7.593  0.4783  0.4088  0.4090
  125OSM   H12S13311   0.555   1.874   7.628  0.5054  0.5319  0.2807
  125OSM   H12T13312   0.404   1.762   7.614 -0.5626  0.6957 -0.4901
  125OSM   C13S13313   0.365   1.958   7.669 -0.5443  0.5581 -0.0344
  125OSM   H13S13314   0.257   1.949   7.642 -0.5982  1.3064 -0.0964
  125OSM   H13T13315   0.406   2.056   7.635  1.3587 -0.7105 -1.5522
  125OSM   C14S13316   0.381   1.952   7.822  0.3406  0.4097  0.5864
  125OSM   H14S13317   0.487   1.976   7.842  1.9282 -3.9853 -1.3016
  125OSM   H14T13318   0.378   1.845   7.851  0.9239 -0.1471 -1.2578
  125OSM   C15S13319   0.276   2.029   7.911  0.1709 -0.2343 -0.7481
  125OSM   H15S13320   0.292   1.999   8.016 -2.6810  0.4174 -0.0215
  125OSM   H15T13321   0.177   1.987   7.882  0.4692  0.2251 -2.5702
  125OSM   C16S13322   0.280   2.174   7.895  1.2192  0.5401  0.5677
  125OSM   H16S13323   0.248   2.185   7.789  0.2550  2.2383  0.9895
  125OSM   H16T13324   0.383   2.209   7.917  1.5233 -1.3458  2.4946
  125OSM   C17S13325   0.172   2.246   7.977  0.2985  0.6032 -0.1096
  125OSM   H17S13326   0.071   2.202   7.961  0.5330 -0.2731  0.7147
  125OSM   H17T13327   0.183   2.347   7.932 -0.0534  0.9270  0.5144
  125OSM   C18S13328   0.200   2.265   8.124 -0.8530 -0.9859 -0.2360
  125OSM   H18S13329   0.116   2.316   8.175  0.6990  2.0018 -0.4261
  125OSM   H18T13330   0.287   2.330   8.147 -2.4679  0.6313  1.5640
  125OSM   H18U13331   0.219   2.171   8.181 -2.0598 -1.7256 -1.0023
  125OSM    C1F13332   0.342   1.622   6.525 -0.1283  0.5306 -0.0721
  125OSM     OF13333   0.436   1.553   6.490 -0.6570 -0.3830 -0.2865
  125OSM    C2F13334   0.205   1.556   6.537 -0.1261  0.0627  0.7321
  125OSM    H2F13335   0.188   1.510   6.437 -0.5583  0.2416  0.7227
  125OSM    H2G13336   0.127   1.634   6.549  1.0049  1.0832  1.7338
  125OSM    C3F13337   0.205   1.449   6.650  0.1337  0.2284 -0.3160
  125OSM    H3F13338   0.293   1.384   6.629 -0.8770 -0.8951 -1.1761
  125OSM    H3G13339   0.107   1.396   6.644 -0.1415  0.5653  0.8932
  125OSM    C4F13340   0.211   1.511   6.788 -0.3454 -0.7579 -0.6040
  125OSM    H4F13341   0.145   1.600   6.794 -2.3466 -2.2345  3.4093
  125OSM    H4G13342   0.299   1.576   6.805 -1.6075  0.5444  1.5098
  125OSM    C5F13343   0.157   1.425   6.908  0.0441  1.0479  0.1981
  125OSM    H5F13344   0.199   1.322   6.918  0.4312  1.1680 -0.1780
  125OSM    H5G13345   0.050   1.405   6.884 -0.0269  0.6454  0.8251
  125OSM    C6F13346   0.171   1.483   7.045 -0.5570 -0.5131  0.4509
  125OSM    H6F13347   0.133   1.586   7.027 -0.0268 -0.5844 -1.2669
  125OSM    H6G13348   0.278   1.481   7.075 -1.0416 -4.2681  2.4962
  125OSM    C7F13349   0.080   1.415   7.153 -0.4221 -0.0287  0.2716
  125OSM    H7F13350   0.101   1.305   7.156 -0.9787 -0.1716 -0.6830
  125OSM    H7G13351  -0.020   1.418   7.104 -1.5290  3.6415  2.3697
  125OSM    C8F13352   0.085   1.490   7.291 -0.2549  0.2106 -0.1927
  125OSM    H8F13353  -0.009   1.465   7.346 -1.1254  2.5658 -0.4731
  125OSM    H8G13354   0.086   1.601   7.277  0.8025  0.4870  1.7856
  125OSM    C9F13355   0.210   1.465   7.361 -0.2005  0.3946 -0.3128
  125OSM    H9F13356   0.303   1.485   7.306  1.6491  1.5426  2.9422
  125OSM   C10F13357   0.232   1.415   7.492  0.6903 -0.5667  0.9033
  125OSM   H10F13358   0.335   1.393   7.522  1.1134  0.2929  0.0941
  125OSM   C11F13359   0.125   1.380   7.594  0.2202 -0.4439  0.1057
  125OSM   H11F13360   0.115   1.274   7.624 -4.1991  0.3091  2.1396
  125OSM   H11G13361   0.025   1.409   7.556 -0.1367 -0.5020  0.9795
  125OSM   C12F13362   0.149   1.459   7.725  0.4784 -0.0131 -0.6162
  125OSM   H12F13363   0.072   1.443   7.803  2.6942  0.3128  1.7898
  125OSM   H12G13364   0.152   1.568   7.704  1.1788 -0.2379 -1.7721
  125OSM   C13F13365   0.272   1.411   7.801  0.4763  0.2317  0.6295
  125OSM   H13F13366   0.356   1.429   7.731 -0.8758 -0.4053 -1.2378
  125OSM   H13G13367   0.259   1.303   7.822  1.9219 -0.2417 -0.6806
  125OSM   C14F13368   0.306   1.492   7.931 -0.2579 -0.7002 -0.5289
  125OSM   H14F13369   0.345   1.592   7.902 -1.1499 -0.6207 -1.4979
  125OSM   H14G13370   0.376   1.440   8.000  1.3309 -0.2446 -1.7524
  125OSM   C15F13371   0.176   1.523   8.017 -0.9618 -0.1228  0.1464
  125OSM   H15F13372   0.118   1.434   8.048  1.2642 -1.7894 -0.2295
  125OSM   H15G13373   0.108   1.593   7.962 -1.0292  1.5565  2.2487
  125OSM   C16F13374   0.207   1.609   8.147  0.5185  0.2225  0.1303
  125OSM   H16F13375   0.270   1.696   8.118  0.6162  0.9071  2.2390
  125OSM   H16G13376   0.257   1.545   8.223 -0.9280 -0.1816  0.7898
  125OSM   C17F13377   0.077   1.654   8.227  0.0976  0.5614 -0.7150
  125OSM   H17F13378   0.006   1.570   8.239 -0.4824  1.3619  2.4250
  125OSM   H17G13379   0.022   1.730   8.167  0.1769  1.3293  0.1643
  125OSM   C18F13380   0.124   1.701   8.366  0.5442  0.7397  0.7417
  125OSM   H18F13381   0.179   1.797   8.355  1.7855 -0.1136 -0.9766
  125OSM   H18G13382   0.195   1.624   8.402  0.4705 -0.6175 -1.7656
  125OSM   H18H13383   0.042   1.723   8.438 -3.0553 -0.6933 -2.5589
  126OSM      N13384   3.643   5.640   6.190 -0.9789  0.5809  0.5821
  126OSM    C1513385   3.503   5.648   6.128  0.7852 -0.1514 -0.2359
  126OSM   H15A13386   3.455   5.728   6.183 -1.6356 -0.6770 -1.4623
  126OSM   H15B13387   3.446   5.561   6.154  2.0937 -0.8945  0.2399
  126OSM   H15C13388   3.501   5.683   6.026 -1.7364  0.1610 -0.1381
  126OSM    C1413389   3.705   5.505   6.151 -0.5268 -0.2364 -0.0507
  126OSM   H14A13390   3.684   5.471   6.050 -0.5720 -2.2975  0.5979
  126OSM   H14B13391   3.664   5.428   6.214  0.2422  0.1114  0.8949
  126OSM   H14C13392   3.809   5.508   6.181 -1.0446 -0.4756  1.8981
  126OSM    C1313393   3.720   5.750   6.135  0.4868  0.6955  0.9394
  126OSM   H13A13394   3.814   5.763   6.187  0.2566  0.7815  1.3396
  126OSM   H13B13395   3.670   5.846   6.145  0.3375  1.1854 -2.9699
  126OSM   H13C13396   3.742   5.737   6.030 -1.8523  0.7631  0.3786
  126OSM    C1213397   3.635   5.661   6.337  0.0354 -0.2029  0.0607
  126OSM   H12A13398   3.739   5.666   6.366 -0.0273 -1.2757  0.4951
  126OSM   H12B13399   3.587   5.579   6.388 -0.2725 -0.3928 -0.5209
  126OSM    C1113400   3.563   5.786   6.397  0.0191  0.3568 -0.4407
  126OSM   H11A13401   3.593   5.882   6.348  1.1422  0.3826  0.2688
  126OSM   H11B13402   3.600   5.791   6.501  1.0469 -0.8534 -0.7287
  126OSM      P13403   3.331   5.889   6.470 -0.0584  0.0284  0.0645
  126OSM    O1313404   3.298   5.994   6.372  0.2373  0.3626  0.2026
  126OSM    O1413405   3.222   5.821   6.545 -0.1022 -0.1061  0.6831
  126OSM    O1113406   3.438   5.950   6.573  0.3966 -0.0628  0.1807
  126OSM    O1213407   3.419   5.776   6.395  0.2763 -0.7906 -0.0210
  126OSM    C1S13408   3.447   5.907   6.710 -0.0063 -0.1573 -0.0263
  126OSM    H1S13409   3.446   5.796   6.715 -1.5591 -0.1132  1.9337
  126OSM    H1T13410   3.356   5.935   6.768  0.8126  1.3952  0.5600
  126OSM     NF13411   3.539   5.942   6.927  0.2796  0.5786 -0.2753
  126OSM    HNF13412   3.477   5.993   6.986  1.0438  0.3733  0.7293
  126OSM    C2S13413   3.563   5.976   6.788  0.4751  0.6903  0.5849
  126OSM    H2S13414   3.659   5.931   6.754 -1.7213 -3.1884 -1.1456
  126OSM    C3S13415   3.560   6.123   6.750  0.5350  0.1199 -0.3757
  126OSM    H3S13416   3.451   6.147   6.748 -0.6795 -4.4370 -2.5982
  126OSM     O313417   3.622   6.139   6.624 -0.8290  0.2469 -0.4720
  126OSM    HO313418   3.603   6.060   6.573 -0.9166 -0.5481  0.7623
  126OSM    C4S13419   3.636   6.202   6.860  0.1006  0.0931 -0.1030
  126OSM    H4S13420   3.570   6.223   6.945  0.9109 -2.3272  1.2242
  126OSM    C5S13421   3.759   6.250   6.857  0.1940 -0.1311  0.1960
  126OSM    H5S13422   3.814   6.248   6.762 -1.6089  0.1896 -0.9143
  126OSM    C6S13423   3.814   6.330   6.972 -0.5475 -0.9461  0.4348
  126OSM    H6S13424   3.736   6.388   7.027 -1.2339 -0.9837 -0.4695
  126OSM    H6T13425   3.886   6.411   6.947  2.3064 -1.8258  4.7230
  126OSM    C7S13426   3.887   6.241   7.073 -0.1511 -0.3878 -0.0987
  126OSM    H7S13427   3.983   6.205   7.031 -1.5267 -3.3596 -0.9324
  126OSM    H7T13428   3.843   6.143   7.099 -0.1426  0.1275  1.9975
  126OSM    C8S13429   3.926   6.323   7.197 -0.3390 -0.3114 -0.1068
  126OSM    H8S13430   3.842   6.380   7.240  0.1881 -0.7735  1.6190
  126OSM    H8T13431   4.008   6.395   7.176  0.6588 -0.6260  2.3206
  126OSM    C9S13432   3.984   6.238   7.304  0.4462  0.3809 -0.4170
  126OSM    H9S13433   4.080   6.188   7.278  0.8226 -2.2078  4.7294
  126OSM    H9T13434   3.907   6.162   7.329 -1.1407  1.9355 -0.3657
  126OSM   C10S13435   4.015   6.318   7.431 -0.4769 -0.0770  0.0254
  126OSM   H10S13436   3.912   6.355   7.451 -0.2605  2.1923 -2.5281
  126OSM   H10T13437   4.092   6.391   7.398 -0.1028 -1.3951 -2.2639
  126OSM   C11S13438   4.067   6.241   7.555  0.6011 -0.2173 -0.5253
  126OSM   H11S13439   4.171   6.208   7.534  0.4510 -0.7826 -0.3931
  126OSM   H11T13440   3.997   6.161   7.587 -0.2110  0.2719 -1.0236
  126OSM   C12S13441   4.090   6.329   7.676  0.0727 -0.3247 -0.1421
  126OSM   H12S13442   4.008   6.404   7.680  0.6280  0.4198 -1.7980
  126OSM   H12T13443   4.186   6.383   7.665  0.5323 -1.0965 -0.0135
  126OSM   C13S13444   4.102   6.250   7.811  0.1952  0.2644 -0.2164
  126OSM   H13S13445   4.193   6.187   7.808  0.0005 -0.1864  1.8177
  126OSM   H13T13446   4.012   6.185   7.813 -1.0839  1.9747  2.0663
  126OSM   C14S13447   4.086   6.334   7.939  0.8228  0.4216  0.3450
  126OSM   H14S13448   4.012   6.412   7.912 -0.5394 -1.1051 -0.4678
  126OSM   H14T13449   4.182   6.384   7.964  1.7978 -1.6851  1.0494
  126OSM   C15S13450   4.046   6.245   8.058 -0.2782 -0.1509  0.1517
  126OSM   H15S13451   4.133   6.176   8.059 -1.2250 -1.5016 -1.8735
  126OSM   H15T13452   3.958   6.183   8.030 -0.8855  1.0160 -0.6284
  126OSM   C16S13453   4.024   6.317   8.184  0.1342  0.2521 -0.2306
  126OSM   H16S13454   3.950   6.392   8.149  0.5016 -1.2696 -5.0862
  126OSM   H16T13455   4.116   6.375   8.206  1.0867 -0.4138 -2.1617
  126OSM   C17S13456   3.980   6.231   8.305 -0.5797 -0.3304 -0.0914
  126OSM   H17S13457   3.886   6.182   8.272 -2.2116  1.2550  1.9424
  126OSM   H17T13458   3.953   6.290   8.395  1.6165  1.6099 -0.6138
  126OSM   C18S13459   4.080   6.125   8.353  0.4506 -0.3333 -0.5083
  126OSM   H18S13460   4.114   6.047   8.282  1.8969 -0.9905  0.8532
  126OSM   H18T13461   4.044   6.071   8.444  1.7965 -0.2322  0.1099
  126OSM   H18U13462   4.176   6.170   8.384 -1.2000  1.5497  2.3885
  126OSM    C1F13463   3.570   5.823   6.975  0.2932 -0.1594 -0.2014
  126OSM     OF13464   3.626   5.737   6.906 -0.4085 -0.0672  0.0588
  126OSM    C2F13465   3.520   5.779   7.110  0.4178  0.0399  0.4363
  126OSM    H2F13466   3.598   5.717   7.160  0.4471 -0.0228  0.3128
  126OSM    H2G13467   3.429   5.722   7.082  1.3900 -1.1247 -0.4468
  126OSM    C3F13468   3.490   5.896   7.209  0.2100  0.3761 -0.1046
  126OSM    H3F13469   3.398   5.938   7.164 -0.8855 -0.1680  1.5637
  126OSM    H3G13470   3.567   5.977   7.203  0.5913  0.1889  1.7232
  126OSM    C4F13471   3.460   5.853   7.354  0.2857 -0.1539 -0.0347
  126OSM    H4F13472   3.457   5.949   7.410  1.0626 -0.1119 -0.0509
  126OSM    H4G13473   3.549   5.793   7.385  1.4560  1.0509 -0.9032
  126OSM    C5F13474   3.339   5.765   7.371  0.1815  0.1413 -0.3946
  126OSM    H5F13475   3.364   5.660   7.346  1.2281 -0.0526  1.2924
  126OSM    H5G13476   3.253   5.801   7.311 -0.1960  0.0143  0.0640
  126OSM    C6F13477   3.292   5.774   7.523 -0.8867  0.8412  0.0535
  126OSM    H6F13478   3.207   5.704   7.541  0.8288 -1.8246 -1.5762
  126OSM    H6G13479   3.243   5.870   7.550 -0.6164  1.7100 -2.2989
  126OSM    C7F13480   3.393   5.736   7.627 -0.4331  0.5712 -0.1509
  126OSM    H7F13481   3.465   5.820   7.628  1.1265 -0.6620 -1.7593
  126OSM    H7G13482   3.453   5.653   7.584  1.2342  2.6895 -2.1557
  126OSM    C8F13483   3.343   5.689   7.767  0.7123 -0.3522 -0.6627
  126OSM    H8F13484   3.429   5.676   7.836 -0.7309 -0.8268  1.1251
  126OSM    H8G13485   3.291   5.591   7.764  0.6105 -0.2754 -1.4447
  126OSM    C9F13486   3.244   5.793   7.825 -0.2496 -0.1678 -0.3518
  126OSM    H9F13487   3.143   5.787   7.782 -0.6029 -2.7464  0.6442
  126OSM   C10F13488   3.270   5.886   7.918  0.7588 -0.6556 -0.4659
  126OSM   H10F13489   3.201   5.966   7.949  0.3284 -1.8663  1.9626
  126OSM   C11F13490   3.406   5.900   7.988  0.2924 -0.1487  0.4134
  126OSM   H11F13491   3.446   5.992   7.941 -2.2900  1.0158  0.3132
  126OSM   H11G13492   3.485   5.828   7.957 -0.0788 -0.2570 -0.3102
  126OSM   C12F13493   3.404   5.912   8.147 -0.5526  0.2287  0.3442
  126OSM   H12F13494   3.356   5.822   8.192  0.9622 -0.5204  0.5468
  126OSM   H12G13495   3.357   6.009   8.171  0.4957  0.9966 -0.5845
  126OSM   C13F13496   3.541   5.915   8.216 -0.1712  0.6980  0.2208
  126OSM   H13F13497   3.599   6.002   8.179  0.4388  0.0580 -0.3374
  126OSM   H13G13498   3.597   5.820   8.202  0.4985  0.7942  1.9535
  126OSM   C14F13499   3.537   5.948   8.366  0.6918 -0.2240  0.2290
  126OSM   H14F13500   3.492   5.859   8.415 -0.3037  0.4244  0.5078
  126OSM   H14G13501   3.469   6.034   8.379 -1.9554 -1.7366 -2.3943
  126OSM   C15F13502   3.677   5.973   8.431 -0.3237 -0.2031  0.0149
  126OSM   H15F13503   3.713   6.061   8.374  1.1606 -1.0815 -0.4565
  126OSM   H15G13504   3.744   5.887   8.411 -1.6364 -1.3365  0.2684
  126OSM   C16F13505   3.673   6.020   8.575  0.4867 -0.2698  0.1415
  126OSM   H16F13506   3.631   5.945   8.645  2.5312 -1.0640  0.5686
  126OSM   H16G13507   3.611   6.112   8.587  0.4968 -0.2975  0.4142
  126OSM   C17F13508   3.816   6.052   8.631  0.2049  0.3202  0.3396
  126OSM   H17F13509   3.869   6.118   8.559  0.3657 -0.6099 -0.4166
  126OSM   H17G13510   3.873   5.958   8.647  1.3351  1.0546  0.7591
  126OSM   C18F13511   3.814   6.119   8.775 -0.1423 -0.7204 -0.2659
  126OSM   H18F13512   3.915   6.124   8.819 -0.7072  1.3247  0.9044
  126OSM   H18G13513   3.749   6.056   8.840  0.0136 -1.4862 -0.8366
  126OSM   H18H13514   3.778   6.224   8.769  0.3798 -0.3174  2.4765
  127OSM      N13515   2.836   0.551   6.322  0.2300  0.0326 -0.4985
  127OSM    C1513516   2.795   0.611   6.192 -0.1888  0.0587 -0.1128
  127OSM   H15A13517   2.765   0.712   6.214  0.7533 -0.0780  2.0203
  127OSM   H15B13518   2.711   0.560   6.148  0.7311 -1.2031 -0.4573
  127OSM   H15C13519   2.867   0.614   6.111  0.6125 -0.8291  0.5358
  127OSM    C1413520   2.721   0.537   6.420 -1.0479  0.1114  0.3446
  127OSM   H14A13521   2.689   0.638   6.443  2.5932  1.8087 -1.2313
  127OSM   H14B13522   2.751   0.477   6.505 -0.2382  1.6191  1.1698
  127OSM   H14C13523   2.631   0.490   6.382  0.5168 -1.9971 -0.9031
  127OSM    C1313524   2.881   0.411   6.292 -0.5064  0.4392  0.4806
  127OSM   H13A13525   2.932   0.361   6.373 -0.0641 -1.0903 -0.6912
  127OSM   H13B13526   2.951   0.393   6.212 -1.5184 -0.7912 -0.1691
  127OSM   H13C13527   2.788   0.363   6.265 -0.7123  0.9235  0.3102
  127OSM    C1213528   2.947   0.630   6.384 -0.3800 -0.3716  0.1499
  127OSM   H12A13529   3.024   0.635   6.308 -1.2896 -0.1607 -0.7786
  127OSM   H12B13530   3.003   0.573   6.457 -1.1699 -1.0922  0.2136
  127OSM    C1113531   2.914   0.772   6.438 -0.0391 -0.3155 -0.1549
  127OSM   H11A13532   3.004   0.810   6.490 -1.0045  0.5107  0.9497
  127OSM   H11B13533   2.833   0.778   6.514 -0.3849 -2.3548 -0.2882
  127OSM      P13534   3.003   0.927   6.251  0.1111  0.3294 -0.0216
  127OSM    O1313535   3.121   0.835   6.236 -0.1634 -0.7591  0.0824
  127OSM    O1413536   2.956   0.986   6.129  0.6284  0.1875 -0.1652
  127OSM    O1113537   3.040   1.041   6.341 -0.4336 -0.1815  0.0382
  127OSM    O1213538   2.886   0.855   6.327  0.1870  0.7239  0.3029
  127OSM    C1S13539   2.948   1.133   6.394 -0.3483 -0.4452 -0.0084
  127OSM    H1S13540   2.846   1.109   6.356 -0.2666  0.4814 -0.8763
  127OSM    H1T13541   2.967   1.235   6.354  0.7469 -0.7237 -0.2087
  127OSM     NF13542   2.830   1.209   6.591 -0.4264 -0.4478 -0.4036
  127OSM    HNF13543   2.840   1.299   6.634 -2.0900  0.2720 -1.4267
  127OSM    C2S13544   2.940   1.124   6.555  0.0140 -0.1650 -0.2950
  127OSM    H2S13545   2.903   1.024   6.585 -2.0906 -0.2110 -2.7049
  127OSM    C3S13546   3.073   1.142   6.626  0.1913 -0.3010  0.1933
  127OSM    H3S13547   3.100   1.246   6.600  0.0496 -0.8483 -2.3461
  127OSM     O313548   3.177   1.061   6.573 -0.3701  0.6221 -0.1841
  127OSM    HO313549   3.154   1.052   6.480  4.6131 -0.7426 -1.6056
  127OSM    C4S13550   3.056   1.123   6.773  0.2739  0.8639  0.5277
  127OSM    H4S13551   2.991   1.202   6.813 -0.2279  1.4621 -1.3309
  127OSM    C5S13552   3.102   1.027   6.858 -0.6800 -0.4083  0.5514
  127OSM    H5S13553   3.176   0.958   6.813 -0.1037  1.9218 -2.4204
  127OSM    C6S13554   3.084   1.024   7.002 -0.1427  0.5991 -1.1261
  127OSM    H6S13555   3.179   1.033   7.058 -1.7544  1.9219  1.6138
  127OSM    H6T13556   3.048   0.920   7.013  0.8079  0.1418 -2.2007
  127OSM    C7S13557   2.981   1.126   7.059  0.9559 -0.2309  0.1764
  127OSM    H7S13558   2.887   1.105   7.004  1.1118 -1.4584  0.3667
  127OSM    H7T13559   3.007   1.233   7.041 -3.3309  1.0054  0.1367
  127OSM    C8S13560   2.940   1.097   7.205 -0.8669 -0.0403 -0.2990
  127OSM    H8S13561   3.015   1.141   7.274  0.7185 -0.9395 -1.3811
  127OSM    H8T13562   2.940   0.987   7.222  0.1498  0.1691  1.1499
  127OSM    C9S13563   2.811   1.159   7.245  0.5447 -0.0494  0.0070
  127OSM    H9S13564   2.753   1.175   7.152  1.9013  3.8743 -0.3864
  127OSM    H9T13565   2.826   1.256   7.297  2.3662 -1.0126  1.4386
  127OSM   C10S13566   2.723   1.054   7.330 -0.0023 -0.1424  0.0830
  127OSM   H10S13567   2.722   0.963   7.266 -0.5423  1.1961 -1.9048
  127OSM   H10T13568   2.619   1.094   7.328  0.0989  0.1070 -0.1574
  127OSM   C11S13569   2.772   1.029   7.460 -0.8904 -0.3061 -0.5072
  127OSM   H11S13570   2.797   1.126   7.509 -0.6826 -0.7356  0.2497
  127OSM   H11T13571   2.870   0.977   7.457 -1.0001 -0.5559  0.1011
  127OSM   C12S13572   2.684   0.933   7.545 -0.1983  0.2371 -1.0896
  127OSM   H12S13573   2.678   0.839   7.487 -3.5546 -0.6588  0.4435
  127OSM   H12T13574   2.579   0.966   7.559 -0.6044 -1.7545  1.3403
  127OSM   C13S13575   2.755   0.912   7.679  0.0130  0.1880  0.4154
  127OSM   H13S13576   2.777   1.011   7.725 -0.4219  0.5678 -0.1708
  127OSM   H13T13577   2.851   0.860   7.657 -0.9581 -1.2700 -0.4989
  127OSM   C14S13578   2.684   0.818   7.778  0.0458 -0.2585 -0.2647
  127OSM   H14S13579   2.654   0.728   7.720  1.8003 -0.8226 -0.3579
  127OSM   H14T13580   2.585   0.854   7.813  1.4030  1.0330  2.5765
  127OSM   C15S13581   2.761   0.780   7.906 -0.5146  0.2153  0.6023
  127OSM   H15S13582   2.868   0.757   7.885 -0.9282 -1.0954 -0.1314
  127OSM   H15T13583   2.722   0.687   7.952 -1.3270 -0.0186 -0.5246
  127OSM   C16S13584   2.747   0.886   8.015 -0.7957 -0.7517  0.1898
  127OSM   H16S13585   2.643   0.926   8.017  0.3274  2.6079 -1.3072
  127OSM   H16T13586   2.813   0.974   7.999 -1.5718 -0.2747 -0.4087
  127OSM   C17S13587   2.786   0.828   8.148 -0.8682 -0.3729 -0.4496
  127OSM   H17S13588   2.786   0.918   8.214  1.0943 -1.3025  0.9134
  127OSM   H17T13589   2.890   0.789   8.145 -0.1736  1.4293 -3.3966
  127OSM   C18S13590   2.681   0.728   8.196  0.7093  0.2910 -0.2675
  127OSM   H18S13591   2.709   0.691   8.297  2.3505  0.9092 -0.4661
  127OSM   H18T13592   2.684   0.633   8.138  0.5690 -0.0935  0.3433
  127OSM   H18U13593   2.582   0.778   8.191 -0.9102 -2.6390  0.2285
  127OSM    C1F13594   2.706   1.176   6.554  0.4568 -0.2186 -0.3716
  127OSM     OF13595   2.674   1.064   6.526 -0.0459 -0.1476 -0.0287
  127OSM    C2F13596   2.606   1.279   6.573  0.5320  0.4469  0.1396
  127OSM    H2F13597   2.543   1.285   6.482  0.1824 -1.2752  0.2331
  127OSM    H2G13598   2.653   1.377   6.594  0.2777  0.4280  0.7935
  127OSM    C3F13599   2.511   1.245   6.686  1.5504  0.1832 -0.4151
  127OSM    H3F13600   2.489   1.136   6.692  0.9464  0.3741  2.1229
  127OSM    H3G13601   2.406   1.280   6.674  0.8947 -1.3614  0.5619
  127OSM    C4F13602   2.558   1.265   6.833 -0.3665 -0.3818 -0.3745
  127OSM    H4F13603   2.568   1.376   6.836 -2.3743 -0.0732 -2.3824
  127OSM    H4G13604   2.655   1.211   6.841  1.3109  1.7324 -3.9472
  127OSM    C5F13605   2.467   1.198   6.942 -0.2898  0.2319 -0.2230
  127OSM    H5F13606   2.516   1.102   6.971 -1.0763  0.6162  2.7444
  127OSM    H5G13607   2.363   1.184   6.906  0.1315  1.3959 -2.0106
  127OSM    C6F13608   2.463   1.263   7.081 -0.1420  0.1664  0.4183
  127OSM    H6F13609   2.393   1.349   7.067 -1.7434 -0.9699  1.1468
  127OSM    H6G13610   2.564   1.302   7.107  0.4743 -0.6734 -0.6633
  127OSM    C7F13611   2.402   1.173   7.176 -0.2898 -0.1115 -0.0738
  127OSM    H7F13612   2.472   1.087   7.181 -2.1183 -1.6921 -0.5093
  127OSM    H7G13613   2.295   1.152   7.154 -0.3218  1.5265 -1.8055
  127OSM    C8F13614   2.392   1.245   7.311 -0.4322  0.4927 -0.9282
  127OSM    H8F13615   2.354   1.349   7.306  1.1715  1.0699 -1.8515
  127OSM    H8G13616   2.499   1.252   7.340 -0.0459  0.2116 -2.2128
  127OSM    C9F13617   2.310   1.156   7.407  0.7299 -0.4931  0.0212
  127OSM    H9F13618   2.252   1.076   7.358 -0.1887  0.0273  0.2401
  127OSM   C10F13619   2.322   1.171   7.539  0.5170  0.2317 -0.4383
  127OSM   H10F13620   2.270   1.109   7.614 -1.3626  1.4006 -0.7028
  127OSM   C11F13621   2.407   1.280   7.609 -0.0417  0.0522 -0.4960
  127OSM   H11F13622   2.326   1.342   7.651  1.1248  0.1367  1.7588
  127OSM   H11G13623   2.467   1.343   7.539 -0.7322  0.4684 -0.7205
  127OSM   C12F13624   2.497   1.228   7.725  0.3528  0.2983 -0.7005
  127OSM   H12F13625   2.552   1.310   7.775 -1.4188  0.9051  0.3378
  127OSM   H12G13626   2.560   1.151   7.675 -1.1522 -2.2484  1.0817
  127OSM   C13F13627   2.414   1.162   7.838 -0.5740 -0.4222  0.5617
  127OSM   H13F13628   2.395   1.057   7.806 -1.3731 -0.1355  0.0686
  127OSM   H13G13629   2.319   1.220   7.834 -0.7803 -0.8243 -0.8331
  127OSM   C14F13630   2.490   1.186   7.965 -0.3625  0.6767 -0.8877
  127OSM   H14F13631   2.472   1.294   7.986  1.0620  0.5573  1.3036
  127OSM   H14G13632   2.596   1.161   7.946 -0.2991  2.3706 -3.1614
  127OSM   C15F13633   2.449   1.100   8.094 -0.3334 -0.0847 -0.1902
  127OSM   H15F13634   2.455   0.994   8.063 -1.7372  0.2086 -1.5625
  127OSM   H15G13635   2.340   1.116   8.111 -0.8832  0.9267 -3.9225
  127OSM   C16F13636   2.516   1.135   8.227 -0.3512 -0.0138 -0.6307
  127OSM   H16F13637   2.525   1.245   8.236  0.6611  0.0710 -2.2818
  127OSM   H16G13638   2.620   1.096   8.227 -0.3391 -0.0579  1.0245
  127OSM   C17F13639   2.440   1.081   8.348 -0.0795  0.6560 -0.3298
  127OSM   H17F13640   2.423   0.972   8.338  0.9214  0.5418 -0.8911
  127OSM   H17G13641   2.334   1.116   8.347  0.3070  1.8995  0.1928
  127OSM   C18F13642   2.505   1.098   8.483 -0.3211  1.0828 -0.0812
  127OSM   H18F13643   2.430   1.107   8.564  1.0599  0.7621  1.2986
  127OSM   H18G13644   2.573   1.185   8.493  0.6692  0.2372  0.8540
  127OSM   H18H13645   2.561   1.006   8.512  0.1750  1.4869  0.2647
  128OSM      N13646   2.453   4.075   5.862  0.5703  0.2000  0.1341
  128OSM    C1513647   2.484   3.934   5.878  0.5271 -0.5161  0.1808
  128OSM   H15A13648   2.399   3.880   5.917 -1.4396  1.2036 -1.4955
  128OSM   H15B13649   2.564   3.909   5.947 -1.1407  0.8303  2.7269
  128OSM   H15C13650   2.511   3.892   5.782 -1.7918 -2.1416  0.1558
  128OSM    C1413651   2.569   4.140   5.781 -0.2775 -0.3783 -0.3194
  128OSM   H14A13652   2.659   4.099   5.822 -0.3009 -1.0329 -0.8972
  128OSM   H14B13653   2.557   4.246   5.799 -0.2800 -0.6294  1.2926
  128OSM   H14C13654   2.572   4.110   5.677  0.2518 -2.5123  0.2791
  128OSM    C1313655   2.323   4.082   5.784 -0.0331  0.8542 -0.3445
  128OSM   H13A13656   2.308   4.175   5.731  1.5974  0.3846 -1.7329
  128OSM   H13B13657   2.240   4.079   5.853  1.4650  1.9787  1.6166
  128OSM   H13C13658   2.315   4.009   5.704 -1.5089  2.5799 -1.8467
  128OSM    C1213659   2.442   4.148   5.996 -0.6811 -0.7947  0.4121
  128OSM   H12A13660   2.375   4.231   5.977 -1.1253 -1.4059 -0.7839
  128OSM   H12B13661   2.535   4.177   6.041 -0.5049 -3.3080  1.8347
  128OSM    C1113662   2.377   4.080   6.114  0.6453  0.8792  0.0271
  128OSM   H11A13663   2.396   4.150   6.197 -2.3042  1.3714  0.3929
  128OSM   H11B13664   2.433   3.991   6.150  0.8146  0.5997 -0.8920
  128OSM      P13665   2.136   4.159   6.118 -0.1937  0.2901  0.0415
  128OSM    O1313666   2.158   4.273   6.033 -0.6679 -0.0510 -0.1142
  128OSM    O1413667   1.997   4.111   6.116 -0.1101  0.4433  0.0910
  128OSM    O1113668   2.175   4.197   6.261  0.2788 -0.5674 -1.0036
  128OSM    O1213669   2.235   4.042   6.090 -0.0306 -0.6704  0.7796
  128OSM    C1S13670   2.124   4.125   6.378 -0.1378 -0.6762  0.5564
  128OSM    H1S13671   2.093   4.020   6.356  1.0541 -0.5527 -2.0427
  128OSM    H1T13672   2.031   4.173   6.415 -0.3314  0.2771 -1.0790
  128OSM     NF13673   2.214   4.016   6.598  0.2403 -0.6460 -0.0168
  128OSM    HNF13674   2.167   4.055   6.676 -1.7467  1.1070 -1.9507
  128OSM    C2S13675   2.239   4.115   6.489  0.3269  1.3844  0.2815
  128OSM    H2S13676   2.334   4.094   6.436  0.2540  0.3704  0.5249
  128OSM    C3S13677   2.261   4.260   6.538  0.0392  1.0563 -0.4737
  128OSM    H3S13678   2.172   4.305   6.587 -0.6962 -1.4091  0.6092
  128OSM     O313679   2.320   4.345   6.438 -0.2529  0.1236  0.5243
  128OSM    HO313680   2.331   4.286   6.363 -0.7256  1.5006 -0.6816
  128OSM    C4S13681   2.367   4.262   6.648 -0.4903  0.5631 -0.0664
  128OSM    H4S13682   2.469   4.231   6.619  0.4286  2.6298  0.7272
  128OSM    C5S13683   2.346   4.295   6.777  0.1781 -0.0470 -0.0583
  128OSM    H5S13684   2.244   4.316   6.813 -0.4514 -2.8406  0.0164
  128OSM    C6S13685   2.442   4.325   6.886 -0.5434  0.7041 -0.7442
  128OSM    H6S13686   2.530   4.381   6.847  0.8303 -0.4882  0.5008
  128OSM    H6T13687   2.468   4.234   6.944 -0.5996  0.4974 -1.0421
  128OSM    C7S13688   2.379   4.423   6.996  0.0515  0.5839 -0.8139
  128OSM    H7S13689   2.294   4.374   7.047  0.4097  1.9546  1.1994
  128OSM    H7T13690   2.344   4.520   6.954 -1.5829 -1.2113 -3.9523
  128OSM    C8S13691   2.483   4.475   7.096  0.2737  0.6019  0.3131
  128OSM    H8S13692   2.467   4.583   7.113 -0.5952  1.1298 -3.1209
  128OSM    H8T13693   2.585   4.462   7.054 -0.3112 -1.6851 -0.5643
  128OSM    C9S13694   2.482   4.403   7.234  0.3127 -0.2927  0.0465
  128OSM    H9S13695   2.503   4.295   7.216 -0.8209 -0.3501 -1.0475
  128OSM    H9T13696   2.378   4.415   7.273  0.8935  0.5921  1.4108
  128OSM   C10S13697   2.576   4.462   7.334  0.1461 -0.1664  0.0854
  128OSM   H10S13698   2.536   4.561   7.366  1.2161 -0.3738  2.1992
  128OSM   H10T13699   2.670   4.483   7.279  0.1633  0.9716  0.5179
  128OSM   C11S13700   2.600   4.380   7.456 -0.1046  0.3481  0.2156
  128OSM   H11S13701   2.651   4.289   7.420 -1.8167 -0.3698 -0.5198
  128OSM   H11T13702   2.503   4.352   7.503 -0.7314  3.2152  0.8222
  128OSM   C12S13703   2.690   4.457   7.560  0.6233  0.2808 -0.6098
  128OSM   H12S13704   2.777   4.498   7.503  0.0463  0.8539 -1.0937
  128OSM   H12T13705   2.725   4.380   7.632 -0.2169  0.9583  0.5617
  128OSM   C13S13706   2.608   4.564   7.633  0.1630  0.0152  0.0081
  128OSM   H13S13707   2.500   4.538   7.635  0.1045  0.1326 -1.1404
  128OSM   H13T13708   2.611   4.654   7.569  1.4661  1.6687  2.2382
  128OSM   C14S13709   2.681   4.595   7.763  0.7678  0.1826 -0.0522
  128OSM   H14S13710   2.773   4.641   7.721  0.9449 -1.7389 -1.8955
  128OSM   H14T13711   2.706   4.499   7.813 -1.1886 -1.2396 -1.6382
  128OSM   C15S13712   2.594   4.698   7.852 -1.1623  0.0129  0.3737
  128OSM   H15S13713   2.497   4.650   7.876 -0.4714 -2.8415 -1.8400
  128OSM   H15T13714   2.585   4.790   7.791  0.2668  1.2285  1.9009
  128OSM   C16S13715   2.657   4.730   7.987 -0.2666 -0.7858 -0.8174
  128OSM   H16S13716   2.764   4.756   7.972  0.4529 -2.3031  1.2937
  128OSM   H16T13717   2.639   4.647   8.058 -2.4699  0.0993 -0.2364
  128OSM   C17S13718   2.601   4.856   8.050  0.1541 -0.6213 -0.3590
  128OSM   H17S13719   2.599   4.931   7.968 -0.0555 -0.2855 -0.0487
  128OSM   H17T13720   2.658   4.894   8.137 -1.0714 -1.8598  1.0285
  128OSM   C18S13721   2.455   4.860   8.098 -0.1252 -0.0675  0.3221
  128OSM   H18S13722   2.385   4.841   8.015  2.0104 -2.3695 -1.1213
  128OSM   H18T13723   2.435   4.960   8.142 -1.2838  0.2106 -0.7951
  128OSM   H18U13724   2.438   4.789   8.182 -1.0247 -0.6985 -0.3854
  128OSM    C1F13725   2.235   3.889   6.585 -0.5038 -0.4370 -0.8196
  128OSM     OF13726   2.309   3.848   6.499  0.2233 -0.2622  0.5912
  128OSM    C2F13727   2.165   3.795   6.681 -0.6812 -0.3199  0.3709
  128OSM    H2F13728   2.120   3.713   6.622  0.3660 -1.2605  0.8333
  128OSM    H2G13729   2.086   3.852   6.735 -1.2166 -1.4244  0.8005
  128OSM    C3F13730   2.262   3.736   6.786  0.3043 -0.3236 -0.6542
  128OSM    H3F13731   2.345   3.686   6.732 -0.4578  0.1617 -2.3398
  128OSM    H3G13732   2.210   3.668   6.857  0.8524  1.6319  1.7712
  128OSM    C4F13733   2.314   3.841   6.887  0.3372 -0.1963  0.0361
  128OSM    H4F13734   2.364   3.930   6.843 -0.0151  0.8250  1.6225
  128OSM    H4G13735   2.392   3.794   6.951  0.5307  0.0609 -0.0101
  128OSM    C5F13736   2.201   3.891   6.982  0.2586  0.0142 -0.8374
  128OSM    H5F13737   2.162   3.796   7.025 -0.1411 -0.4454 -2.1840
  128OSM    H5G13738   2.117   3.941   6.930 -2.3546 -2.8181  0.3238
  128OSM    C6F13739   2.267   3.979   7.092  0.2849  0.2632  1.0455
  128OSM    H6F13740   2.294   4.080   7.054  0.7930 -0.3045 -0.1568
  128OSM    H6G13741   2.360   3.927   7.125  0.6559 -0.2481 -0.6989
  128OSM    C7F13742   2.163   3.996   7.210  0.1127  0.1910  0.0812
  128OSM    H7F13743   2.140   3.890   7.235 -0.7486  1.0761  3.6033
  128OSM    H7G13744   2.069   4.034   7.163  1.1945  0.4168 -2.0347
  128OSM    C8F13745   2.196   4.081   7.329 -0.2913  0.0024 -0.4500
  128OSM    H8F13746   2.111   4.084   7.400 -0.2249 -0.9307 -0.3178
  128OSM    H8G13747   2.203   4.191   7.316 -0.9160  0.1129  0.0742
  128OSM    C9F13748   2.318   4.025   7.397  0.4690  0.7622  0.1200
  128OSM    H9F13749   2.377   3.952   7.338 -0.1516  1.0428 -0.8680
  128OSM   C10F13750   2.364   4.068   7.515 -0.2616 -0.6619  0.1902
  128OSM   H10F13751   2.455   4.023   7.557  0.1583 -0.6658 -0.7131
  128OSM   C11F13752   2.299   4.175   7.606 -1.0522 -0.4323 -0.2609
  128OSM   H11F13753   2.191   4.186   7.583 -1.2454 -1.0713  0.3059
  128OSM   H11G13754   2.344   4.275   7.588  1.5487 -1.2125  1.3465
  128OSM   C12F13755   2.312   4.161   7.758 -0.6468  0.5492 -0.0220
  128OSM   H12F13756   2.272   4.062   7.791 -1.0302  0.1850 -1.5158
  128OSM   H12G13757   2.242   4.235   7.802 -1.3514 -0.3145  0.3368
  128OSM   C13F13758   2.449   4.186   7.824  0.8560  0.6267 -0.3163
  128OSM   H13F13759   2.469   4.295   7.817 -1.4864  1.0202 -1.9417
  128OSM   H13G13760   2.531   4.124   7.783 -1.4617 -3.0252  0.1394
  128OSM   C14F13761   2.440   4.156   7.978 -0.1192 -0.9602  0.3308
  128OSM   H14F13762   2.422   4.046   7.977  0.4669 -1.1567  2.9275
  128OSM   H14G13763   2.352   4.211   8.017 -0.1807  0.7461 -2.0451
  128OSM   C15F13764   2.562   4.176   8.067 -0.9463  0.1284 -0.2832
  128OSM   H15F13765   2.590   4.283   8.075  2.0547 -0.4350 -1.8262
  128OSM   H15G13766   2.649   4.123   8.023 -1.7820 -1.8634  0.3163
  128OSM   C16F13767   2.544   4.121   8.214 -1.3745  0.2286  0.3608
  128OSM   H16F13768   2.536   4.011   8.223 -0.4421  0.2287  1.6192
  128OSM   H16G13769   2.449   4.158   8.258 -3.4862 -1.9337 -2.0928
  128OSM   C17F13770   2.660   4.161   8.312  0.0106 -0.4015 -0.2161
  128OSM   H17F13771   2.684   4.269   8.308 -2.2327  0.1170 -3.9036
  128OSM   H17G13772   2.747   4.107   8.268 -1.7290 -2.9358 -0.8019
  128OSM   C18F13773   2.641   4.120   8.455 -0.2060 -0.0796 -1.0876
  128OSM   H18F13774   2.602   4.198   8.524  1.3334 -1.1916  1.1771
  128OSM   H18G13775   2.740   4.091   8.497  0.2149  3.0470  0.3332
  128OSM   H18H13776   2.564   4.040   8.463 -0.1783 -0.2297 -2.1910
  129OSM      N13777   0.030   6.386   5.862 -0.7173  0.0299 -0.3971
  129OSM    C1513778  -0.051   6.267   5.836  0.3709  0.0859  0.2935
  129OSM   H15A13779  -0.008   6.182   5.886  1.7203  0.8491  0.4796
  129OSM   H15B13780  -0.052   6.249   5.729  2.3176 -0.4781  0.3430
  129OSM   H15C13781  -0.147   6.280   5.885  0.6805  1.3207  0.5915
  129OSM    C1413782   0.168   6.368   5.814  0.0506  0.1822  0.3562
  129OSM   H14A13783   0.171   6.308   5.725  0.3181  0.2592  0.3120
  129OSM   H14B13784   0.222   6.316   5.892 -2.3857 -0.9996  1.3629
  129OSM   H14C13785   0.219   6.463   5.805  0.5130 -0.0319  0.7135
  129OSM    C1313786  -0.027   6.497   5.781  0.6205  0.9754  0.7864
  129OSM   H13A13787  -0.037   6.472   5.676 -2.1373 -0.0648  1.2005
  129OSM   H13B13788   0.028   6.589   5.790  1.1044  1.1218 -2.4824
  129OSM   H13C13789  -0.127   6.522   5.812  0.5616  1.5223  0.1878
  129OSM    C1213790   0.036   6.432   6.004 -0.1769 -0.0023 -0.2094
  129OSM   H12A13791  -0.065   6.443   6.039 -0.3745 -2.0791 -0.0080
  129OSM   H12B13792   0.088   6.526   5.994  1.1907 -0.8985 -2.1227
  129OSM    C1113793   0.112   6.351   6.119  0.0667  0.7411 -0.2094
  129OSM   H11A13794   0.076   6.247   6.111  1.9019  0.1326 -1.1268
  129OSM   H11B13795   0.093   6.384   6.223  2.3524 -0.1655  0.5520
  129OSM      P13796   0.347   6.471   6.128  0.0173  0.3037 -0.1001
  129OSM    O1313797   0.484   6.434   6.097  0.1004 -0.5372  0.9158
  129OSM    O1413798   0.296   6.590   6.055 -0.5355  0.0970  0.1268
  129OSM    O1113799   0.338   6.501   6.281 -0.2139 -0.2574  0.1634
  129OSM    O1213800   0.256   6.349   6.105 -0.3848  0.6007 -0.5354
  129OSM    C1S13801   0.316   6.398   6.377 -0.0751  0.3577 -0.5754
  129OSM    H1S13802   0.403   6.330   6.372  1.4078  2.1020  0.2294
  129OSM    H1T13803   0.226   6.334   6.367 -0.3039  0.3601  1.1679
  129OSM     NF13804   0.331   6.364   6.623  0.1588  0.1479  1.1519
  129OSM    HNF13805   0.250   6.318   6.659 -0.1859  2.2279  3.1909
  129OSM    C2S13806   0.306   6.466   6.519  0.4457  1.0077 -0.4913
  129OSM    H2S13807   0.386   6.541   6.537  0.0826  1.4353 -0.6515
  129OSM    C3S13808   0.173   6.536   6.529 -0.0651 -0.0502 -0.0378
  129OSM    H3S13809   0.091   6.466   6.503 -1.8494  2.1411 -0.6560
  129OSM     O313810   0.159   6.634   6.423  0.6681 -0.1065  0.3063
  129OSM    HO313811   0.222   6.614   6.353  0.5569  2.6422 -0.6917
  129OSM    C4S13812   0.155   6.589   6.664 -0.0024  0.1535  1.0057
  129OSM    H4S13813   0.091   6.526   6.728  3.5035 -3.3053  1.4880
  129OSM    C5S13814   0.211   6.697   6.719 -0.0354  0.2487 -0.3068
  129OSM    H5S13815   0.271   6.770   6.664  0.4386  0.8760  0.9867
  129OSM    C6S13816   0.182   6.730   6.866 -0.1407 -0.9012  0.8303
  129OSM    H6S13817   0.078   6.771   6.875  0.1628  0.3010 -0.7267
  129OSM    H6T13818   0.250   6.810   6.902 -0.1596 -1.3603  1.9198
  129OSM    C7S13819   0.195   6.618   6.973  0.4244 -0.1426  0.0324
  129OSM    H7S13820   0.118   6.540   6.953  1.0644 -0.0031 -3.6070
  129OSM    H7T13821   0.171   6.665   7.071  0.8724 -0.7353  0.4371
  129OSM    C8S13822   0.324   6.536   6.979  0.5750  0.5169 -0.2346
  129OSM    H8S13823   0.396   6.586   7.048  1.1636  2.2929 -2.0244
  129OSM    H8T13824   0.372   6.522   6.879 -0.8527 -2.7261 -0.5747
  129OSM    C9S13825   0.314   6.394   7.044  0.2699 -0.3282 -0.2936
  129OSM    H9S13826   0.412   6.343   7.038  0.5785 -0.1328  2.0428
  129OSM    H9T13827   0.243   6.327   6.992 -1.3547  0.6842  0.5445
  129OSM   C10S13828   0.270   6.409   7.193 -0.0004  0.6318  0.6193
  129OSM   H10S13829   0.195   6.488   7.214  0.3979  1.3611 -0.5910
  129OSM   H10T13830   0.358   6.429   7.258  0.9505 -0.6346 -0.2307
  129OSM   C11S13831   0.216   6.282   7.257  0.1620  0.6629 -0.2915
  129OSM   H11S13832   0.295   6.205   7.246 -0.7966 -0.2158 -1.3370
  129OSM   H11T13833   0.119   6.245   7.215  0.2518  0.3378 -0.2175
  129OSM   C12S13834   0.184   6.298   7.405 -0.2160  0.0466 -0.9046
  129OSM   H12S13835   0.124   6.391   7.408  2.3169  1.7896 -0.7257
  129OSM   H12T13836   0.283   6.321   7.450 -0.9540  1.5102  0.0120
  129OSM   C13S13837   0.113   6.178   7.467  0.1310  0.2010 -0.0451
  129OSM   H13S13838   0.194   6.102   7.461 -1.8610 -1.9904 -0.8010
  129OSM   H13T13839   0.036   6.141   7.395  1.6822  1.7772 -2.6808
  129OSM   C14S13840   0.073   6.175   7.609  0.3812  0.5587 -0.3342
  129OSM   H14S13841   0.040   6.076   7.646  1.5326  0.2837 -0.0035
  129OSM   H14T13842  -0.017   6.239   7.617  0.1246 -0.0148  3.0231
  129OSM   C15S13843   0.174   6.232   7.715  0.1845  0.3738 -0.1770
  129OSM   H15S13844   0.122   6.229   7.813  0.7890  0.9817  0.1788
  129OSM   H15T13845   0.168   6.342   7.696  0.2531  0.6729  1.3518
  129OSM   C16S13846   0.319   6.176   7.725 -0.1767  0.5618 -0.0624
  129OSM   H16S13847   0.373   6.191   7.628 -1.4468  3.0548 -0.4633
  129OSM   H16T13848   0.327   6.066   7.734 -0.8785  0.6843  2.9112
  129OSM   C17S13849   0.403   6.233   7.837 -0.2367  0.2975 -0.9424
  129OSM   H17S13850   0.499   6.177   7.836 -0.0017  0.6898 -0.4870
  129OSM   H17T13851   0.353   6.209   7.933  1.8090  0.2464  0.1754
  129OSM   C18S13852   0.417   6.379   7.835  0.0960  0.0627  0.4048
  129OSM   H18S13853   0.445   6.423   7.737 -0.6476 -0.1641  0.0859
  129OSM   H18T13854   0.484   6.412   7.917 -0.4078  0.2738  0.7401
  129OSM   H18U13855   0.322   6.431   7.862 -1.2038 -1.8782 -0.2696
  129OSM    C1F13856   0.449   6.317   6.661 -0.2926  0.4049  0.1983
  129OSM     OF13857   0.549   6.365   6.621 -0.1699 -0.0569  0.4984
  129OSM    C2F13858   0.455   6.206   6.755  0.2005  0.1107  0.5005
  129OSM    H2F13859   0.399   6.120   6.714  0.3997  0.4300 -0.4673
  129OSM    H2G13860   0.407   6.232   6.852  0.8785  0.2260  0.8122
  129OSM    C3F13861   0.601   6.165   6.786  0.2235  0.5048 -0.3369
  129OSM    H3F13862   0.656   6.248   6.835  1.5341  0.0121 -0.9409
  129OSM    H3G13863   0.645   6.176   6.685 -1.9676  2.2776 -1.1806
  129OSM    C4F13864   0.625   6.048   6.881 -0.0986 -0.9527  0.5044
  129OSM    H4F13865   0.728   6.011   6.866  0.9250  2.3696 -2.0413
  129OSM    H4G13866   0.559   5.963   6.852 -0.0115 -0.7198 -0.4149
  129OSM    C5F13867   0.593   6.081   7.026  0.1175 -0.3286 -0.2482
  129OSM    H5F13868   0.490   6.117   7.047  0.4285 -0.8813  2.6851
  129OSM    H5G13869   0.653   6.171   7.052 -0.1334 -0.3799  0.5421
  129OSM    C6F13870   0.618   5.974   7.132 -0.3809  0.9092  0.3744
  129OSM    H6F13871   0.728   5.960   7.123 -0.1846  1.8549  1.1101
  129OSM    H6G13872   0.566   5.882   7.098  0.7412  1.1859 -2.3405
  129OSM    C7F13873   0.583   6.026   7.270  0.1170  0.4229 -0.3410
  129OSM    H7F13874   0.579   5.949   7.350  0.1495  1.4885  0.7124
  129OSM    H7G13875   0.479   6.064   7.261 -0.3936 -1.0128 -0.8292
  129OSM    C8F13876   0.681   6.128   7.330 -0.1710  0.5865 -0.3824
  129OSM    H8F13877   0.710   6.201   7.251 -1.3430 -0.0571 -1.4373
  129OSM    H8G13878   0.779   6.090   7.368 -0.2604  1.1968  0.4833
  129OSM    C9F13879   0.610   6.191   7.445  0.2549 -0.5234  0.6978
  129OSM    H9F13880   0.525   6.146   7.498 -0.6898  0.1041 -0.2373
  129OSM   C10F13881   0.658   6.294   7.517 -0.1797 -0.4633  0.1477
  129OSM   H10F13882   0.598   6.337   7.598  0.6893  0.1167  0.5040
  129OSM   C11F13883   0.783   6.368   7.492  0.9748  0.2270 -0.4976
  129OSM   H11F13884   0.763   6.465   7.542  0.1057 -1.5102  2.7806
  129OSM   H11G13885   0.793   6.386   7.383 -1.9228  0.3041 -0.8277
  129OSM   C12F13886   0.902   6.304   7.563 -0.4337 -0.1539 -0.2309
  129OSM   H12F13887   0.987   6.372   7.543  0.7352 -1.6801 -0.6491
  129OSM   H12G13888   0.927   6.208   7.514 -0.3176 -1.3314  1.9928
  129OSM   C13F13889   0.891   6.292   7.715  0.3983  0.3050 -0.1771
  129OSM   H13F13890   0.815   6.214   7.737 -1.2327  1.6056 -0.9494
  129OSM   H13G13891   0.848   6.391   7.744 -2.2818 -1.2541  1.5537
  129OSM   C14F13892   1.025   6.260   7.783  0.1563 -0.4042 -0.2070
  129OSM   H14F13893   1.107   6.329   7.754  2.5131 -1.5002  3.2890
  129OSM   H14G13894   1.051   6.156   7.752  2.1569 -0.1963  0.5947
  129OSM   C15F13895   1.020   6.273   7.938 -0.1410  0.4828  0.1938
  129OSM   H15F13896   1.108   6.223   7.985 -0.9777 -0.9239  0.2797
  129OSM   H15G13897   0.925   6.226   7.969 -1.3554  1.4587 -1.8668
  129OSM   C16F13898   1.014   6.413   7.992  0.6767 -0.1781  0.0388
  129OSM   H16F13899   0.928   6.457   7.937  1.4352  1.8483  0.3968
  129OSM   H16G13900   1.110   6.465   7.975 -0.1036  1.1532 -0.4433
  129OSM   C17F13901   0.992   6.422   8.149 -0.3235 -0.2906  0.1359
  129OSM   H17F13902   0.909   6.360   8.188  1.0306 -0.6552  2.6849
  129OSM   H17G13903   0.958   6.525   8.177  1.1576 -0.0737  1.2897
  129OSM   C18F13904   1.122   6.383   8.232  0.7952 -0.0950  0.0881
  129OSM   H18F13905   1.157   6.294   8.176 -1.3306 -0.1960 -1.1833
  129OSM   H18G13906   1.093   6.361   8.337  0.7435  1.2227  0.3658
  129OSM   H18H13907   1.196   6.465   8.223  0.8372  0.0144  1.1976
  130OSM      N13908   1.164   5.400   6.317  0.1379  0.1956 -0.0710
  130OSM    C1513909   1.213   5.469   6.446 -0.0429  0.3838  0.0431
  130OSM   H15A13910   1.166   5.566   6.456  2.8707  1.6676  3.5581
  130OSM   H15B13911   1.320   5.481   6.447  0.3677 -2.5022  1.9111
  130OSM   H15C13912   1.190   5.408   6.533  0.3110 -0.9836 -0.7939
  130OSM    C1413913   1.156   5.510   6.209  0.8304  0.0939  0.3892
  130OSM   H14A13914   1.251   5.536   6.166 -0.8029  0.8275 -3.1854
  130OSM   H14B13915   1.109   5.597   6.252 -2.4354 -1.2687 -0.1415
  130OSM   H14C13916   1.108   5.473   6.119 -1.3327  1.0975  1.0552
  130OSM    C1313917   1.256   5.286   6.277  0.7344 -0.6129  0.0207
  130OSM   H13A13918   1.358   5.310   6.252  0.3763  0.2984 -0.5986
  130OSM   H13B13919   1.217   5.235   6.190 -0.0449 -0.3467  0.2074
  130OSM   H13C13920   1.270   5.205   6.348 -1.2844 -1.1267 -0.1114
  130OSM    C1213921   1.024   5.355   6.337  0.5927  0.0321  0.2903
  130OSM   H12A13922   0.961   5.430   6.383 -0.2890 -1.1709  1.0907
  130OSM   H12B13923   1.030   5.271   6.405  2.3019  2.2236  3.0726
  130OSM    C1113924   0.947   5.303   6.212 -0.0800  0.4929 -0.3237
  130OSM   H11A13925   0.928   5.387   6.141  0.5573 -0.1084 -1.2353
  130OSM   H11B13926   0.851   5.265   6.252  0.5064  0.3867  1.0191
  130OSM      P13927   0.996   5.051   6.132  0.1738  0.2103 -0.1224
  130OSM    O1313928   0.892   5.022   6.024 -0.6933  0.0839 -0.2860
  130OSM    O1413929   1.121   4.973   6.136  0.1132 -0.6528 -0.3590
  130OSM    O1113930   0.918   5.044   6.269  0.1836  0.6841 -0.1893
  130OSM    O1213931   1.023   5.203   6.136  0.4116 -0.6958  0.2233
  130OSM    C1S13932   0.779   4.992   6.276 -0.2515  0.3044 -0.4756
  130OSM    H1S13933   0.774   4.903   6.210  0.3764  1.3076 -1.9115
  130OSM    H1T13934   0.722   5.076   6.232  0.3161  0.3098 -1.2191
  130OSM     NF13935   0.593   4.896   6.420  0.6930  0.4256 -0.0841
  130OSM    HNF13936   0.524   4.948   6.470  0.0155  0.0324 -0.5847
  130OSM    C2S13937   0.728   4.950   6.421  0.4212  0.2261 -0.6808
  130OSM    H2S13938   0.798   4.873   6.459 -0.0620  0.1511  0.0803
  130OSM    C3S13939   0.742   5.070   6.523 -0.4467 -0.3597 -0.2026
  130OSM    H3S13940   0.665   5.144   6.495 -1.4087 -0.5905  1.6509
  130OSM     O313941   0.865   5.140   6.512 -0.2161  0.6498  0.3393
  130OSM    HO313942   0.899   5.084   6.442  0.3743 -0.4102  1.4335
  130OSM    C4S13943   0.722   5.023   6.662  0.5279  0.1717 -0.8152
  130OSM    H4S13944   0.766   4.928   6.696  1.1142  1.5171  2.5348
  130OSM    C5S13945   0.641   5.083   6.750  0.3127 -0.2510 -0.6058
  130OSM    H5S13946   0.575   5.164   6.714  2.1090  1.5039 -0.1551
  130OSM    C6S13947   0.615   5.024   6.887 -0.3823 -0.1231 -1.2056
  130OSM    H6S13948   0.698   4.954   6.910 -0.0459  1.0225  1.5504
  130OSM    H6T13949   0.522   4.965   6.897  1.0402 -2.2359  0.6706
  130OSM    C7S13950   0.618   5.121   7.003  0.0607 -0.1588 -0.0192
  130OSM    H7S13951   0.596   5.058   7.092  0.6628 -1.4731 -0.7747
  130OSM    H7T13952   0.539   5.197   6.982 -1.6706 -1.3929  1.6739
  130OSM    C8S13953   0.757   5.202   7.019  0.0376  0.3076  0.1670
  130OSM    H8S13954   0.741   5.296   6.962 -0.1335  1.0532  1.4036
  130OSM    H8T13955   0.837   5.147   6.967 -1.0311  0.4734 -1.7305
  130OSM    C9S13956   0.782   5.235   7.162  0.2403  0.1078  1.1988
  130OSM    H9S13957   0.789   5.145   7.226  2.1557 -1.4483 -1.0228
  130OSM    H9T13958   0.690   5.294   7.184  0.9305  1.5957  0.2949
  130OSM   C10S13959   0.899   5.324   7.197  0.1987 -0.1227  0.0788
  130OSM   H10S13960   0.872   5.431   7.206  0.7105  0.0339 -0.2347
  130OSM   H10T13961   0.975   5.322   7.117  0.1310  1.8284 -0.0698
  130OSM   C11S13962   0.958   5.281   7.329 -0.1737  0.2450 -0.2568
  130OSM   H11S13963   1.054   5.335   7.341  0.9811 -0.9687 -3.2221
  130OSM   H11T13964   0.985   5.173   7.329  1.8974  0.7281 -0.5965
  130OSM   C12S13965   0.857   5.297   7.455 -0.2842 -0.2886 -0.1543
  130OSM   H12S13966   0.761   5.242   7.448 -1.9264  2.4066  0.0276
  130OSM   H12T13967   0.825   5.403   7.455 -1.6756 -0.6956 -0.4058
  130OSM   C13S13968   0.916   5.266   7.587  0.1303  0.1442 -1.0908
  130OSM   H13S13969   1.010   5.324   7.597 -0.2779  1.5026 -4.0545
  130OSM   H13T13970   0.934   5.157   7.577 -2.1661 -0.1861 -2.3262
  130OSM   C14S13971   0.821   5.278   7.713  0.1899  0.3561  0.5924
  130OSM   H14S13972   0.882   5.249   7.801 -0.8734  1.1498  1.6148
  130OSM   H14T13973   0.738   5.205   7.717 -1.0847  1.8025  1.4712
  130OSM   C15S13974   0.775   5.417   7.743 -0.7078  0.1688 -0.0396
  130OSM   H15S13975   0.705   5.459   7.666  0.0246  0.3372 -0.6246
  130OSM   H15T13976   0.862   5.486   7.742 -1.2649  0.8993 -1.0650
  130OSM   C16S13977   0.716   5.441   7.886  0.7074  0.4226 -0.6447
  130OSM   H16S13978   0.698   5.551   7.887  0.9359  0.4563  0.5467
  130OSM   H16T13979   0.795   5.428   7.962  0.4811 -0.1630 -0.5075
  130OSM   C17S13980   0.585   5.365   7.919  0.5626 -0.1587 -0.1695
  130OSM   H17S13981   0.601   5.256   7.904  2.0866  0.3678 -2.9920
  130OSM   H17T13982   0.499   5.392   7.855 -1.2069 -0.8633  1.7986
  130OSM   C18S13983   0.536   5.393   8.056 -0.0617  0.7980  0.6611
  130OSM   H18S13984   0.432   5.362   8.080 -0.2698 -1.3539 -2.4008
  130OSM   H18T13985   0.541   5.504   8.068 -1.6456  1.0489 -0.6385
  130OSM   H18U13986   0.599   5.342   8.132 -1.6883  0.2947  1.7203
  130OSM    C1F13987   0.562   4.776   6.362  0.7647  0.3563 -0.2687
  130OSM     OF13988   0.642   4.684   6.339 -0.4149 -1.1727  0.1767
  130OSM    C2F13989   0.424   4.767   6.305 -0.0876 -0.1516 -1.1520
  130OSM    H2F13990   0.418   4.798   6.199 -2.5672 -0.2740 -1.1262
  130OSM    H2G13991   0.357   4.829   6.369 -0.3268 -1.7899  0.2821
  130OSM    C3F13992   0.373   4.627   6.311 -0.3215  0.2059 -0.2293
  130OSM    H3F13993   0.424   4.562   6.238 -3.5101 -0.9312 -1.6439
  130OSM    H3G13994   0.266   4.627   6.280 -0.6822 -0.9776  0.9098
  130OSM    C4F13995   0.379   4.556   6.451  0.4976  0.4334  0.7388
  130OSM    H4F13996   0.484   4.541   6.484  0.7658 -2.2280 -1.0386
  130OSM    H4G13997   0.336   4.455   6.433  0.5692  0.8487 -2.1492
  130OSM    C5F13998   0.294   4.619   6.560  0.2511 -0.2662 -0.5876
  130OSM    H5F13999   0.223   4.542   6.598 -1.3130  1.2629 -0.2895
  130OSM    H5G14000   0.242   4.709   6.521 -0.1273 -0.4730 -0.5607
  130OSM    C6F14001   0.378   4.667   6.679 -0.1592 -0.0024  0.2186
  130OSM    H6F14002   0.410   4.773   6.667 -2.0387  0.4884 -0.8606
  130OSM    H6G14003   0.467   4.601   6.687 -0.3496 -0.3372 -0.3481
  130OSM    C7F14004   0.287   4.661   6.806  0.1859 -0.6355 -0.0717
  130OSM    H7F14005   0.235   4.564   6.813 -3.6022  1.2447  0.4784
  130OSM    H7G14006   0.207   4.739   6.803  3.0933  2.6898  1.1641
  130OSM    C8F14007   0.371   4.688   6.934 -0.0346 -0.2452 -0.3688
  130OSM    H8F14008   0.416   4.788   6.918  2.1189 -1.0979  0.0322
  130OSM    H8G14009   0.456   4.618   6.928  0.7408  0.6059  0.3139
  130OSM    C9F14010   0.273   4.672   7.048  0.1856  0.0403 -1.3386
  130OSM    H9F14011   0.224   4.574   7.037 -0.9210  0.4857 -0.4714
  130OSM   C10F14012   0.248   4.762   7.146 -0.0812 -0.0262 -0.3538
  130OSM   H10F14013   0.168   4.736   7.217  0.7789 -2.7406 -0.2531
  130OSM   C11F14014   0.308   4.899   7.153  1.1580  0.3339 -0.1053
  130OSM   H11F14015   0.232   4.980   7.145  2.1567  1.1239 -2.3889
  130OSM   H11G14016   0.381   4.908   7.070  0.4403  0.5685 -0.7189
  130OSM   C12F14017   0.402   4.927   7.279 -0.1802  0.3888 -0.4034
  130OSM   H12F14018   0.346   4.906   7.373 -0.1583  1.2064 -0.1951
  130OSM   H12G14019   0.428   5.035   7.281  2.5748 -0.2071  0.1540
  130OSM   C13F14020   0.537   4.850   7.272  0.5290 -0.2184 -0.4271
  130OSM   H13F14021   0.583   4.856   7.171  0.1696  2.7909 -0.4763
  130OSM   H13G14022   0.519   4.740   7.279 -0.9059 -0.2384 -3.0396
  130OSM   C14F14023   0.640   4.899   7.374  0.2406  0.2764 -0.4529
  130OSM   H14F14024   0.664   5.006   7.355 -0.5372  0.0479 -3.0875
  130OSM   H14G14025   0.729   4.832   7.375  0.1503  0.1575 -0.2537
  130OSM   C15F14026   0.591   4.888   7.517  0.1405  0.7946  0.2523
  130OSM   H15F14027   0.534   4.793   7.527  2.4181 -0.8336 -1.2014
  130OSM   H15G14028   0.527   4.974   7.545  1.6399  1.9034  0.4400
  130OSM   C16F14029   0.709   4.901   7.616 -1.0318  0.8130 -0.7609
  130OSM   H16F14030   0.776   4.987   7.593  0.1209  0.1425 -0.0022
  130OSM   H16G14031   0.778   4.814   7.613 -0.1433  1.3994  1.1524
  130OSM   C17F14032   0.656   4.919   7.759 -0.0607 -0.0625  0.1665
  130OSM   H17F14033   0.591   4.830   7.775 -1.3342  0.2815 -2.4796
  130OSM   H17G14034   0.587   5.006   7.753 -1.3422 -1.1231 -1.5011
  130OSM   C18F14035   0.760   4.948   7.867  0.1899 -0.0055  0.4900
  130OSM   H18F14036   0.845   4.877   7.863  0.1882 -0.0948  1.6574
  130OSM   H18G14037   0.726   4.948   7.973  2.0106 -0.6311  1.0975
  130OSM   H18H14038   0.810   5.046   7.847 -4.4219  3.4378  3.4885
  131OSM      N14039   1.370   1.548   5.815  0.0319  0.5301  0.1007
  131OSM    C1514040   1.437   1.612   5.703  0.1657  1.4907  0.5932
  131OSM   H15A14041   1.488   1.702   5.736 -0.7792  2.7072 -1.1096
  131OSM   H15B14042   1.367   1.659   5.635  0.9475  0.1744 -1.2021
  131OSM   H15C14043   1.516   1.562   5.648 -0.8097  0.9603 -0.3666
  131OSM    C1414044   1.250   1.631   5.852  0.0097  0.4452 -0.3730
  131OSM   H14A14045   1.286   1.701   5.926  2.6355 -1.1519 -0.0355
  131OSM   H14B14046   1.162   1.579   5.888  0.3349 -0.6160 -1.0830
  131OSM   H14C14047   1.214   1.689   5.768 -1.4544  2.8185  1.7542
  131OSM    C1314048   1.307   1.421   5.781 -0.4183 -1.3307 -0.5490
  131OSM   H13A14049   1.252   1.422   5.688 -0.6965  0.8608 -0.3979
  131OSM   H13B14050   1.243   1.391   5.863 -1.0236  1.1218 -0.0490
  131OSM   H13C14051   1.372   1.335   5.770  1.1291 -0.4245  1.0380
  131OSM    C1214052   1.463   1.540   5.936 -0.9756  0.3673 -0.9476
  131OSM   H12A14053   1.515   1.635   5.942 -1.4939  0.6344 -0.5445
  131OSM   H12B14054   1.544   1.470   5.925 -0.9974 -0.0915  1.2690
  131OSM    C1114055   1.406   1.499   6.078 -0.1961 -0.0689  0.0872
  131OSM   H11A14056   1.338   1.583   6.105 -1.3617 -0.1537 -2.2807
  131OSM   H11B14057   1.492   1.504   6.147 -1.7492 -0.2017  2.1435
  131OSM      P14058   1.221   1.320   6.149  0.4459  0.0982  0.2440
  131OSM    O1314059   1.101   1.377   6.086  0.3376  0.4227  0.5173
  131OSM    O1414060   1.218   1.176   6.167 -0.2493  0.3212 -0.0398
  131OSM    O1114061   1.228   1.383   6.300 -0.1474  0.1882  0.5472
  131OSM    O1214062   1.346   1.373   6.070  0.6686  0.1229 -0.5984
  131OSM    C1S14063   1.333   1.352   6.398  0.6999 -0.1408 -0.0078
  131OSM    H1S14064   1.414   1.424   6.375  0.7394 -0.2760 -0.2969
  131OSM    H1T14065   1.368   1.247   6.388  0.8315  0.1431 -3.5315
  131OSM     NF14066   1.416   1.404   6.635 -0.2375  0.0512 -0.5890
  131OSM    HNF14067   1.414   1.331   6.704 -1.7429  0.1400 -0.5209
  131OSM    C2S14068   1.300   1.394   6.549 -0.4047  0.2408 -0.0874
  131OSM    H2S14069   1.257   1.496   6.559 -1.5790 -0.2770  0.3459
  131OSM    C3S14070   1.189   1.299   6.607  0.3408 -0.6734  0.2226
  131OSM    H3S14071   1.237   1.200   6.618  0.0161 -0.6870  1.8018
  131OSM     O314072   1.071   1.295   6.519  0.3060 -0.6073  0.0246
  131OSM    HO314073   1.105   1.337   6.440  1.3642  0.2603  0.9190
  131OSM    C4S14074   1.156   1.340   6.751  0.5290 -0.7473 -0.0543
  131OSM    H4S14075   1.122   1.444   6.758 -0.6442 -1.2573  2.7558
  131OSM    C5S14076   1.163   1.266   6.860  0.0448  0.3519 -0.0709
  131OSM    H5S14077   1.176   1.158   6.846 -0.0687  0.4297 -0.8124
  131OSM    C6S14078   1.129   1.316   6.996 -0.2331  0.8411  0.1939
  131OSM    H6S14079   1.021   1.301   7.019 -0.1704  0.1242  0.0583
  131OSM    H6T14080   1.144   1.425   7.007  1.4753  0.5641  0.8615
  131OSM    C7S14081   1.198   1.227   7.103 -0.0213 -0.2682 -0.6648
  131OSM    H7S14082   1.308   1.239   7.087 -0.4182  2.4775 -1.9055
  131OSM    H7T14083   1.159   1.124   7.096  2.9305 -1.5796  0.4715
  131OSM    C8S14084   1.167   1.256   7.252  0.1440 -0.8100  0.2254
  131OSM    H8S14085   1.061   1.223   7.261 -0.4767  0.3402 -1.9585
  131OSM    H8T14086   1.163   1.363   7.282  2.0745 -1.2429  2.2531
  131OSM    C9S14087   1.262   1.172   7.342 -0.1081  0.4474  0.1471
  131OSM    H9S14088   1.371   1.192   7.329 -0.0636  0.2949  0.2825
  131OSM    H9T14089   1.255   1.070   7.299 -4.7328  1.2647 -1.6254
  131OSM   C10S14090   1.218   1.176   7.489 -0.1985 -0.0742 -0.5292
  131OSM   H10S14091   1.271   1.097   7.545 -2.3118 -0.6004  0.8632
  131OSM   H10T14092   1.109   1.156   7.499 -0.7311  1.6375 -2.2664
  131OSM   C11S14093   1.256   1.315   7.554  0.2400  0.3683  0.3447
  131OSM   H11S14094   1.182   1.389   7.517 -0.2682  0.9810  2.4593
  131OSM   H11T14095   1.354   1.337   7.507  0.8665 -2.4292  0.1872
  131OSM   C12S14096   1.286   1.311   7.707  0.2264  0.5840  0.3547
  131OSM   H12S14097   1.370   1.239   7.719  1.7519  2.2162  0.0129
  131OSM   H12T14098   1.198   1.284   7.768 -0.0110  1.7806  0.5661
  131OSM   C13S14099   1.334   1.446   7.745  0.3503 -0.6753  0.0336
  131OSM   H13S14100   1.255   1.520   7.719  0.6427 -0.8132 -1.3366
  131OSM   H13T14101   1.418   1.466   7.675  1.4914 -3.2516  0.5469
  131OSM   C14S14102   1.383   1.460   7.893 -0.0590  0.4314 -0.2056
  131OSM   H14S14103   1.312   1.432   7.973 -0.3212  0.9433 -0.2487
  131OSM   H14T14104   1.409   1.565   7.919  0.5936  0.2727 -0.1995
  131OSM   C15S14105   1.503   1.375   7.926 -0.3562  0.2758  0.6220
  131OSM   H15S14106   1.564   1.375   7.834 -0.8829 -0.5755  0.2617
  131OSM   H15T14107   1.465   1.272   7.940  0.0249 -0.2054 -1.4964
  131OSM   C16S14108   1.583   1.416   8.045  0.4934  0.6889 -0.2782
  131OSM   H16S14109   1.618   1.522   8.037  2.2882  0.0481 -1.3640
  131OSM   H16T14110   1.677   1.358   8.040 -1.6494 -3.3707  1.8544
  131OSM   C17S14111   1.513   1.410   8.181 -0.0521 -0.1239 -1.0180
  131OSM   H17S14112   1.445   1.322   8.171  0.5940 -0.8097  0.2817
  131OSM   H17T14113   1.466   1.508   8.206  0.4003  0.3487 -1.9846
  131OSM   C18S14114   1.612   1.374   8.305  0.4124 -0.4384 -0.1609
  131OSM   H18S14115   1.658   1.275   8.286  3.0229  0.5694  0.4453
  131OSM   H18T14116   1.559   1.383   8.402 -0.8437 -0.9599 -0.7724
  131OSM   H18U14117   1.689   1.454   8.310  0.9573 -0.9281 -0.5402
  131OSM    C1F14118   1.518   1.486   6.626 -0.2213 -0.4755  0.0365
  131OSM     OF14119   1.530   1.562   6.533 -0.5479 -0.1224  0.4221
  131OSM    C2F14120   1.629   1.474   6.722 -0.3557 -0.1917 -0.4714
  131OSM    H2F14121   1.617   1.380   6.779  1.5353 -0.5268 -0.5742
  131OSM    H2G14122   1.630   1.561   6.792  2.7243 -1.1030  0.7727
  131OSM    C3F14123   1.772   1.476   6.643  0.1404  0.2005 -0.6764
  131OSM    H3F14124   1.802   1.581   6.627  0.1987  0.7525  2.4065
  131OSM    H3G14125   1.759   1.416   6.551 -1.0581 -0.9019  0.1772
  131OSM    C4F14126   1.876   1.408   6.734 -0.7053 -0.1673  0.6849
  131OSM    H4F14127   1.981   1.418   6.698 -1.4451  0.5324 -1.3937
  131OSM    H4G14128   1.867   1.298   6.720 -0.2520  0.0499 -1.7440
  131OSM    C5F14129   1.866   1.438   6.887 -0.5309  0.4126  0.7451
  131OSM    H5F14130   1.776   1.379   6.914  1.3221 -2.4511  1.1318
  131OSM    H5G14131   1.844   1.543   6.917  2.4736  1.0313  1.0645
  131OSM    C6F14132   1.985   1.380   6.970  0.2423 -0.2348  0.2054
  131OSM    H6F14133   2.079   1.414   6.922  1.3197 -2.9161  0.2470
  131OSM    H6G14134   1.980   1.269   6.960 -1.6447 -0.2159  0.5108
  131OSM    C7F14135   1.969   1.427   7.120 -0.2168  1.1236  0.4950
  131OSM    H7F14136   1.893   1.362   7.168  0.7172 -1.0042 -0.7373
  131OSM    H7G14137   1.933   1.532   7.121 -0.5871  0.9984  0.6470
  131OSM    C8F14138   2.098   1.415   7.196  0.1341 -0.3702 -0.6550
  131OSM    H8F14139   2.150   1.323   7.161  2.4964 -0.0719  1.7591
  131OSM    H8G14140   2.082   1.403   7.305  1.3816 -1.5212 -0.5708
  131OSM    C9F14141   2.189   1.529   7.171  0.3255  0.2347  0.9514
  131OSM    H9F14142   2.246   1.519   7.078  0.8817 -0.1668  1.3258
  131OSM   C10F14143   2.215   1.634   7.251 -0.6056  0.2142 -0.1102
  131OSM   H10F14144   2.296   1.697   7.211 -0.6558  2.5879  3.1911
  131OSM   C11F14145   2.156   1.671   7.388  0.1002 -0.3828 -0.7360
  131OSM   H11F14146   2.048   1.646   7.394 -0.0166  0.1389 -0.6814
  131OSM   H11G14147   2.167   1.780   7.401  1.4814 -0.7276  1.4483
  131OSM   C12F14148   2.232   1.600   7.508  0.2338 -0.1103  0.5368
  131OSM   H12F14149   2.339   1.628   7.500  0.1337  0.8878  2.2130
  131OSM   H12G14150   2.237   1.490   7.493  0.2493 -0.0019 -0.2944
  131OSM   C13F14151   2.168   1.638   7.651 -0.6613  1.2801 -0.2876
  131OSM   H13F14152   2.071   1.585   7.664 -0.0878  0.3721  0.4683
  131OSM   H13G14153   2.146   1.747   7.649  1.0745  1.6946  0.9368
  131OSM   C14F14154   2.267   1.622   7.771  0.6689 -0.5402 -0.4163
  131OSM   H14F14155   2.363   1.665   7.735  0.4179  0.3840 -0.0136
  131OSM   H14G14156   2.272   1.512   7.782 -3.1187 -0.8111  0.0881
  131OSM   C15F14157   2.209   1.693   7.901  0.0392  0.4291  0.0923
  131OSM   H15F14158   2.122   1.636   7.941  0.4061  1.0661  1.8795
  131OSM   H15G14159   2.179   1.795   7.869  1.3511  0.2142 -2.0213
  131OSM   C16F14160   2.318   1.717   8.015 -0.1024 -0.3059  0.2955
  131OSM   H16F14161   2.396   1.784   7.973 -0.5013  1.8024  2.6802
  131OSM   H16G14162   2.363   1.619   8.041  1.4873  0.4386  0.5190
  131OSM   C17F14163   2.267   1.792   8.138  0.2721 -0.4766  0.7126
  131OSM   H17F14164   2.350   1.807   8.210  1.1622 -1.6379 -0.0267
  131OSM   H17G14165   2.186   1.732   8.184 -0.6537  0.2453  0.0600
  131OSM   C18F14166   2.219   1.935   8.110 -0.7030  0.0266 -0.4515
  131OSM   H18F14167   2.118   1.944   8.066 -0.2415 -1.1830 -1.8511
  131OSM   H18G14168   2.291   1.986   8.042  0.3011 -1.1247 -0.3022
  131OSM   H18H14169   2.219   1.991   8.206 -2.9337 -0.4960 -0.0929
  132OSM      N14170   3.903   4.423   5.952  0.3952  0.6466 -0.2734
  132OSM    C1514171   3.826   4.527   6.029  0.6805  1.2896  1.0737
  132OSM   H15A14172   3.861   4.624   5.998  1.6797 -0.1990 -2.9811
  132OSM   H15B14173   3.845   4.513   6.135  0.6506 -0.0483  0.9258
  132OSM   H15C14174   3.721   4.527   6.005  0.9612 -0.3897 -0.3860
  132OSM    C1414175   3.914   4.457   5.808  0.1592 -0.2764  0.6523
  132OSM   H14A14176   3.994   4.398   5.766  1.3036  1.8244 -0.2294
  132OSM   H14B14177   3.951   4.557   5.790 -1.8458  0.5820  0.9716
  132OSM   H14C14178   3.816   4.436   5.767 -0.0737 -1.8231  1.8770
  132OSM    C1314179   4.038   4.412   6.022  0.4332 -0.2107  1.0805
  132OSM   H13A14180   4.115   4.354   5.973  0.4288  0.7589 -0.1439
  132OSM   H13B14181   4.044   4.372   6.122 -0.6335 -0.8364  0.9084
  132OSM   H13C14182   4.076   4.512   6.037 -0.6854  0.0645  2.1764
  132OSM    C1214183   3.828   4.295   5.964  0.3674  0.5588 -0.1891
  132OSM   H12A14184   3.886   4.216   5.919 -0.3442 -0.2589  0.2928
  132OSM   H12B14185   3.726   4.304   5.929  0.4137  0.6344 -0.3035
  132OSM    C1114186   3.812   4.243   6.114 -0.1903  0.0654  0.4154
  132OSM   H11A14187   3.785   4.328   6.180  2.1171  0.5583  0.8139
  132OSM   H11B14188   3.914   4.210   6.143 -0.7745 -1.5468  0.7501
  132OSM      P14189   3.564   4.163   6.124 -0.6436 -0.1860  0.1883
  132OSM    O1314190   3.532   4.294   6.064  0.1637  0.4512  0.4194
  132OSM    O1414191   3.514   4.044   6.053  0.2377  0.2758  0.1094
  132OSM    O1114192   3.504   4.161   6.265  0.0762 -0.2347 -0.1964
  132OSM    O1214193   3.718   4.142   6.126  0.0177  0.1779 -0.1034
  132OSM    C1S14194   3.537   4.271   6.355 -0.2406  0.3276 -0.1235
  132OSM    H1S14195   3.504   4.370   6.316  0.7507  0.2477 -1.2566
  132OSM    H1T14196   3.646   4.290   6.368 -0.4341  2.1545 -0.8582
  132OSM     NF14197   3.474   4.364   6.589  0.1015  0.3834  0.0483
  132OSM    HNF14198   3.557   4.385   6.641  0.3862  0.6336 -0.5008
  132OSM    C2S14199   3.472   4.240   6.500  0.4456 -0.3144 -0.0804
  132OSM    H2S14200   3.366   4.224   6.471 -0.1940  1.1769  1.2624
  132OSM    C3S14201   3.540   4.116   6.570  0.0515 -0.0220 -0.0681
  132OSM    H3S14202   3.647   4.143   6.585  0.3730 -2.2048  2.1881
  132OSM     O314203   3.543   4.011   6.473  0.2410  0.0124  0.6087
  132OSM    HO314204   3.523   4.055   6.390 -0.8503 -0.7454  0.4613
  132OSM    C4S14205   3.469   4.095   6.700 -0.1257 -0.2650 -0.4652
  132OSM    H4S14206   3.527   4.139   6.782 -1.2447 -1.0025  0.7585
  132OSM    C5S14207   3.358   4.027   6.725 -0.2178  0.1960 -0.1920
  132OSM    H5S14208   3.313   3.965   6.646  1.7253 -1.3595 -0.1505
  132OSM    C6S14209   3.294   4.003   6.860  0.0176  0.4069  0.7378
  132OSM    H6S14210   3.254   3.901   6.878  0.6225  0.6590  4.2162
  132OSM    H6T14211   3.202   4.065   6.869 -1.2908 -1.5530  1.5838
  132OSM    C7S14212   3.389   4.023   6.980 -0.3063 -0.3915  0.2878
  132OSM    H7S14213   3.436   4.124   6.978 -2.6146  0.7387 -1.1061
  132OSM    H7T14214   3.467   3.945   6.972 -0.2901 -0.2957 -0.5966
  132OSM    C8S14215   3.308   4.006   7.108 -0.9091 -0.2386 -0.2432
  132OSM    H8S14216   3.269   3.903   7.118  0.5039 -0.8816 -1.1010
  132OSM    H8T14217   3.232   4.087   7.110  0.0685  0.7361 -1.0934
  132OSM    C9S14218   3.385   4.029   7.244 -0.5521  0.1296 -0.0535
  132OSM    H9S14219   3.434   4.128   7.252 -0.5247 -0.0033  2.3547
  132OSM    H9T14220   3.461   3.951   7.266 -0.6549  0.0576  0.0569
  132OSM   C10S14221   3.300   4.026   7.371  0.0661 -0.5362 -1.0513
  132OSM   H10S14222   3.234   3.938   7.371 -1.2641  0.4116 -2.2334
  132OSM   H10T14223   3.224   4.107   7.367  0.5537  0.0073  0.2898
  132OSM   C11S14224   3.373   4.047   7.507  0.0232  0.1500  0.0199
  132OSM   H11S14225   3.394   4.156   7.520  0.7629  0.2625 -1.8008
  132OSM   H11T14226   3.471   3.994   7.508  0.5043  0.9884 -0.6913
  132OSM   C12S14227   3.286   4.011   7.627  0.9302  1.2353  0.1555
  132OSM   H12S14228   3.233   3.917   7.601  0.5702  0.6786  2.6100
  132OSM   H12T14229   3.205   4.086   7.637 -1.3694 -1.1897  0.9770
  132OSM   C13S14230   3.361   3.992   7.759  0.3027  0.1077  0.3860
  132OSM   H13S14231   3.402   4.091   7.787  3.2064 -0.5395 -1.2336
  132OSM   H13T14232   3.446   3.928   7.727  0.0789  0.8047 -1.7623
  132OSM   C14S14233   3.282   3.925   7.863 -0.5344 -0.1573  0.1328
  132OSM   H14S14234   3.258   3.820   7.835  0.2521 -0.2567 -0.1820
  132OSM   H14T14235   3.185   3.980   7.867 -1.2933 -1.3162 -1.2987
  132OSM   C15S14236   3.349   3.935   8.004 -0.0810 -0.0207  0.8264
  132OSM   H15S14237   3.346   4.044   8.024  0.4277  0.3388 -0.9432
  132OSM   H15T14238   3.456   3.907   7.999 -0.7035 -2.4771 -3.1972
  132OSM   C16S14239   3.274   3.857   8.110 -0.0693  0.4708 -0.1209
  132OSM   H16S14240   3.272   3.749   8.084  0.7724  0.5540 -0.5723
  132OSM   H16T14241   3.171   3.898   8.119 -0.2827 -0.2580  0.9430
  132OSM   C17S14242   3.333   3.887   8.242  0.2265  1.0007  0.2527
  132OSM   H17S14243   3.304   3.993   8.260 -1.8188  0.6154 -0.4837
  132OSM   H17T14244   3.443   3.878   8.251  0.3494 -0.2275 -1.7350
  132OSM   C18S14245   3.250   3.816   8.350 -0.0714  0.5142 -0.0023
  132OSM   H18S14246   3.262   3.708   8.329  0.5637  0.3708  1.0557
  132OSM   H18T14247   3.145   3.852   8.353 -0.4380 -0.4605 -0.7378
  132OSM   H18U14248   3.297   3.829   8.449 -3.0228  2.7199  1.2694
  132OSM    C1F14249   3.379   4.454   6.576  0.4666 -0.5107 -0.6349
  132OSM     OF14250   3.284   4.432   6.497 -0.2728 -0.3353  0.2150
  132OSM    C2F14251   3.393   4.574   6.667  1.1807  0.5057 -0.0656
  132OSM    H2F14252   3.378   4.655   6.592  1.1322 -0.9545 -1.7033
  132OSM    H2G14253   3.497   4.575   6.706  1.8210  2.4978 -1.6477
  132OSM    C3F14254   3.266   4.596   6.758  0.3634  0.9429 -0.4343
  132OSM    H3F14255   3.172   4.574   6.705  0.9155 -1.4469 -0.5249
  132OSM    H3G14256   3.267   4.705   6.778  1.0615  0.9540 -0.5008
  132OSM    C4F14257   3.274   4.511   6.891  0.4664  1.0594  0.1646
  132OSM    H4F14258   3.353   4.554   6.956  2.1627 -0.7549 -0.5889
  132OSM    H4G14259   3.317   4.416   6.853  0.6566  1.7966 -1.5705
  132OSM    C5F14260   3.131   4.496   6.951 -0.0132  0.4384 -0.2458
  132OSM    H5F14261   3.074   4.435   6.878  1.6068 -0.2164 -1.0146
  132OSM    H5G14262   3.072   4.590   6.956 -1.2050 -0.2314 -1.1484
  132OSM    C6F14263   3.131   4.410   7.083 -0.2563 -1.1038 -0.2124
  132OSM    H6F14264   3.189   4.317   7.069  1.0632 -0.6889  2.1445
  132OSM    H6G14265   3.027   4.377   7.104 -0.1163 -1.3185  0.1299
  132OSM    C7F14266   3.180   4.500   7.200  0.1105  0.5229 -0.5232
  132OSM    H7F14267   3.092   4.566   7.210 -1.1844 -1.0113 -1.3341
  132OSM    H7G14268   3.262   4.561   7.157 -0.4195  1.0367 -0.8175
  132OSM    C8F14269   3.205   4.424   7.331 -0.1620 -0.5026 -0.5045
  132OSM    H8F14270   3.279   4.465   7.403  1.2593 -2.7012 -0.6366
  132OSM    H8G14271   3.255   4.332   7.294  0.0374 -0.4089 -0.4688
  132OSM    C9F14272   3.084   4.391   7.403  0.2683  0.8023 -0.0809
  132OSM    H9F14273   2.996   4.371   7.339  0.6992  1.3072 -0.8459
  132OSM   C10F14274   3.072   4.379   7.532  0.7108  0.3066  0.3451
  132OSM   H10F14275   2.975   4.349   7.574 -0.0417  1.9918 -0.1084
  132OSM   C11F14276   3.179   4.396   7.636  0.4908  0.4210  0.2598
  132OSM   H11F14277   3.231   4.494   7.621  0.0141  0.5291 -0.8243
  132OSM   H11G14278   3.258   4.320   7.618  1.2615  0.9122  1.4796
  132OSM   C12F14279   3.122   4.388   7.778 -0.5570 -0.4585 -0.3310
  132OSM   H12F14280   3.074   4.289   7.791 -3.5347  0.9896  0.4895
  132OSM   H12G14281   3.032   4.453   7.787 -0.1948 -0.2592  3.4306
  132OSM   C13F14282   3.233   4.413   7.880 -0.0351  0.8765 -0.1080
  132OSM   H13F14283   3.248   4.522   7.894 -1.6852  0.9643  1.3570
  132OSM   H13G14284   3.327   4.374   7.836 -1.5140 -2.2779 -0.7341
  132OSM   C14F14285   3.208   4.333   8.008 -0.0892 -0.4980 -0.2434
  132OSM   H14F14286   3.302   4.327   8.067 -0.9140 -0.7485  1.0982
  132OSM   H14G14287   3.194   4.225   7.985  2.4478 -0.9254 -0.0370
  132OSM   C15F14288   3.099   4.388   8.104 -0.2817 -0.5091 -0.4200
  132OSM   H15F14289   3.006   4.380   8.044 -0.3143 -0.8150 -0.3306
  132OSM   H15G14290   3.124   4.494   8.123  0.0392 -0.6358 -0.1303
  132OSM   C16F14291   3.071   4.316   8.236 -0.2550 -0.4232 -0.3325
  132OSM   H16F14292   3.003   4.372   8.303 -0.4918 -1.8494  0.6600
  132OSM   H16G14293   3.165   4.306   8.294 -2.2724 -1.9507  2.9766
  132OSM   C17F14294   3.007   4.176   8.217 -0.1500 -0.0274 -0.0958
  132OSM   H17F14295   3.056   4.117   8.137  0.6602  1.1043 -0.4661
  132OSM   H17G14296   2.911   4.209   8.171  1.0191  1.4674 -1.5765
  132OSM   C18F14297   2.993   4.092   8.348  0.2255  0.4543 -0.1182
  132OSM   H18F14298   3.092   4.073   8.394  0.9100  2.3428 -0.7067
  132OSM   H18G14299   2.939   3.996   8.331  0.2358  0.4314 -0.0225
  132OSM   H18H14300   2.939   4.162   8.417 -0.3774 -1.5719  1.5648
  133SAPE     N14301   1.704   4.116  10.331  0.1503  0.3569 -0.2208
  133SAPE   HN114302   1.655   4.203  10.360 -0.6486 -0.8562  2.3269
  133SAPE   HN214303   1.807   4.124  10.327  0.1015  0.5128 -1.5823
  133SAPE   HN314304   1.655   4.081  10.246 -0.5640  0.5723  0.0906
  133SAPE   C1214305   1.681   4.004  10.434 -0.2503  0.1895  0.2182
  133SAPE  H12A14306   1.773   3.994  10.496 -0.5251 -0.1491  0.5761
  133SAPE  H12B14307   1.672   3.913  10.372 -2.4173  0.7867 -0.4166
  133SAPE   C1114308   1.552   4.015  10.511 -0.2210  0.0762  0.5102
  133SAPE  H11A14309   1.461   3.969  10.466  0.4187 -2.1179  1.3178
  133SAPE  H11B14310   1.533   4.124  10.515 -1.0595  0.0179 -1.1287
  133SAPE     P14311   1.583   3.805  10.662  0.0553 -0.0297 -0.4834
  133SAPE   O1314312   1.670   3.753  10.557  0.0069  0.0218 -0.1951
  133SAPE   O1414313   1.613   3.770  10.804 -0.4205  0.2415 -0.2097
  133SAPE   O1214314   1.570   3.964  10.643  0.1095  1.1221  0.1832
  133SAPE   O1114315   1.429   3.762  10.635 -0.0447  0.1688  0.1539
  133SAPE    C114316   1.392   3.627  10.585 -0.8401 -0.0358  0.6331
  133SAPE    HA14317   1.467   3.545  10.589 -2.5341 -1.8276 -1.7502
  133SAPE    HB14318   1.305   3.588  10.643 -0.0893 -0.5272  1.4550
  133SAPE    C214319   1.347   3.637  10.435 -0.3064  0.2031 -0.1155
  133SAPE    HS14320   1.437   3.671  10.381 -0.6145  2.8922  0.9287
  133SAPE   O2114321   1.240   3.726  10.420  0.1964 -0.5317 -0.6253
  133SAPE   C2114322   1.237   3.805  10.306 -0.3365  0.8668  0.7193
  133SAPE   O2214323   1.341   3.822  10.237 -0.1758  0.5283  0.1802
  133SAPE   C2214324   1.099   3.857  10.272 -0.5209  0.2167 -0.5198
  133SAPE   H2R14325   1.027   3.774  10.287 -0.9472  0.7792  0.6785
  133SAPE   H2S14326   1.061   3.927  10.350  0.8857  0.3875  0.0329
  133SAPE    C314327   1.304   3.496  10.393 -0.5342  0.2074  0.2647
  133SAPE    HX14328   1.236   3.450  10.468 -0.8586  0.2055 -0.0294
  133SAPE    HY14329   1.396   3.435  10.402 -0.4270  0.3338  0.0352
  133SAPE   O3114330   1.236   3.500  10.265 -0.3681  0.2360  0.2138
  133SAPE   C3114331   1.303   3.432  10.171 -0.0656 -0.2315  0.1849
  133SAPE   O3214332   1.413   3.376  10.182 -0.0821  0.3178  0.3731
  133SAPE   C3214333   1.215   3.419  10.044 -0.4446  0.8585  0.0713
  133SAPE   H2X14334   1.130   3.351  10.070  0.2473 -0.1416 -0.2448
  133SAPE   H2Y14335   1.280   3.370   9.968 -0.0762  0.6626  0.5091
  133SAPE   C2314336   1.093   3.921  10.138 -0.3502  0.2411  0.0771
  133SAPE   H3R14337   1.126   3.853  10.057 -0.2528  0.2755  0.0871
  133SAPE   H3S14338   1.157   4.012  10.139 -0.8420  0.5966 -0.4050
  133SAPE   C2414339   0.953   3.985  10.108  0.1054  0.0128 -0.2570
  133SAPE   H4R14340   0.963   4.060  10.026 -0.3026 -1.8938 -2.1553
  133SAPE   H4S14341   0.927   4.037  10.203 -0.0553  0.1476 -0.3739
  133SAPE   C2514342   0.849   3.889  10.063  0.5684  0.5292  0.5555
  133SAPE   H5R14343   0.815   3.807  10.128 -0.1346  1.0413  0.8359
  133SAPE   C2614344   0.815   3.882   9.934 -0.3564 -0.0226  0.5648
  133SAPE   H6R14345   0.731   3.815   9.912 -0.8078  0.9733 -0.9036
  133SAPE   C2714346   0.858   3.963   9.815 -0.8169 -0.2523 -0.3234
  133SAPE   H7R14347   0.955   4.014   9.831  0.5446 -3.0908  1.0813
  133SAPE   H7S14348   0.774   4.035   9.808 -3.2824 -2.4104  3.4794
  133SAPE   C2814349   0.843   3.896   9.681 -0.6153 -1.0446 -0.4717
  133SAPE   H8R14350   0.843   3.786   9.676 -1.0056 -1.0902  0.3627
  133SAPE   C2914351   0.865   3.965   9.564  0.1719 -0.4347 -0.3711
  133SAPE   H9R14352   0.849   3.911   9.469 -0.4556  1.0678 -1.1554
  133SAPE  C21014353   0.898   4.113   9.554 -0.5216  0.1314  0.1925
  133SAPE  H10R14354   0.932   4.155   9.651  0.0776 -0.1265  0.0985
  133SAPE  H10S14355   0.800   4.164   9.540 -0.1558  0.3194 -2.1343
  133SAPE  C21114356   0.979   4.144   9.429 -0.3141  0.2026 -0.7089
  133SAPE  H11R14357   0.969   4.072   9.346 -0.8971 -0.0926 -0.3871
  133SAPE  C21214358   1.046   4.258   9.404 -0.3457  0.2277  0.5532
  133SAPE  H12R14359   1.111   4.264   9.316 -1.8685  1.3126 -0.5510
  133SAPE  C21314360   1.055   4.387   9.494  0.5034  0.4630  0.6300
  133SAPE  H13R14361   1.004   4.361   9.589 -2.3310 -0.0382 -0.9186
  133SAPE  H13S14362   0.996   4.469   9.448  2.4741  2.1127  0.9143
  133SAPE  C21414363   1.201   4.423   9.507 -0.4462 -0.7291 -0.4982
  133SAPE  H14R14364   1.246   4.353   9.579 -0.7470 -0.4779 -0.0604
  133SAPE  C21514365   1.274   4.516   9.449  0.2175  0.0186 -0.6415
  133SAPE  H15R14366   1.381   4.505   9.471  0.0659 -0.1641  0.0248
  133SAPE  C21614367   1.233   4.605   9.337 -0.0446 -0.2410 -0.3781
  133SAPE  H16R14368   1.249   4.712   9.359  0.7859 -0.6713  1.3195
  133SAPE  H16S14369   1.122   4.608   9.329 -0.3122 -2.1361  1.5610
  133SAPE  C21714370   1.284   4.554   9.206 -0.5107 -0.7177 -0.3429
  133SAPE  H17R14371   1.227   4.461   9.188  0.1547 -1.3022  0.4919
  133SAPE  H17S14372   1.390   4.529   9.225 -0.9863 -0.3470  3.5538
  133SAPE  C21814373   1.260   4.656   9.093  0.3882 -0.2795  0.3378
  133SAPE  H18R14374   1.155   4.691   9.087  0.9150  1.1934 -0.8852
  133SAPE  H18S14375   1.281   4.603   8.997  1.3729  1.0110 -0.1840
  133SAPE  C21914376   1.359   4.779   9.098 -0.4828 -0.5376  0.5303
  133SAPE  H19R14377   1.461   4.741   9.077 -1.3681 -2.0680 -1.3420
  133SAPE  H19S14378   1.360   4.827   9.199  0.1767  0.8034 -0.0880
  133SAPE  C22014379   1.329   4.890   8.992  0.7223  0.1319  0.0765
  133SAPE  H20R14380   1.398   4.977   8.987 -0.3369  0.9120 -2.7577
  133SAPE  H20S14381   1.227   4.927   9.018  0.0270 -2.7262  1.8241
  133SAPE  H20T14382   1.325   4.840   8.893 -1.0525  1.9439 -0.8552
  133SAPE   C3314383   1.165   3.555   9.992  0.6016 -0.3334 -0.0334
  133SAPE   H3X14384   1.247   3.626   9.968  1.1319 -1.1006 -0.5140
  133SAPE   H3Y14385   1.095   3.599  10.066  2.7286  0.3664  1.6579
  133SAPE   C3414386   1.063   3.536   9.876  0.3970  0.0695 -0.0247
  133SAPE   H4X14387   1.013   3.635   9.861 -1.0495 -0.4195  1.3260
  133SAPE   H4Y14388   0.984   3.469   9.917 -0.3281  1.7952  1.5542
  133SAPE   C3514389   1.121   3.486   9.748 -0.0766  0.2018 -0.0209
  133SAPE   H5X14390   1.161   3.383   9.756  0.9702  0.7120  1.7496
  133SAPE   H5Y14391   1.212   3.545   9.727 -0.3642  0.2031 -1.3637
  133SAPE   C3614392   1.021   3.509   9.630  0.8769  0.4213  0.5406
  133SAPE   H6X14393   0.924   3.550   9.667  0.2196 -0.1311 -0.5333
  133SAPE   H6Y14394   1.017   3.418   9.567 -0.8342  0.7921  0.0449
  133SAPE   C3714395   1.073   3.614   9.533 -0.4519 -0.2103 -0.0049
  133SAPE   H7X14396   1.168   3.570   9.495 -0.1076  1.7957 -1.6419
  133SAPE   H7Y14397   1.094   3.719   9.562 -0.4223  0.5644 -2.5943
  133SAPE   C3814398   0.984   3.618   9.404  0.1500 -0.2381 -0.6902
  133SAPE   H8X14399   0.883   3.640   9.444  0.2131 -2.8065  1.1261
  133SAPE   H8Y14400   0.980   3.514   9.367  0.8200 -0.2759 -0.6714
  133SAPE   C3914401   1.025   3.725   9.301 -0.1855  0.1527 -0.2299
  133SAPE   H9X14402   1.125   3.701   9.259 -0.9329  0.2619 -2.1422
  133SAPE   H9Y14403   1.037   3.820   9.357  0.5431 -0.2520  0.3273
  133SAPE  C31014404   0.916   3.745   9.200 -0.2849  0.7581 -0.4890
  133SAPE  H10X14405   0.826   3.796   9.241  1.8902  1.9291  3.2621
  133SAPE  H10Y14406   0.889   3.645   9.160 -1.4963  0.5736  0.7283
  133SAPE  C31114407   0.961   3.825   9.079  0.1112  0.3095  0.3433
  133SAPE  H11X14408   0.880   3.825   9.004 -1.8925 -1.5447  2.3662
  133SAPE  H11Y14409   1.059   3.785   9.046  0.2031 -0.8254  1.8535
  133SAPE  C31214410   1.007   3.975   9.111  0.2234 -0.1235 -0.5161
  133SAPE  H12X14411   1.081   3.981   9.193  0.9730 -1.4349 -1.0621
  133SAPE  H12Y14412   0.912   4.029   9.134  0.6052  0.9828 -1.4498
  133SAPE  C31314413   1.063   4.042   8.990 -0.0900 -0.0060  0.2432
  133SAPE  H13X14414   0.988   4.025   8.909 -1.6200  1.3842  1.3167
  133SAPE  H13Y14415   1.160   3.992   8.973  0.4164  0.4030  1.8463
  133SAPE  C31414416   1.091   4.197   8.999 -0.2735  0.0654 -0.3251
  133SAPE  H14X14417   1.117   4.226   9.102 -2.9754 -0.0097  0.4462
  133SAPE  H14Y14418   0.995   4.237   8.959  0.9263 -1.2794 -5.3987
  133SAPE  C31514419   1.194   4.259   8.910 -0.1409 -0.1039  0.0107
  133SAPE  H15X14420   1.169   4.365   8.888  0.8665 -0.0378 -0.8876
  133SAPE  H15Y14421   1.182   4.214   8.810  2.4939 -0.4612 -0.2144
  133SAPE  C31614422   1.339   4.245   8.953  0.0531  0.0964 -0.6974
  133SAPE  H16X14423   1.362   4.137   8.968 -2.7941 -0.4258  0.4716
  133SAPE  H16Y14424   1.354   4.284   9.055  2.8090 -0.2553 -0.8776
  133SAPE  C31714425   1.441   4.324   8.875 -0.3091 -0.1620  0.4325
  133SAPE  H17X14426   1.541   4.300   8.918 -0.3009 -0.6253  0.1537
  133SAPE  H17Y14427   1.438   4.432   8.902  0.9321 -0.1257  0.5092
  133SAPE  C31814428   1.460   4.302   8.725 -0.2930 -0.4362 -0.4691
  133SAPE  H18X14429   1.501   4.201   8.703  0.5070  0.0742 -1.4073
  133SAPE  H18Y14430   1.524   4.385   8.689 -0.7344  0.7610  1.3644
  133SAPE  H18Z14431   1.359   4.301   8.680 -0.2481 -3.1248 -0.6352
  134SAPE     N14432   3.088   3.037  10.775 -0.5111  0.5820  0.8631
  134SAPE   HN114433   3.106   3.015  10.675  3.7060  0.7180  1.3766
  134SAPE   HN214434   3.119   3.136  10.777 -1.6108  0.9807 -0.5120
  134SAPE   HN314435   3.159   2.987  10.833 -0.3871  0.3084  0.4783
  134SAPE   C1214436   2.939   3.002  10.799  0.3084  0.5416 -0.2263
  134SAPE  H12A14437   2.928   2.983  10.908 -0.8927 -0.6072 -0.5269
  134SAPE  H12B14438   2.908   2.906  10.752 -2.4570  1.3412 -0.1916
  134SAPE   C1114439   2.844   3.116  10.763  0.0124 -0.1199  0.1362
  134SAPE  H11A14440   2.887   3.212  10.801  2.2422 -1.2354  0.5824
  134SAPE  H11B14441   2.749   3.106  10.819 -0.5615  2.1084 -0.3207
  134SAPE     P14442   2.699   3.046  10.558 -0.4288 -0.4129  0.3974
  134SAPE   O1314443   2.589   3.050  10.650 -0.2068 -0.7918  0.7065
  134SAPE   O1414444   2.676   3.094  10.420 -0.2495 -0.0721  0.2028
  134SAPE   O1214445   2.815   3.132  10.623  0.3583  0.3912  0.2565
  134SAPE   O1114446   2.750   2.903  10.541 -0.1541 -0.0884 -0.0804
  134SAPE    C114447   2.879   2.870  10.494 -0.9510  0.0599  0.0352
  134SAPE    HA14448   2.966   2.922  10.541 -0.7367  0.8270 -1.1696
  134SAPE    HB14449   2.895   2.763  10.518 -1.4483  0.6096  3.3842
  134SAPE    C214450   2.888   2.870  10.334 -0.1044 -0.1033 -0.2115
  134SAPE    HS14451   2.852   2.966  10.290  1.6480 -0.2048 -1.9950
  134SAPE   O2114452   2.800   2.761  10.287 -0.2685  0.0885  0.1736
  134SAPE   C2114453   2.744   2.772  10.170  0.3955 -0.3385  0.2003
  134SAPE   O2214454   2.747   2.873  10.099  0.4574 -0.1565 -0.5418
  134SAPE   C2214455   2.669   2.638  10.123 -0.5144 -0.5259 -0.2757
  134SAPE   H2R14456   2.733   2.587  10.048 -2.0110 -0.9237 -1.3218
  134SAPE   H2S14457   2.651   2.579  10.216  0.0748 -0.1985  0.0563
  134SAPE    C314458   3.034   2.857  10.291 -0.3200 -0.4216 -0.0418
  134SAPE    HX14459   3.079   2.780  10.357  0.9687  0.7069  0.4377
  134SAPE    HY14460   3.083   2.955  10.306  0.9766 -0.9123 -0.8864
  134SAPE   O3114461   3.050   2.810  10.154  0.2683  0.3460 -0.1927
  134SAPE   C3114462   3.048   2.910  10.067  0.9150 -0.6488 -0.1746
  134SAPE   O3214463   3.032   3.026  10.089  0.1522 -0.5996  0.1337
  134SAPE   C3214464   3.048   2.846   9.929  0.5281  0.3688  0.3889
  134SAPE   H2X14465   2.947   2.802   9.916 -0.5548  2.1695  2.1001
  134SAPE   H2Y14466   3.126   2.767   9.928 -1.9621 -2.2430 -0.4894
  134SAPE   C2314467   2.538   2.668  10.054  0.5176 -0.3021 -0.1083
  134SAPE   H3R14468   2.491   2.762  10.090  0.2357 -1.1692  1.9232
  134SAPE   H3S14469   2.465   2.588  10.080 -0.6343  0.4389 -0.9423
  134SAPE   C2414470   2.551   2.673   9.898 -0.4800 -0.2040  0.3191
  134SAPE   H4R14471   2.445   2.691   9.867  0.2858  5.0400 -0.2774
  134SAPE   H4S14472   2.580   2.574   9.858 -1.7826 -0.6923  0.5442
  134SAPE   C2514473   2.647   2.777   9.843 -0.3143 -0.2005 -0.6847
  134SAPE   H5R14474   2.754   2.755   9.838 -0.2212 -0.3759  1.4524
  134SAPE   C2614475   2.610   2.903   9.794 -0.2276 -0.2416  0.4196
  134SAPE   H6R14476   2.689   2.975   9.768 -2.3066  1.0945 -2.8969
  134SAPE   C2714477   2.473   2.969   9.798 -0.6958  0.5974  0.0126
  134SAPE   H7R14478   2.400   2.909   9.855 -0.0169 -1.1167 -0.8628
  134SAPE   H7S14479   2.437   2.972   9.693  1.4407  0.6604 -0.7638
  134SAPE   C2814480   2.483   3.103   9.870 -0.0253 -0.1459 -0.2142
  134SAPE   H8R14481   2.487   3.100   9.980 -2.9390  0.8190 -0.0041
  134SAPE   C2914482   2.483   3.218   9.808  0.8627 -0.2345 -0.3932
  134SAPE   H9R14483   2.502   3.312   9.862 -0.5928  0.6568 -1.3421
  134SAPE  C21014484   2.481   3.252   9.659  0.0595  0.0050  0.0234
  134SAPE  H10R14485   2.562   3.196   9.606 -0.7076 -2.5501  1.3707
  134SAPE  H10S14486   2.511   3.358   9.647  0.0946  0.0676  0.6073
  134SAPE  C21114487   2.346   3.242   9.598 -0.5393  0.4244  0.1666
  134SAPE  H11R14488   2.260   3.232   9.665 -0.9974  2.2913 -0.1025
  134SAPE  C21214489   2.312   3.225   9.473  0.1314  0.4277  1.0301
  134SAPE  H12R14490   2.207   3.196   9.452  0.7859  0.0431 -2.3311
  134SAPE  C21314491   2.409   3.225   9.352  0.0803 -0.2995  0.1958
  134SAPE  H13R14492   2.419   3.116   9.332  2.3012 -0.2301  0.6655
  134SAPE  H13S14493   2.511   3.261   9.379  2.0969 -2.5566 -3.4738
  134SAPE  C21414494   2.376   3.294   9.221  0.9113 -0.2012  0.3951
  134SAPE  H14R14495   2.346   3.400   9.224 -0.0429 -0.4219 -0.5619
  134SAPE  C21514496   2.391   3.254   9.092  0.0363  0.5050  0.3639
  134SAPE  H15R14497   2.361   3.327   9.016  0.0357 -0.5389 -0.6556
  134SAPE  C21614498   2.448   3.127   9.029 -0.0620  0.2050  0.4685
  134SAPE  H16R14499   2.412   3.090   8.931 -0.5866  2.8507 -0.4040
  134SAPE  H16S14500   2.435   3.043   9.101 -1.5243  0.4922  0.5609
  134SAPE  C21714501   2.599   3.134   9.030 -0.6670  0.4768 -0.6428
  134SAPE  H17R14502   2.635   3.159   9.132 -1.4361 -0.8213 -0.0269
  134SAPE  H17S14503   2.647   3.212   8.968 -0.4189  1.0449  0.2428
  134SAPE  C21814504   2.669   3.002   8.982 -0.7813 -0.5644  0.2838
  134SAPE  H18R14505   2.646   2.958   8.883 -0.8375 -1.7798  0.8137
  134SAPE  H18S14506   2.630   2.927   9.054  0.2839 -3.7224 -2.1754
  134SAPE  C21914507   2.823   3.005   8.985  0.3112 -0.4884 -0.1329
  134SAPE  H19R14508   2.856   2.900   8.991  0.5271 -0.3487  2.2349
  134SAPE  H19S14509   2.854   3.058   9.078 -1.0294 -0.0705  0.1096
  134SAPE  C22014510   2.885   3.083   8.865 -0.1961 -0.3320 -0.6383
  134SAPE  H20R14511   2.994   3.065   8.854  0.9684  5.2455 -0.7518
  134SAPE  H20S14512   2.867   3.190   8.887  0.4517 -0.5281  0.9775
  134SAPE  H20T14513   2.833   3.067   8.768 -2.4112 -0.4988  0.4964
  134SAPE   C3314514   3.047   2.935   9.806  0.2971  0.1032 -0.5196
  134SAPE   H3X14515   3.135   3.002   9.810 -0.8617  1.6814 -0.4580
  134SAPE   H3Y14516   2.959   3.003   9.813 -0.5534 -0.8731 -1.4550
  134SAPE   C3414517   3.028   2.858   9.675 -0.3663  0.0464 -0.0663
  134SAPE   H4X14518   2.923   2.831   9.654 -1.0421  2.6900 -0.4648
  134SAPE   H4Y14519   3.090   2.767   9.687  2.8329  2.0806  0.0327
  134SAPE   C3514520   3.094   2.942   9.562 -0.4336  0.1513  0.5426
  134SAPE   H5X14521   3.201   2.957   9.589 -0.3122 -0.9751  0.7393
  134SAPE   H5Y14522   3.046   3.042   9.566 -1.3367 -0.1465 -1.4254
  134SAPE   C3614523   3.081   2.875   9.425  0.2212  0.9379 -0.2785
  134SAPE   H6X14524   2.974   2.854   9.400 -0.2968  1.8815  1.0525
  134SAPE   H6Y14525   3.138   2.779   9.429  1.2999  1.6018  3.3251
  134SAPE   C3714526   3.148   2.967   9.326 -0.7519  0.5276 -0.1631
  134SAPE   H7X14527   3.253   2.999   9.345 -0.4002  0.5209 -1.8780
  134SAPE   H7Y14528   3.082   3.054   9.308  1.4533  2.3438  0.0681
  134SAPE   C3814529   3.147   2.886   9.191  0.2695  0.0407 -0.2866
  134SAPE   H8X14530   3.041   2.867   9.166  0.7182 -0.5679 -1.8137
  134SAPE   H8Y14531   3.189   2.785   9.211 -0.4180  0.1744  2.2728
  134SAPE   C3914532   3.215   2.962   9.076  0.0233  0.0488 -0.5144
  134SAPE   H9X14533   3.320   2.979   9.106  0.7448 -0.3471 -2.6743
  134SAPE   H9Y14534   3.163   3.056   9.050 -1.4165 -0.1325  1.4937
  134SAPE  C31014535   3.209   2.875   8.948 -0.3650  0.3215 -0.2292
  134SAPE  H10X14536   3.101   2.880   8.924 -0.2428 -1.7522 -1.4795
  134SAPE  H10Y14537   3.253   2.779   8.982  2.1508  2.2346  2.3924
  134SAPE  C31114538   3.284   2.916   8.818  0.8833 -0.0218 -0.4081
  134SAPE  H11X14539   3.237   3.005   8.771 -1.4788 -1.4894 -0.9718
  134SAPE  H11Y14540   3.277   2.837   8.741  0.2887 -1.5863  1.1716
  134SAPE  C31214541   3.427   2.953   8.850  0.3212 -0.5024  0.2468
  134SAPE  H12X14542   3.493   2.876   8.896  0.8713  0.6669  1.4579
  134SAPE  H12Y14543   3.421   3.051   8.901  0.6919 -0.1267 -0.4329
  134SAPE  C31314544   3.489   2.987   8.711  0.2822  0.3716  0.5472
  134SAPE  H13X14545   3.422   3.023   8.630 -0.1643 -4.2226 -1.4470
  134SAPE  H13Y14546   3.526   2.896   8.660  0.7532  1.0161 -0.2924
  134SAPE  C31414547   3.604   3.093   8.726  0.0672  0.2551  0.5863
  134SAPE  H14X14548   3.562   3.192   8.754 -1.4780 -0.8513  2.4260
  134SAPE  H14Y14549   3.658   3.104   8.629  1.2970  2.4342  1.4360
  134SAPE  C31514550   3.708   3.063   8.839  0.0597  0.2142 -0.6075
  134SAPE  H15X14551   3.767   2.970   8.820  0.6259  0.4712 -0.1349
  134SAPE  H15Y14552   3.652   3.047   8.933 -2.6811  1.3966 -1.9463
  134SAPE  C31614553   3.821   3.168   8.863 -0.0125 -0.2037 -0.0805
  134SAPE  H16X14554   3.773   3.266   8.884  0.1685  0.8955 -4.0030
  134SAPE  H16Y14555   3.880   3.185   8.770  2.5135  2.3806  1.8154
  134SAPE  C31714556   3.915   3.132   8.977  0.3383  0.1344  0.4269
  134SAPE  H17X14557   3.975   3.039   8.968 -0.8578 -0.7622  1.2780
  134SAPE  H17Y14558   3.851   3.119   9.067  1.0192  0.7694  1.0125
  134SAPE  C31814559   4.010   3.247   9.000  0.1263  0.3643  0.0500
  134SAPE  H18X14560   4.074   3.280   8.916  0.3411  2.6716  1.0290
  134SAPE  H18Y14561   4.077   3.214   9.082 -1.4953  1.4423  1.9170
  134SAPE  H18Z14562   3.959   3.344   9.022 -0.8714  0.3599 -2.0261
  135SAPE     N14563   2.252   3.109  10.562 -0.2511 -0.4618  0.1307
  135SAPE   HN114564   2.306   3.021  10.546  3.6987  1.9262 -1.0887
  135SAPE   HN214565   2.246   3.160  10.472 -0.6054 -1.7459 -0.6044
  135SAPE   HN314566   2.305   3.162  10.635  2.7105  0.0340 -2.1796
  135SAPE   C1214567   2.109   3.087  10.609  0.4288 -0.0020  0.7988
  135SAPE  H12A14568   2.065   3.189  10.610 -0.9419 -0.5034 -1.5554
  135SAPE  H12B14569   2.119   3.041  10.709 -2.0052  0.2782  1.2409
  135SAPE   C1114570   2.038   2.995  10.511 -0.0638  0.0775  0.0946
  135SAPE  H11A14571   2.018   3.051  10.417  0.2609  1.7999  1.0057
  135SAPE  H11B14572   1.944   2.971  10.565 -0.5444 -0.1578 -0.8350
  135SAPE     P14573   2.068   2.736  10.459  0.0136  0.1848 -0.0339
  135SAPE   O1314574   2.189   2.651  10.450 -0.3025 -0.2672 -0.6224
  135SAPE   O1414575   1.961   2.701  10.554  0.1595 -0.0839  0.1552
  135SAPE   O1214576   2.114   2.883  10.465  0.5097 -0.1010  0.3262
  135SAPE   O1114577   2.004   2.736  10.316  0.1049 -0.0180  0.3322
  135SAPE    C114578   2.059   2.749  10.190 -0.5045  0.1485  0.3261
  135SAPE    HA14579   2.153   2.691  10.176  0.3602  0.8977  2.5941
  135SAPE    HB14580   1.985   2.710  10.116 -0.8058  0.1798  0.6080
  135SAPE    C214581   2.077   2.896  10.143 -0.3556 -0.1891 -0.1537
  135SAPE    HS14582   2.125   2.946  10.231 -0.6980  0.7414 -0.4866
  135SAPE   O2114583   1.944   2.946  10.113  0.0041 -0.0771 -0.3986
  135SAPE   C2114584   1.931   3.076  10.109  0.0723 -0.4265 -0.6187
  135SAPE   O2214585   2.023   3.154  10.120  0.7412  0.0906  0.1360
  135SAPE   C2214586   1.788   3.112  10.074  0.1890 -0.6855 -0.3036
  135SAPE   H2R14587   1.738   3.028  10.022  0.5364  0.7163 -3.0797
  135SAPE   H2S14588   1.726   3.126  10.165 -2.2205  0.1612 -1.9691
  135SAPE    C314589   2.181   2.909  10.028 -0.2263  0.2492 -0.4336
  135SAPE    HX14590   2.274   2.868  10.074 -0.8502  0.7306  1.3210
  135SAPE    HY14591   2.196   3.019  10.023 -3.1061  0.8492  1.6824
  135SAPE   O3114592   2.135   2.857   9.902 -0.4223  0.3191 -0.4607
  135SAPE   C3114593   2.125   2.942   9.803 -0.1866 -0.6295  0.1676
  135SAPE   O3214594   2.147   3.062   9.806  0.4170 -0.0323  0.0247
  135SAPE   C3214595   2.084   2.874   9.678 -0.0436  0.1567 -0.0660
  135SAPE   H2X14596   2.018   2.945   9.625 -0.5035 -1.7752 -2.2598
  135SAPE   H2Y14597   2.029   2.780   9.701  1.6037 -0.6020  0.9910
  135SAPE   C2314598   1.779   3.233   9.984 -0.2751  0.4323  0.9153
  135SAPE   H3R14599   1.833   3.229   9.887 -1.2501  1.2873  0.3198
  135SAPE   H3S14600   1.824   3.321  10.036  0.8322  0.3697  0.1000
  135SAPE   C2414601   1.634   3.271   9.945 -0.6055 -0.4677 -0.1948
  135SAPE   H4R14602   1.633   3.375   9.905  0.2891 -1.6189 -3.5359
  135SAPE   H4S14603   1.577   3.271  10.040  1.2678  3.8529  1.1883
  135SAPE   C2514604   1.571   3.192   9.844 -0.2191  0.7594  0.5960
  135SAPE   H5R14605   1.538   3.095   9.884  2.5082  1.1924  4.5008
  135SAPE   C2614606   1.541   3.226   9.716  0.3321 -0.6378  0.7694
  135SAPE   H6R14607   1.491   3.147   9.658  0.5060  0.7572 -1.4050
  135SAPE   C2714608   1.576   3.355   9.642  0.0946 -0.0439  0.0172
  135SAPE   H7R14609   1.678   3.385   9.676  1.1219 -1.8482 -1.2817
  135SAPE   H7S14610   1.504   3.436   9.663  0.8978  0.8994 -0.7230
  135SAPE   C2814611   1.581   3.325   9.490  0.2506 -0.5633  0.5144
  135SAPE   H8R14612   1.615   3.226   9.457 -0.6950 -1.0645  1.0277
  135SAPE   C2914613   1.516   3.393   9.394 -0.1053 -0.5610 -0.1297
  135SAPE   H9R14614   1.512   3.347   9.294  2.9530 -2.2990  0.4243
  135SAPE  C21014615   1.438   3.516   9.410  0.7179  0.3274 -0.6042
  135SAPE  H10R14616   1.465   3.570   9.503  0.9000  0.5056 -0.7600
  135SAPE  H10S14617   1.333   3.491   9.435  0.1456  3.8165  1.0244
  135SAPE  C21114618   1.440   3.600   9.290 -0.0075  0.0046  0.5685
  135SAPE  H11R14619   1.514   3.681   9.291  0.7421 -0.6532 -0.0436
  135SAPE  C21214620   1.369   3.587   9.174  0.0764  0.4073 -0.5394
  135SAPE  H12R14621   1.378   3.667   9.098 -0.0683  0.2751 -0.6951
  135SAPE  C21314622   1.266   3.475   9.143 -0.3701 -0.2589  0.4611
  135SAPE  H13R14623   1.213   3.462   9.240  0.4163  1.3445  1.1477
  135SAPE  H13S14624   1.332   3.387   9.129  3.3020  2.6979 -2.9846
  135SAPE  C21414625   1.169   3.479   9.027 -0.0645 -0.4351  0.3322
  135SAPE  H14R14626   1.063   3.496   9.048 -0.8467 -2.3955 -1.6037
  135SAPE  C21514627   1.210   3.490   8.894  0.7361 -0.0533  0.0895
  135SAPE  H15R14628   1.121   3.496   8.830  1.0544 -0.2210 -0.3807
  135SAPE  C21614629   1.349   3.491   8.832  0.2131 -1.3683  0.5819
  135SAPE  H16R14630   1.429   3.501   8.909  1.9341  5.5679 -1.4057
  135SAPE  H16S14631   1.364   3.584   8.774 -1.0958 -0.3689  1.7802
  135SAPE  C21714632   1.380   3.377   8.742 -0.2253 -0.8980 -0.2551
  135SAPE  H17R14633   1.342   3.283   8.789  0.2467 -0.9237  0.0846
  135SAPE  H17S14634   1.491   3.377   8.742 -0.0105 -3.2524  3.5877
  135SAPE  C21814635   1.304   3.374   8.606  0.8965 -0.1622  0.3299
  135SAPE  H18R14636   1.362   3.436   8.534  0.0430  0.6388  0.3037
  135SAPE  H18S14637   1.208   3.429   8.616  1.8335  1.3391  1.5104
  135SAPE  C21914638   1.282   3.230   8.566 -0.3022 -0.9854  0.5202
  135SAPE  H19R14639   1.216   3.238   8.477 -1.5479  1.7096  1.5606
  135SAPE  H19S14640   1.222   3.182   8.647  0.7073 -2.3938  0.4706
  135SAPE  C22014641   1.409   3.155   8.535  0.0643  0.2335 -0.8550
  135SAPE  H20R14642   1.484   3.153   8.617 -2.1168  2.4302  1.3751
  135SAPE  H20S14643   1.467   3.191   8.448  0.5277  0.9586 -0.2561
  135SAPE  H20T14644   1.380   3.048   8.526  0.4003  0.1159 -0.5595
  135SAPE   C3314645   2.197   2.821   9.580  0.2301  0.2211 -0.6404
  135SAPE   H3X14646   2.258   2.745   9.634  0.8787  0.8571 -0.4744
  135SAPE   H3Y14647   2.268   2.901   9.553  2.1934 -1.4995 -0.8323
  135SAPE   C3414648   2.134   2.745   9.458  0.8018  0.0532 -0.2384
  135SAPE   H4X14649   2.043   2.696   9.497  1.1885  0.6198  1.4637
  135SAPE   H4Y14650   2.194   2.657   9.426  0.9898 -0.4032  1.3025
  135SAPE   C3514651   2.102   2.842   9.348  0.3863  0.1369 -0.3054
  135SAPE   H5X14652   2.190   2.910   9.347 -0.2782  1.0573  0.9742
  135SAPE   H5Y14653   2.012   2.898   9.381 -0.1608 -0.6780 -0.4026
  135SAPE   C3614654   2.076   2.767   9.217 -0.4634 -0.5310  0.1138
  135SAPE   H6X14655   2.008   2.680   9.230 -2.7556  1.1038 -0.0973
  135SAPE   H6Y14656   2.175   2.731   9.183 -1.0959 -1.1926 -1.0959
  135SAPE   C3714657   2.028   2.858   9.101 -0.1582  0.3487 -0.3028
  135SAPE   H7X14658   2.109   2.928   9.068 -0.9744  1.3071 -0.3053
  135SAPE   H7Y14659   1.939   2.917   9.129  0.9092  1.9775 -0.1706
  135SAPE   C3814660   2.005   2.760   8.982 -0.1047 -0.0773 -0.6296
  135SAPE   H8X14661   1.940   2.676   9.014 -0.9461  0.7131 -0.2133
  135SAPE   H8Y14662   2.099   2.719   8.941 -0.6193 -1.7893 -0.1723
  135SAPE   C3914663   1.948   2.845   8.867 -0.1966  0.5760 -0.3500
  135SAPE   H9X14664   2.019   2.929   8.851 -0.4417  0.6491 -1.1039
  135SAPE   H9Y14665   1.845   2.877   8.892 -0.3756  0.4205 -0.8860
  135SAPE  C31014666   1.934   2.770   8.739  0.3426  0.2154  0.6485
  135SAPE  H10X14667   2.027   2.710   8.725  1.0552  1.5323 -0.5166
  135SAPE  H10Y14668   1.929   2.840   8.653 -3.5269  1.4273  1.6824
  135SAPE  C31114669   1.817   2.672   8.729 -0.5350 -0.2770  0.6087
  135SAPE  H11X14670   1.731   2.736   8.701 -1.0726 -0.2129  2.2643
  135SAPE  H11Y14671   1.797   2.611   8.820 -1.1557 -0.1477  0.5572
  135SAPE  C31214672   1.831   2.560   8.624  0.3635  0.3669  0.0368
  135SAPE  H12X14673   1.847   2.606   8.525  2.2470 -1.3762 -0.5373
  135SAPE  H12Y14674   1.730   2.516   8.609 -0.7270  2.7651 -0.1025
  135SAPE  C31314675   1.945   2.452   8.645  0.6600 -0.8611  0.5402
  135SAPE  H13X14676   2.033   2.499   8.695 -0.7455  0.5053  1.8483
  135SAPE  H13Y14677   1.975   2.413   8.546  0.1004 -1.2482  0.5244
  135SAPE  C31414678   1.895   2.328   8.728  0.3432 -0.1817  0.1514
  135SAPE  H14X14679   1.806   2.295   8.672  0.0958 -0.2873  0.6014
  135SAPE  H14Y14680   1.866   2.370   8.827 -2.5025  0.1653 -0.7548
  135SAPE  C31514681   2.005   2.228   8.766  0.5524 -0.2618 -0.2079
  135SAPE  H15X14682   2.029   2.157   8.684  0.5951 -0.8998  0.3446
  135SAPE  H15Y14683   1.973   2.165   8.852  0.7034  0.8465  0.6712
  135SAPE  C31614684   2.128   2.301   8.814 -0.0560 -0.2887 -0.2138
  135SAPE  H16X14685   2.099   2.385   8.881  3.7045  1.5938 -0.6796
  135SAPE  H16Y14686   2.180   2.346   8.727  0.5258  1.7148  1.0874
  135SAPE  C31714687   2.233   2.215   8.892  0.6018 -0.0594 -0.4694
  135SAPE  H17X14688   2.177   2.197   8.985  1.4091 -2.6126 -0.3944
  135SAPE  H17Y14689   2.324   2.271   8.923  1.2515 -1.0462 -0.5572
  135SAPE  C31814690   2.279   2.081   8.831  0.3485 -0.2935  0.5754
  135SAPE  H18X14691   2.311   2.006   8.907 -2.9661 -1.5866  0.8868
  135SAPE  H18Y14692   2.359   2.104   8.758  1.0574 -0.6349  1.2311
  135SAPE  H18Z14693   2.195   2.044   8.768  0.1097  1.0289  0.0981
  136SAPE     N14694   5.048   0.947  10.665  0.4382  0.9879  0.0961
  136SAPE   HN114695   4.956   0.950  10.617 -0.1331  0.7125  1.1405
  136SAPE   HN214696   5.103   1.026  10.625  1.9694 -0.7882 -1.4600
  136SAPE   HN314697   5.099   0.865  10.626 -1.5471  0.3728 -1.3364
  136SAPE   C1214698   5.047   0.952  10.817 -0.8276 -0.5776 -0.0453
  136SAPE  H12A14699   5.009   0.852  10.846  4.0682 -2.8273 -0.4847
  136SAPE  H12B14700   4.981   1.039  10.840  1.4800  0.7555  2.0545
  136SAPE   C1114701   5.183   0.966  10.881 -0.0212 -0.4159 -0.4518
  136SAPE  H11A14702   5.170   0.970  10.992  2.0524 -1.6042 -0.1205
  136SAPE  H11B14703   5.232   1.059  10.846 -0.5852 -0.3555 -1.1003
  136SAPE     P14704   5.394   0.836  10.772 -0.1054 -0.0919 -0.1693
  136SAPE   O1314705   5.479   0.942  10.819  0.5113 -0.5286  0.1431
  136SAPE   O1414706   5.443   0.695  10.785 -0.1855 -0.2591 -0.0657
  136SAPE   O1214707   5.253   0.844  10.848 -0.2911  0.2487  0.1107
  136SAPE   O1114708   5.352   0.870  10.626  0.3824  0.8984 -0.1614
  136SAPE    C114709   5.411   0.803  10.512 -0.0819  0.7125 -0.0894
  136SAPE    HA14710   5.415   0.692  10.526  0.5405  0.4580 -1.9383
  136SAPE    HB14711   5.344   0.816  10.424  0.0201 -0.0680 -0.2995
  136SAPE    C214712   5.548   0.857  10.478 -0.0648 -0.0252 -1.0003
  136SAPE    HS14713   5.601   0.876  10.574  0.3939 -3.4408 -0.4680
  136SAPE   O2114714   5.520   0.980  10.408 -0.0666 -0.4546 -0.3352
  136SAPE   C2114715   5.613   1.074  10.383  0.1926 -0.3236 -0.3543
  136SAPE   O2214716   5.728   1.060  10.416 -0.2369 -1.0480 -0.1088
  136SAPE   C2214717   5.548   1.206  10.330 -0.0253 -0.2190 -0.1896
  136SAPE   H2R14718   5.449   1.180  10.289 -0.2122 -0.4694  0.4118
  136SAPE   H2S14719   5.531   1.269  10.420 -1.6982 -0.8075 -0.0658
  136SAPE    C314720   5.631   0.764  10.392  0.1451  0.2254  0.2806
  136SAPE    HX14721   5.680   0.692  10.461  2.6652 -0.3614 -1.9274
  136SAPE    HY14722   5.716   0.823  10.352  0.3498 -0.1359  0.1838
  136SAPE   O3114723   5.545   0.695  10.299  0.2240 -0.2867 -0.5247
  136SAPE   C3114724   5.517   0.750  10.183 -0.5993  0.5607 -0.4899
  136SAPE   O3214725   5.577   0.845  10.138  0.5596  0.0136  0.8836
  136SAPE   C3214726   5.433   0.662  10.103 -0.0078 -0.4382 -0.5507
  136SAPE   H2X14727   5.338   0.663  10.161  0.8341  2.0199  0.9600
  136SAPE   H2Y14728   5.473   0.559  10.106 -0.2237 -0.5051  0.4859
  136SAPE   C2314729   5.637   1.278  10.219  0.1031 -0.7649  0.1016
  136SAPE   H3R14730   5.680   1.204  10.148  2.1567  1.2560 -0.9001
  136SAPE   H3S14731   5.728   1.326  10.259  0.7494 -3.2876  1.9541
  136SAPE   C2414732   5.554   1.374  10.129  0.6054 -0.4857  0.5187
  136SAPE   H4R14733   5.519   1.450  10.203 -2.0269 -0.7441 -0.3730
  136SAPE   H4S14734   5.463   1.329  10.084  0.9594 -0.9071  0.2222
  136SAPE   C2514735   5.643   1.451  10.034  0.2250 -0.1408 -0.1884
  136SAPE   H5R14736   5.703   1.523  10.092  1.2559  0.2097 -1.6483
  136SAPE   C2614737   5.659   1.436   9.900  0.3032 -0.8429  0.2542
  136SAPE   H6R14738   5.744   1.487   9.851 -0.0802 -0.7761 -0.3558
  136SAPE   C2714739   5.590   1.340   9.806 -0.5337  0.0520  0.3576
  136SAPE   H7R14740   5.512   1.279   9.857 -2.8216  1.7741 -0.9212
  136SAPE   H7S14741   5.673   1.275   9.772  0.5003  0.8867  1.2019
  136SAPE   C2814742   5.518   1.395   9.687 -0.0191 -0.2551  0.4387
  136SAPE   H8R14743   5.414   1.425   9.710  0.2067  0.6489  0.3490
  136SAPE   C2914744   5.561   1.423   9.564 -0.2895  0.1090 -0.5520
  136SAPE   H9R14745   5.492   1.463   9.488 -0.8281  2.8945  1.2721
  136SAPE  C21014746   5.701   1.392   9.521 -0.1008 -0.3091 -0.3994
  136SAPE  H10R14747   5.779   1.376   9.600  0.1865 -1.3753 -0.8790
  136SAPE  H10S14748   5.733   1.473   9.452  1.6746 -0.9946 -0.4434
  136SAPE  C21114749   5.682   1.259   9.449 -0.1013  0.1961 -0.2479
  136SAPE  H11R14750   5.687   1.177   9.522 -1.3315 -0.5600 -0.9872
  136SAPE  C21214751   5.684   1.233   9.318  0.3628  0.2163 -0.7055
  136SAPE  H12R14752   5.668   1.128   9.289  0.4897 -0.2298  0.7455
  136SAPE  C21314753   5.707   1.332   9.208  0.0613 -1.3327  0.7350
  136SAPE  H13R14754   5.763   1.278   9.128 -3.2055 -1.1569 -1.9066
  136SAPE  H13S14755   5.777   1.413   9.237  2.3527 -1.7880 -2.8056
  136SAPE  C21414756   5.580   1.393   9.155 -0.0537  0.7861 -0.1542
  136SAPE  H14R14757   5.532   1.459   9.229 -0.2629  0.6745 -0.1891
  136SAPE  C21514758   5.520   1.377   9.037  0.0199  0.2465  0.4792
  136SAPE  H15R14759   5.423   1.424   9.015  0.2707 -0.0784 -1.5227
  136SAPE  C21614760   5.577   1.302   8.914 -0.1801 -0.5152 -0.1019
  136SAPE  H16R14761   5.501   1.232   8.872  0.1854 -0.5631 -0.6881
  136SAPE  H16S14762   5.660   1.239   8.953  0.3242 -0.7601 -1.5375
  136SAPE  C21714763   5.633   1.390   8.806  0.4955  0.3321  0.4249
  136SAPE  H17R14764   5.687   1.471   8.860 -2.3736  1.7649  1.3751
  136SAPE  H17S14765   5.550   1.440   8.750 -0.0300 -1.8317 -0.8350
  136SAPE  C21814766   5.721   1.309   8.704 -0.3238 -0.5741 -0.2118
  136SAPE  H18R14767   5.806   1.263   8.759  0.0360 -0.6814 -0.8465
  136SAPE  H18S14768   5.752   1.388   8.632  0.5664 -1.0524 -0.3745
  136SAPE  C21914769   5.656   1.194   8.623  0.5218  0.3069  0.6030
  136SAPE  H19R14770   5.578   1.238   8.557  1.3577  1.9227  0.6317
  136SAPE  H19S14771   5.624   1.105   8.680 -0.4101 -0.3267 -0.8455
  136SAPE  C22014772   5.767   1.143   8.526  0.1231 -0.0110 -0.5217
  136SAPE  H20R14773   5.846   1.083   8.573 -0.9883 -0.8844  0.2827
  136SAPE  H20S14774   5.812   1.223   8.463 -1.6626  0.1976 -1.6306
  136SAPE  H20T14775   5.727   1.078   8.445 -0.2345  1.6906 -1.7844
  136SAPE   C3314776   5.406   0.691   9.949  0.7321  0.7413  0.4104
  136SAPE   H3X14777   5.499   0.685   9.889 -0.4665  2.5220 -1.8090
  136SAPE   H3Y14778   5.363   0.793   9.940  0.5166  0.4793 -3.3759
  136SAPE   C3414779   5.295   0.604   9.892 -0.1501 -0.1831 -0.1634
  136SAPE   H4X14780   5.206   0.621   9.957 -1.7459 -0.7988 -2.0637
  136SAPE   H4Y14781   5.323   0.498   9.910  0.8738  0.4923  2.6750
  136SAPE   C3514782   5.261   0.647   9.751 -1.2675 -0.2569  0.6017
  136SAPE   H5X14783   5.221   0.751   9.752 -0.5301  0.0666  2.9041
  136SAPE   H5Y14784   5.172   0.588   9.722 -0.2254 -1.7244  0.2864
  136SAPE   C3614785   5.375   0.625   9.650  0.2577  0.0900 -0.6439
  136SAPE   H6X14786   5.403   0.517   9.651 -2.7144 -0.7665  0.5726
  136SAPE   H6Y14787   5.471   0.678   9.670  0.0183  1.2404 -2.3470
  136SAPE   C3714788   5.331   0.658   9.507  0.1689 -0.3734  0.6644
  136SAPE   H7X14789   5.233   0.710   9.509 -2.0684 -4.1650 -0.3152
  136SAPE   H7Y14790   5.307   0.566   9.450 -1.6670  0.1065  0.6018
  136SAPE   C3814791   5.436   0.733   9.426  0.1580  0.1835  0.8900
  136SAPE   H8X14792   5.535   0.691   9.453 -0.5329 -1.3901  1.0624
  136SAPE   H8Y14793   5.444   0.842   9.446  0.4156  0.3340  0.0003
  136SAPE   C3914794   5.421   0.718   9.269  0.0166  0.1446  0.5426
  136SAPE   H9X14795   5.326   0.766   9.237 -0.1525 -0.1293  0.6362
  136SAPE   H9Y14796   5.401   0.610   9.255 -0.6697  0.2033  0.9992
  136SAPE  C31014797   5.547   0.762   9.191  0.6979 -0.2124  0.0192
  136SAPE  H10X14798   5.638   0.713   9.231  1.2232  2.8938  3.1035
  136SAPE  H10Y14799   5.549   0.865   9.231 -2.9913 -0.2528  0.6493
  136SAPE  C31114800   5.532   0.760   9.043 -0.0493  0.3810  0.2810
  136SAPE  H11X14801   5.453   0.825   9.002 -0.2666 -0.9608 -1.5566
  136SAPE  H11Y14802   5.487   0.666   9.003 -0.0512  0.4294  0.1713
  136SAPE  C31214803   5.669   0.778   8.972  0.1858 -1.1439  0.7545
  136SAPE  H12X14804   5.746   0.702   8.994  1.7627 -0.1356 -0.9917
  136SAPE  H12Y14805   5.711   0.873   9.010 -0.0598 -1.3759  1.6158
  136SAPE  C31314806   5.653   0.798   8.815  0.1553  0.0220  0.0458
  136SAPE  H13X14807   5.577   0.869   8.777 -0.1664 -0.7120 -0.7150
  136SAPE  H13Y14808   5.619   0.704   8.767  2.3297 -1.5715  1.4023
  136SAPE  C31414809   5.780   0.850   8.748  0.3305 -0.0914 -0.2695
  136SAPE  H14X14810   5.827   0.938   8.797  0.1842  0.3872 -0.9667
  136SAPE  H14Y14811   5.753   0.883   8.645 -0.7085  1.5703  0.4860
  136SAPE  C31514812   5.891   0.746   8.735 -0.6480  0.3809 -0.1541
  136SAPE  H15X14813   5.869   0.659   8.669  0.7258 -1.3393  1.5463
  136SAPE  H15Y14814   5.907   0.705   8.837 -1.3718  1.6266  0.4895
  136SAPE  C31614815   6.024   0.802   8.682 -0.0930 -0.3051 -0.1292
  136SAPE  H16X14816   6.045   0.897   8.737 -0.4673 -1.2073  1.6384
  136SAPE  H16Y14817   6.015   0.833   8.576  1.1509  0.5195 -0.0210
  136SAPE  C31714818   6.151   0.711   8.691  0.7566  0.0778 -0.5240
  136SAPE  H17X14819   6.156   0.658   8.789  1.5079  1.5294  0.2593
  136SAPE  H17Y14820   6.246   0.767   8.681  0.9555 -0.6698 -3.7620
  136SAPE  C31814821   6.169   0.613   8.573 -0.1011 -0.2745  0.0099
  136SAPE  H18X14822   6.082   0.549   8.547  0.1263  0.4939 -2.9838
  136SAPE  H18Y14823   6.263   0.553   8.574  1.7281  2.2627 -2.4967
  136SAPE  H18Z14824   6.177   0.683   8.487  0.7396  1.3272  1.3443
  137SAPE     N14825   4.842   4.032  11.039  0.5782  0.2071 -0.9818
  137SAPE   HN114826   4.939   4.042  11.004  0.7891  0.9942 -0.2126
  137SAPE   HN214827   4.829   4.108  11.109 -0.1000 -0.8144  0.0407
  137SAPE   HN314828   4.830   3.946  11.096 -1.5892  1.9355  1.4457
  137SAPE   C1214829   4.758   4.044  10.914  0.0048  0.0840  0.4918
  137SAPE  H12A14830   4.779   4.133  10.852 -0.7127 -1.4288 -2.0646
  137SAPE  H12B14831   4.651   4.050  10.944  0.1590  2.2680  0.7733
  137SAPE   C1114832   4.782   3.925  10.826  0.1857  0.2495 -0.2817
  137SAPE  H11A14833   4.891   3.911  10.809  0.9597  0.9626  3.2310
  137SAPE  H11B14834   4.737   3.949  10.728  0.5808 -0.2495 -0.5942
  137SAPE     P14835   4.592   3.736  10.907  0.0386  0.0962  0.3580
  137SAPE   O1314836   4.589   3.635  11.015 -0.4830  0.1736  0.5724
  137SAPE   O1414837   4.496   3.846  10.913  0.0930 -0.5250  0.1553
  137SAPE   O1214838   4.737   3.806  10.899 -0.3378 -0.2961 -0.0806
  137SAPE   O1114839   4.573   3.652  10.772 -0.3323 -0.4248  0.6402
  137SAPE    C114840   4.690   3.590  10.711  0.2215 -0.2059  0.8942
  137SAPE    HA14841   4.776   3.658  10.691  0.0267 -0.9925 -3.3932
  137SAPE    HB14842   4.725   3.507  10.777  1.8963  0.1231  0.4675
  137SAPE    C214843   4.651   3.525  10.574  0.5453 -0.4819 -0.8801
  137SAPE    HS14844   4.735   3.464  10.535  2.5186  0.8290  1.0311
  137SAPE   O2114845   4.618   3.632  10.484  0.3426  0.1293 -0.7309
  137SAPE   C2114846   4.721   3.685  10.423 -0.3335 -1.0998  0.4435
  137SAPE   O2214847   4.839   3.660  10.442 -0.1575  0.1631 -0.1769
  137SAPE   C2214848   4.670   3.802  10.346 -0.4054 -0.3928  0.1754
  137SAPE   H2R14849   4.572   3.833  10.389 -0.7255  0.2036 -0.9419
  137SAPE   H2S14850   4.740   3.886  10.364  1.6653 -2.3117  1.5325
  137SAPE    C314851   4.530   3.427  10.588 -0.4214 -1.1422 -0.2448
  137SAPE    HX14852   4.445   3.485  10.629  0.8457  0.4889  0.1732
  137SAPE    HY14853   4.564   3.360  10.669  0.3136 -1.6179 -0.9368
  137SAPE   O3114854   4.503   3.358  10.466  0.1601 -0.3996 -0.0605
  137SAPE   C3114855   4.383   3.360  10.418  0.8872 -0.1822 -0.4902
  137SAPE   O3214856   4.284   3.415  10.467  0.4251 -0.1236  0.5310
  137SAPE   C3214857   4.399   3.328  10.272  0.0236  0.0899 -0.2153
  137SAPE   H2X14858   4.299   3.316  10.224 -0.1736  0.6542  0.0437
  137SAPE   H2Y14859   4.445   3.227  10.277 -0.1621  0.0340  0.3886
  137SAPE   C2314860   4.681   3.758  10.190 -0.0503  0.1247 -0.6539
  137SAPE   H3R14861   4.650   3.653  10.173 -0.4647  0.2463 -0.6741
  137SAPE   H3S14862   4.787   3.775  10.163  0.1655  1.2585  0.7651
  137SAPE   C2414863   4.595   3.847  10.101 -0.3166 -0.2575  0.3178
  137SAPE   H4R14864   4.627   3.819   9.998 -1.1678 -1.8022  0.4493
  137SAPE   H4S14865   4.627   3.953  10.112  1.2710 -0.5176 -1.2801
  137SAPE   C2514866   4.446   3.845  10.112 -0.4308 -0.2929  0.4527
  137SAPE   H5R14867   4.407   3.743  10.105  0.2985 -0.5030 -0.7696
  137SAPE   C2614868   4.349   3.941  10.117  1.5504  0.0946  0.5707
  137SAPE   H6R14869   4.244   3.909  10.120  2.1314 -1.9943  0.2402
  137SAPE   C2714870   4.378   4.089  10.118 -0.0920 -0.6109  0.2994
  137SAPE   H7R14871   4.315   4.140  10.041  3.1397  1.6999 -1.0753
  137SAPE   H7S14872   4.477   4.124  10.081  0.8836 -0.8335  2.5455
  137SAPE   C2814873   4.326   4.143  10.244  0.0581 -0.5166 -1.0159
  137SAPE   H8R14874   4.279   4.068  10.309 -0.4757 -0.2523 -1.0961
  137SAPE   C2914875   4.336   4.269  10.293  0.0820  0.8012  0.2293
  137SAPE   H9R14876   4.283   4.289  10.387  0.8949 -0.2482  0.9446
  137SAPE  C21014877   4.394   4.384  10.216  0.0599 -0.4566 -0.1483
  137SAPE  H10R14878   4.316   4.454  10.179  0.8974  1.1966  1.0488
  137SAPE  H10S14879   4.432   4.348  10.119 -2.3491  0.3132 -1.4563
  137SAPE  C21114880   4.504   4.470  10.284  0.3404  0.0071 -0.1462
  137SAPE  H11R14881   4.568   4.416  10.356  1.2902  1.0987 -0.1306
  137SAPE  C21214882   4.525   4.595  10.253 -0.1129 -0.6156 -0.1424
  137SAPE  H12R14883   4.595   4.654  10.314  0.0723 -1.8559  0.8714
  137SAPE  C21314884   4.449   4.676  10.152 -0.5293  0.2764  0.1624
  137SAPE  H13R14885   4.340   4.671  10.169 -0.3082  2.8786  3.2957
  137SAPE  H13S14886   4.458   4.631  10.051 -1.5664 -1.4347  0.7832
  137SAPE  C21414887   4.503   4.811  10.131  0.8294  0.1536 -0.1279
  137SAPE  H14R14888   4.555   4.856  10.217  0.1292 -0.7947  0.8155
  137SAPE  C21514889   4.498   4.874  10.019  0.2999  0.9022 -0.4215
  137SAPE  H15R14890   4.542   4.975  10.024  1.0199  0.5626  3.8128
  137SAPE  C21614891   4.437   4.843   9.884 -0.0998  0.0527  0.7025
  137SAPE  H16R14892   4.344   4.898   9.857  0.7195  1.5534  0.8309
  137SAPE  H16S14893   4.406   4.736   9.888 -1.6644  0.4619  0.3364
  137SAPE  C21714894   4.543   4.853   9.774  0.0110 -0.2126  0.4341
  137SAPE  H17R14895   4.624   4.782   9.798  0.6827 -0.5447 -2.5113
  137SAPE  H17S14896   4.587   4.955   9.767  1.8188 -0.9749  0.2105
  137SAPE  C21814897   4.487   4.812   9.637  0.3411  1.0399 -0.5625
  137SAPE  H18R14898   4.561   4.840   9.560 -1.1329  1.3402 -1.9233
  137SAPE  H18S14899   4.386   4.855   9.621 -0.4256 -0.3750  0.2572
  137SAPE  C21914900   4.464   4.664   9.624 -0.4993  0.2586  0.3242
  137SAPE  H19R14901   4.395   4.637   9.706  0.5269 -3.9415  0.0661
  137SAPE  H19S14902   4.558   4.608   9.644  0.2990  1.6039  0.4257
  137SAPE  C22014903   4.393   4.626   9.490  0.3641  0.5938  0.0044
  137SAPE  H20R14904   4.379   4.520   9.461 -1.0471  1.1999 -1.6588
  137SAPE  H20S14905   4.452   4.667   9.405 -0.2881  0.2027 -0.6446
  137SAPE  H20T14906   4.290   4.666   9.494  0.1847  0.0553  1.2557
  137SAPE   C3314907   4.488   3.432  10.193  0.5217  0.4083 -0.1178
  137SAPE   H3X14908   4.586   3.438  10.245 -1.8591 -1.0490  5.2084
  137SAPE   H3Y14909   4.441   3.532  10.207  2.1801  1.1801  0.1075
  137SAPE   C3414910   4.491   3.399  10.048  0.6484 -0.0532  0.7021
  137SAPE   H4X14911   4.398   3.340  10.031 -2.1030  3.6330  1.7861
  137SAPE   H4Y14912   4.566   3.318  10.029 -1.3910 -1.4544 -2.3950
  137SAPE   C3514913   4.489   3.518   9.944  0.0648  0.0726  0.2264
  137SAPE   H5X14914   4.586   3.571   9.955 -0.5322  1.7991 -2.1018
  137SAPE   H5Y14915   4.406   3.591   9.952  1.4997  1.7462  0.5640
  137SAPE   C3614916   4.487   3.457   9.798 -0.4988 -0.0691 -0.2697
  137SAPE   H6X14917   4.387   3.409   9.785  0.5364 -2.3523 -0.2649
  137SAPE   H6Y14918   4.565   3.378   9.800 -0.2692  0.1731  1.2216
  137SAPE   C3714919   4.520   3.556   9.694 -0.4433 -0.3323  0.5100
  137SAPE   H7X14920   4.625   3.593   9.702 -0.7409  0.1936  2.2762
  137SAPE   H7Y14921   4.448   3.640   9.706 -0.4106 -0.3913  1.1204
  137SAPE   C3814922   4.495   3.491   9.553 -0.4145  0.5976 -0.0508
  137SAPE   H8X14923   4.384   3.482   9.552 -0.4305  0.8020 -0.6691
  137SAPE   H8Y14924   4.534   3.388   9.564 -0.2222  0.5050 -1.4148
  137SAPE   C3914925   4.525   3.576   9.424  0.9342  0.6439 -0.2940
  137SAPE   H9X14926   4.496   3.529   9.327 -0.2260  0.0373  0.3255
  137SAPE   H9Y14927   4.634   3.597   9.420  1.1813 -0.3177  0.8409
  137SAPE  C31014928   4.450   3.706   9.428 -0.5838 -0.0239 -0.1273
  137SAPE  H10X14929   4.463   3.751   9.529  2.5115 -2.1812  0.5761
  137SAPE  H10Y14930   4.343   3.679   9.417 -0.6119 -0.2974  0.7835
  137SAPE  C31114931   4.491   3.807   9.327 -0.1061  0.2694  0.0308
  137SAPE  H11X14932   4.602   3.803   9.321 -0.1963 -1.7368 -1.1286
  137SAPE  H11Y14933   4.470   3.913   9.355 -3.0316  0.0774 -1.0320
  137SAPE  C31214934   4.427   3.789   9.186  0.1473 -0.1082  0.3769
  137SAPE  H12X14935   4.317   3.804   9.182  0.1638 -0.0742 -3.0712
  137SAPE  H12Y14936   4.459   3.687   9.157 -2.3261 -1.3039  1.5380
  137SAPE  C31314937   4.474   3.890   9.086 -0.7259  0.2973 -0.3843
  137SAPE  H13X14938   4.438   3.992   9.107 -1.0091  0.0477  0.3901
  137SAPE  H13Y14939   4.429   3.849   8.993  0.5721 -3.0135  0.2890
  137SAPE  C31414940   4.629   3.890   9.064 -0.5930  0.4281  0.1734
  137SAPE  H14X14941   4.664   3.785   9.069  1.1330  0.9583 -0.0705
  137SAPE  H14Y14942   4.670   3.946   9.152 -1.0062  0.0098  0.6398
  137SAPE  C31514943   4.678   3.955   8.937  0.3085 -0.1016  0.8750
  137SAPE  H15X14944   4.645   4.061   8.937  1.2246  0.2041  2.3372
  137SAPE  H15Y14945   4.620   3.899   8.860 -0.5274  2.1823 -0.2756
  137SAPE  C31614946   4.828   3.964   8.908  0.7092 -0.1413 -0.5446
  137SAPE  H16X14947   4.876   3.872   8.948  0.1085 -0.1513  0.1718
  137SAPE  H16Y14948   4.860   4.049   8.972 -2.1236 -0.6562  1.7895
  137SAPE  C31714949   4.865   3.979   8.765  0.3521 -0.4648 -0.3449
  137SAPE  H17X14950   4.846   3.887   8.707  0.0287 -0.1691 -0.7165
  137SAPE  H17Y14951   4.976   3.981   8.763  0.3677 -1.5577 -0.7655
  137SAPE  C31814952   4.809   4.102   8.690 -0.0785  0.4217 -0.2847
  137SAPE  H18X14953   4.840   4.203   8.727  0.0946  0.5685 -0.8312
  137SAPE  H18Y14954   4.700   4.109   8.668  0.0725  1.0931 -0.8512
  137SAPE  H18Z14955   4.840   4.095   8.584 -3.1251  2.4130 -1.4489
  138SAPE     N14956   6.530   5.255  10.692 -0.4702  0.8690 -0.2049
  138SAPE   HN114957   6.528   5.196  10.606 -3.2313  2.7904 -1.6223
  138SAPE   HN214958   6.447   5.229  10.749 -0.0495  0.5710  0.2750
  138SAPE   HN314959   6.515   5.353  10.661  0.4846  1.1378  0.1501
  138SAPE   C1214960   6.662   5.244  10.764 -0.2386  0.3785  0.9874
  138SAPE  H12A14961   6.702   5.141  10.752  0.9343  1.1035 -2.4483
  138SAPE  H12B14962   6.644   5.260  10.872 -1.9786  1.9307  0.5210
  138SAPE   C1114963   6.768   5.335  10.696  0.4342  0.0616 -0.9025
  138SAPE  H11A14964   6.742   5.442  10.705  0.3358 -0.0353  0.0187
  138SAPE  H11B14965   6.766   5.300  10.590  1.1169 -0.7026 -0.6733
  138SAPE     P14966   6.997   5.403  10.812  0.4494  0.2562  0.2050
  138SAPE   O1314967   6.918   5.493  10.905  0.2414  0.4674 -0.1248
  138SAPE   O1414968   7.111   5.334  10.869 -0.4232  0.4639 -0.1739
  138SAPE   O1214969   6.893   5.295  10.754 -0.8122 -0.8727  0.6728
  138SAPE   O1114970   7.054   5.487  10.688  0.2562 -0.0021 -0.6361
  138SAPE    C114971   7.093   5.409  10.576  0.3279 -0.1200 -0.2074
  138SAPE    HA14972   7.200   5.380  10.591 -0.3477 -2.1169  1.2488
  138SAPE    HB14973   7.039   5.312  10.575 -0.3887  0.2666  0.4945
  138SAPE    C214974   7.062   5.492  10.450 -0.2007  0.1400 -0.2465
  138SAPE    HS14975   7.123   5.584  10.462 -2.0313  1.3777  0.0794
  138SAPE   O2114976   6.922   5.514  10.442  0.4878 -0.5501  0.2105
  138SAPE   C2114977   6.884   5.640  10.444 -0.1118  0.0997 -0.1177
  138SAPE   O2214978   6.966   5.735  10.459  0.5149 -0.8262  0.8147
  138SAPE   C2214979   6.736   5.651  10.413  0.5915  0.2857 -0.3808
  138SAPE   H2R14980   6.704   5.577  10.336  0.5136  0.1920 -0.2595
  138SAPE   H2S14981   6.684   5.618  10.506  2.7550  0.5925  0.9947
  138SAPE    C314982   7.109   5.413  10.324  0.5851 -0.1945 -0.0265
  138SAPE    HX14983   7.070   5.311  10.340  0.3269  0.1175  1.5890
  138SAPE    HY14984   7.219   5.392  10.323  0.1584 -2.7487  0.3813
  138SAPE   O3114985   7.073   5.466  10.196  0.2389  0.3267 -0.0165
  138SAPE   C3114986   7.169   5.558  10.155  0.0930 -0.2342 -0.0265
  138SAPE   O3214987   7.280   5.565  10.202  0.2085 -0.6839 -0.0495
  138SAPE   C3214988   7.108   5.646  10.042 -0.3152 -0.4141  0.2409
  138SAPE   H2X14989   7.019   5.699  10.081  0.4899  1.5288 -0.4414
  138SAPE   H2Y14990   7.075   5.580   9.959 -0.2180 -2.0963  1.4737
  138SAPE   C2314991   6.701   5.793  10.384 -0.4355  0.7403  0.3375
  138SAPE   H3R14992   6.746   5.868  10.453  2.6707  1.3762 -2.1769
  138SAPE   H3S14993   6.594   5.819  10.402 -0.6901  1.6864 -2.2194
  138SAPE   C2414994   6.738   5.842  10.240  0.2919  0.1003 -0.3092
  138SAPE   H4R14995   6.845   5.818  10.222  0.1936 -0.1525 -0.5537
  138SAPE   H4S14996   6.723   5.952  10.246 -3.2183 -0.2861  0.4074
  138SAPE   C2514997   6.635   5.788  10.140 -0.7953  0.3488 -0.5356
  138SAPE   H5R14998   6.552   5.737  10.190  0.1766  0.0843  0.8511
  138SAPE   C2614999   6.634   5.791  10.008 -0.1569 -0.4703 -0.4148
  138SAPE   H6R15000   6.541   5.754   9.963  0.3151 -0.5498 -1.3448
  138SAPE   C2715001   6.728   5.866   9.919 -0.4684 -0.1502 -0.4086
  138SAPE   H7R15002   6.808   5.920   9.975 -1.5385 -0.0062  1.0441
  138SAPE   H7S15003   6.665   5.945   9.873  0.0299  0.1251 -0.6239
  138SAPE   C2815004   6.780   5.758   9.827  0.0237 -0.5945  0.5166
  138SAPE   H8R15005   6.847   5.684   9.873  1.0027  0.6293  1.0963
  138SAPE   C2915006   6.751   5.746   9.699 -0.1219  0.2382  0.4393
  138SAPE   H9R15007   6.804   5.681   9.628 -1.0155 -0.5578  0.4726
  138SAPE  C21015008   6.659   5.830   9.627  0.2754 -0.0461  0.3119
  138SAPE  H10R15009   6.714   5.885   9.548  1.8377 -0.4177  1.1142
  138SAPE  H10S15010   6.611   5.913   9.684  0.4945  0.0869  0.3029
  138SAPE  C21115011   6.559   5.744   9.561 -0.3406  0.0006  0.3482
  138SAPE  H11R15012   6.519   5.665   9.625 -2.1889 -0.0912 -0.8430
  138SAPE  C21215013   6.525   5.739   9.431  0.0968  1.1303  0.3446
  138SAPE  H12R15014   6.447   5.667   9.403 -1.9883  2.0252  3.3534
  138SAPE  C21315015   6.578   5.820   9.319  0.3403  0.1307  0.4644
  138SAPE  H13R15016   6.623   5.917   9.349  0.3129  0.5062 -0.6531
  138SAPE  H13S15017   6.494   5.851   9.253 -1.0232 -1.0367  1.5906
  138SAPE  C21415018   6.670   5.735   9.236 -0.7126  0.7834  0.2146
  138SAPE  H14R15019   6.775   5.728   9.265 -0.8570  0.0369  0.5783
  138SAPE  C21515020   6.640   5.673   9.120  0.6107  0.0772 -0.7429
  138SAPE  H15R15021   6.714   5.612   9.066  0.7877  1.9417 -2.7700
  138SAPE  C21615022   6.507   5.666   9.046 -0.6080 -0.1911 -0.4264
  138SAPE  H16R15023   6.429   5.731   9.092  0.6948  0.6970  0.6274
  138SAPE  H16S15024   6.466   5.565   9.065 -0.0276 -0.2632  0.4897
  138SAPE  C21715025   6.519   5.678   8.890 -0.0005  0.2109 -0.5701
  138SAPE  H17R15026   6.418   5.654   8.850 -0.7246  0.4787  1.0265
  138SAPE  H17S15027   6.587   5.596   8.856 -0.6839 -1.0961  1.0792
  138SAPE  C21815028   6.567   5.813   8.848 -0.5666 -0.2965  0.4233
  138SAPE  H18R15029   6.661   5.836   8.903 -1.1119  3.8498 -0.0612
  138SAPE  H18S15030   6.496   5.892   8.881 -0.4271 -0.4460  1.0994
  138SAPE  C21915031   6.588   5.831   8.689  0.2811 -0.3500 -0.6523
  138SAPE  H19R15032   6.506   5.895   8.650 -0.1590 -0.4870  0.0239
  138SAPE  H19S15033   6.584   5.736   8.632  0.1400  0.0195 -1.2568
  138SAPE  C22015034   6.721   5.898   8.663 -0.6414  0.3980  0.7704
  138SAPE  H20R15035   6.805   5.838   8.704  0.8853 -0.9346 -3.6747
  138SAPE  H20S15036   6.728   6.001   8.704 -3.5495  1.1939 -0.4222
  138SAPE  H20T15037   6.740   5.893   8.553 -0.9208  0.5745  0.7127
  138SAPE   C3315038   7.219   5.745  10.000 -0.0452 -0.0484  0.6774
  138SAPE   H3X15039   7.299   5.684   9.954  0.8096  0.7186  1.1118
  138SAPE   H3Y15040   7.262   5.802  10.085  1.1705  2.1695 -1.3093
  138SAPE   C3415041   7.174   5.863   9.918  0.2191  0.4923  0.3087
  138SAPE   H4X15042   7.261   5.932   9.923  1.3767 -0.8860  0.0838
  138SAPE   H4Y15043   7.084   5.915   9.956 -1.2693 -1.1565 -0.7947
  138SAPE   C3515044   7.150   5.832   9.767 -0.4877 -0.0293  0.1586
  138SAPE   H5X15045   7.071   5.755   9.756 -3.1554  2.4606  0.6780
  138SAPE   H5Y15046   7.246   5.795   9.725  1.1978  2.2791  1.6638
  138SAPE   C3615047   7.100   5.945   9.670  0.1467 -0.1483  0.4802
  138SAPE   H6X15048   7.186   6.015   9.668  1.2891 -1.5147 -0.5197
  138SAPE   H6Y15049   7.006   5.981   9.717 -0.3013 -0.1531 -0.3916
  138SAPE   C3715050   7.067   5.880   9.525 -0.5766 -0.6634  0.1232
  138SAPE   H7X15051   6.989   5.801   9.535  0.2122 -1.7984 -2.0996
  138SAPE   H7Y15052   7.156   5.824   9.491 -0.0006 -0.2821  0.9782
  138SAPE   C3815053   7.017   5.989   9.427 -0.9844  0.0443 -0.3160
  138SAPE   H8X15054   7.102   6.061   9.423 -0.2436 -0.5392  2.4441
  138SAPE   H8Y15055   6.938   6.049   9.477  1.1740  1.3878  1.7224
  138SAPE   C3915056   6.984   5.940   9.288 -0.1951 -0.4145 -0.1872
  138SAPE   H9X15057   6.908   5.860   9.302 -0.0587 -0.7241 -1.1253
  138SAPE   H9Y15058   7.068   5.884   9.242 -1.3184 -0.7627 -1.9366
  138SAPE  C31015059   6.929   6.049   9.198 -0.2356 -0.2741  0.8792
  138SAPE  H10X15060   7.005   6.130   9.204 -0.8390  0.5729 -1.6355
  138SAPE  H10Y15061   6.843   6.099   9.248 -1.1582  0.1924 -1.0852
  138SAPE  C31115062   6.895   5.986   9.058 -0.1182 -1.3907 -0.1918
  138SAPE  H11X15063   6.817   6.050   9.012  1.0399  0.4952  0.3554
  138SAPE  H11Y15064   6.850   5.887   9.079  1.0976 -1.4772  2.3989
  138SAPE  C31215065   7.017   5.972   8.966  0.7808 -0.1544 -0.0265
  138SAPE  H12X15066   6.973   5.900   8.894 -0.2405  0.7540 -0.3501
  138SAPE  H12Y15067   7.100   5.944   9.034 -0.3259  0.1164  1.5065
  138SAPE  C31315068   7.049   6.097   8.889  0.0550  0.4110 -0.5105
  138SAPE  H13X15069   7.084   6.169   8.966 -1.0486 -1.7471  2.1637
  138SAPE  H13Y15070   6.956   6.128   8.837  0.8983  0.1937 -2.2124
  138SAPE  C31415071   7.150   6.075   8.777 -0.3615 -0.6028 -0.1721
  138SAPE  H14X15072   7.219   6.007   8.832 -0.8989 -0.8502  0.2028
  138SAPE  H14Y15073   7.209   6.165   8.748  0.6206 -0.5348  1.8178
  138SAPE  C31515074   7.097   5.986   8.656  0.1732  1.0759 -0.1693
  138SAPE  H15X15075   7.025   6.040   8.591 -0.3657 -1.5601 -1.8850
  138SAPE  H15Y15076   7.054   5.895   8.702 -0.2690 -0.0012 -2.5800
  138SAPE  C31615077   7.211   5.914   8.571 -0.5902  0.0731 -0.0860
  138SAPE  H16X15078   7.288   5.985   8.534  1.2247 -2.0184 -0.5449
  138SAPE  H16Y15079   7.177   5.870   8.476  1.0470  0.9839 -1.1451
  138SAPE  C31715080   7.292   5.806   8.647 -0.7490 -0.3003 -0.2379
  138SAPE  H17X15081   7.232   5.719   8.683  0.3659 -1.4970 -1.1627
  138SAPE  H17Y15082   7.349   5.843   8.735  1.8909 -2.4756 -0.8724
  138SAPE  C31815083   7.417   5.765   8.556  0.4680 -0.7141  0.6824
  138SAPE  H18X15084   7.488   5.848   8.534  1.5479 -1.0147  2.7647
  138SAPE  H18Y15085   7.384   5.731   8.455 -0.8928  0.4487  0.7012
  138SAPE  H18Z15086   7.479   5.681   8.593  0.0200 -1.4901 -0.2761
  139SAPE     N15087   5.859   2.478  10.594  0.3442 -0.3711  0.3625
  139SAPE   HN115088   5.922   2.508  10.518  0.8624  0.7049  1.1820
  139SAPE   HN215089   5.899   2.400  10.650 -1.8379 -1.0833  1.0654
  139SAPE   HN315090   5.777   2.445  10.540  0.9810 -1.8989  0.2771
  139SAPE   C1215091   5.825   2.596  10.687  0.1920 -0.0000 -0.4549
  139SAPE  H12A15092   5.751   2.554  10.759  2.2118 -0.9440  1.1709
  139SAPE  H12B15093   5.793   2.682  10.623 -0.3627 -1.3192 -2.0366
  139SAPE   C1115094   5.955   2.627  10.775  0.3892 -0.2017 -0.4648
  139SAPE  H11A15095   5.988   2.540  10.835 -2.7238 -0.6937  0.7096
  139SAPE  H11B15096   5.926   2.707  10.847 -0.1228 -1.0582  0.3052
  139SAPE     P15097   6.092   2.813  10.654 -0.4787 -0.1909  0.2304
  139SAPE   O1315098   5.977   2.881  10.599 -0.2519 -0.1199  0.1756
  139SAPE   O1415099   6.168   2.876  10.767 -0.8753  0.4200 -0.0339
  139SAPE   O1215100   6.059   2.664  10.687 -0.3373 -0.2583  0.0936
  139SAPE   O1115101   6.200   2.807  10.547 -0.3207 -0.0226  0.5663
  139SAPE    C115102   6.304   2.706  10.551  0.3824 -0.0398  0.1492
  139SAPE    HA15103   6.401   2.750  10.516  0.2495 -1.3135 -2.0076
  139SAPE    HB15104   6.317   2.663  10.652  1.5689  1.2892  0.6059
  139SAPE    C215105   6.258   2.599  10.446 -0.4804 -0.5451 -0.1596
  139SAPE    HS15106   6.175   2.549  10.500 -1.7334  2.4207  0.8632
  139SAPE   O2115107   6.372   2.520  10.418 -0.2854 -0.9443 -0.2645
  139SAPE   C2115108   6.338   2.389  10.418  0.1238  0.1989  0.2046
  139SAPE   O2215109   6.227   2.342  10.431  0.0007 -0.4267  0.0181
  139SAPE   C2215110   6.457   2.320  10.359  0.2241 -0.1369 -0.2343
  139SAPE   H2R15111   6.490   2.380  10.272 -0.4878  1.1740  0.3752
  139SAPE   H2S15112   6.537   2.332  10.435  0.1417  0.0366 -0.1732
  139SAPE    C315113   6.208   2.662  10.313  0.3564  0.3991  1.4189
  139SAPE    HX15114   6.290   2.716  10.262 -1.8853  2.6073 -0.0394
  139SAPE    HY15115   6.138   2.747  10.330  0.9577  1.5121 -1.2679
  139SAPE   O3115116   6.150   2.559  10.233  0.1041  0.5145 -0.1348
  139SAPE   C3115117   6.027   2.522  10.249  0.6242  0.2695 -0.0737
  139SAPE   O3215118   5.961   2.545  10.347 -0.5474 -0.6569 -0.6784
  139SAPE   C3215119   5.984   2.427  10.133  0.5193 -0.6340 -0.0236
  139SAPE   H2X15120   6.083   2.395  10.092  0.2198 -1.0425 -0.4449
  139SAPE   H2Y15121   5.932   2.493  10.061  3.0061  1.6425  0.1155
  139SAPE   C2315122   6.418   2.172  10.328 -0.3066  0.2851 -0.2012
  139SAPE   H3R15123   6.347   2.137  10.406  1.7511 -1.1443  1.1276
  139SAPE   H3S15124   6.511   2.112  10.323  0.2937  1.2822 -1.3438
  139SAPE   C2415125   6.339   2.160  10.197  0.6607  0.7461  0.5442
  139SAPE   H4R15126   6.388   2.202  10.106 -0.2192 -0.7305 -0.6508
  139SAPE   H4S15127   6.248   2.225  10.205 -0.7820 -0.7082 -2.3452
  139SAPE   C2515128   6.284   2.021  10.175  0.7215  0.3660 -0.1751
  139SAPE   H5R15129   6.218   1.974  10.249  0.5380 -1.2163 -1.2799
  139SAPE   C2615130   6.320   1.949  10.069  0.2338  0.1016  0.0132
  139SAPE   H6R15131   6.264   1.856  10.050 -0.1544  0.2424  0.4480
  139SAPE   C2715132   6.417   1.995   9.962 -0.1755 -0.4082  0.1179
  139SAPE   H7R15133   6.504   2.030  10.023  2.1642 -1.3342 -2.4811
  139SAPE   H7S15134   6.369   2.082   9.914 -0.2435 -0.3329  0.3208
  139SAPE   C2815135   6.455   1.879   9.868 -0.1491  0.1461  0.6599
  139SAPE   H8R15136   6.502   1.793   9.920  0.1207  0.0189  0.2098
  139SAPE   C2915137   6.453   1.876   9.734  0.2682 -0.3038 -0.6562
  139SAPE   H9R15138   6.483   1.784   9.682 -1.6018 -0.6488 -1.2038
  139SAPE  C21015139   6.404   1.990   9.650  0.1182  0.6344  0.7850
  139SAPE  H10R15140   6.473   2.009   9.565 -1.6124  3.0263 -0.1880
  139SAPE  H10S15141   6.422   2.089   9.699 -1.3598  2.1061 -1.4521
  139SAPE  C21115142   6.257   1.980   9.616  0.5253 -0.7929 -0.1673
  139SAPE  H11R15143   6.191   1.955   9.701  0.6468 -0.3958  0.0462
  139SAPE  C21215144   6.207   2.016   9.494 -0.6360  0.0514 -0.1969
  139SAPE  H12R15145   6.099   2.012   9.479 -0.9558  0.0715  1.8624
  139SAPE  C21315146   6.279   2.069   9.372 -0.1561  0.0429 -0.3061
  139SAPE  H13R15147   6.385   2.086   9.399 -0.5509  0.5457  0.9982
  139SAPE  H13S15148   6.234   2.168   9.349  1.0699  0.8224  0.5453
  139SAPE  C21415149   6.264   1.983   9.250 -0.3758  0.4908 -0.1278
  139SAPE  H14R15150   6.233   1.884   9.286  2.3820 -0.6106 -0.5316
  139SAPE  C21515151   6.267   2.024   9.113 -0.0894 -0.0758 -0.2755
  139SAPE  H15R15152   6.254   1.954   9.029  1.1754  1.3146 -1.6973
  139SAPE  C21615153   6.282   2.164   9.068 -0.5625 -0.6356 -0.3275
  139SAPE  H16R15154   6.326   2.233   9.143 -0.0818 -0.5232 -0.7081
  139SAPE  H16S15155   6.182   2.210   9.051 -0.0131  1.0425  0.7760
  139SAPE  C21715156   6.351   2.177   8.934 -0.2970  0.1487  0.2264
  139SAPE  H17R15157   6.324   2.278   8.897 -1.0778 -0.2407 -0.3147
  139SAPE  H17S15158   6.300   2.107   8.864  1.4808  0.1736 -1.1848
  139SAPE  C21815159   6.498   2.145   8.927  0.1079  0.3650 -0.0588
  139SAPE  H18R15160   6.518   2.036   8.916 -1.2570  0.2007 -1.1576
  139SAPE  H18S15161   6.541   2.167   9.027  0.9411  0.2268 -0.3743
  139SAPE  C21915162   6.570   2.227   8.823 -0.2799  0.0007  0.3188
  139SAPE  H19R15163   6.679   2.211   8.840 -0.4851 -5.9074 -1.7209
  139SAPE  H19S15164   6.563   2.334   8.852 -0.8842 -0.4071  1.7717
  139SAPE  C22015165   6.538   2.194   8.677  0.4693  0.1189 -0.1666
  139SAPE  H20R15166   6.533   2.084   8.664  3.8906 -0.0991 -0.6262
  139SAPE  H20S15167   6.627   2.226   8.619  2.1734 -1.2075  1.5901
  139SAPE  H20T15168   6.445   2.248   8.647 -0.8370 -1.4362  0.9155
  139SAPE   C3315169   5.901   2.301  10.183 -0.1141 -0.3106  0.2224
  139SAPE   H3X15170   5.802   2.334  10.222 -0.4735  0.4681 -1.2771
  139SAPE   H3Y15171   5.959   2.244  10.259  0.0310 -1.7275 -0.9175
  139SAPE   C3415172   5.873   2.201  10.076  0.2548  1.1817 -0.0360
  139SAPE   H4X15173   5.803   2.124  10.115  0.5192  0.2919 -1.2827
  139SAPE   H4Y15174   5.962   2.144  10.043 -1.1390 -0.3476 -1.3188
  139SAPE   C3515175   5.821   2.271   9.950 -0.1537  0.6410  0.0819
  139SAPE   H5X15176   5.909   2.332   9.920  0.3247 -0.0654  0.0335
  139SAPE   H5Y15177   5.732   2.331   9.978  0.3551  2.4145 -1.8142
  139SAPE   C3615178   5.790   2.171   9.836  0.1802 -0.2338 -0.9139
  139SAPE   H6X15179   5.699   2.111   9.855 -1.1174  1.5131 -1.3110
  139SAPE   H6Y15180   5.879   2.105   9.824 -1.3347 -2.5705  0.0975
  139SAPE   C3715181   5.755   2.246   9.711  1.0141 -0.8135  0.0942
  139SAPE   H7X15182   5.811   2.341   9.709  2.1651 -1.4803 -0.6287
  139SAPE   H7Y15183   5.646   2.270   9.714  1.8245  3.4546  1.0218
  139SAPE   C3815184   5.799   2.174   9.586  0.9162  0.5564 -0.4034
  139SAPE   H8X15185   5.761   2.070   9.583  0.3034  0.7314  0.7259
  139SAPE   H8Y15186   5.910   2.168   9.583  0.8284 -2.4645 -0.7194
  139SAPE   C3915187   5.739   2.237   9.468  0.1601 -0.6139  0.1593
  139SAPE   H9X15188   5.761   2.346   9.467  0.0123 -0.5810  0.3361
  139SAPE   H9Y15189   5.629   2.218   9.462 -0.2035  0.8382  1.5013
  139SAPE  C31015190   5.799   2.186   9.335  0.2917  0.7727  0.2834
  139SAPE  H10X15191   5.776   2.078   9.323 -1.3176  1.0651  0.5763
  139SAPE  H10Y15192   5.909   2.190   9.349  0.5820  1.5829 -1.7789
  139SAPE  C31115193   5.755   2.251   9.206 -0.1000 -0.4615 -0.4633
  139SAPE  H11X15194   5.775   2.360   9.207 -0.8619 -0.3135  0.3685
  139SAPE  H11Y15195   5.647   2.231   9.186 -0.7998  2.2203  0.2631
  139SAPE  C31215196   5.832   2.196   9.081 -0.0469  0.8696  0.2215
  139SAPE  H12X15197   5.831   2.085   9.085 -0.7354  0.8850  0.6842
  139SAPE  H12Y15198   5.939   2.226   9.085 -0.2793  1.6144  1.2546
  139SAPE  C31315199   5.770   2.270   8.957 -0.3469  0.3265 -0.4093
  139SAPE  H13X15200   5.793   2.378   8.966  3.1073 -0.0631 -2.7200
  139SAPE  H13Y15201   5.660   2.255   8.961 -0.1495 -1.5934 -1.2226
  139SAPE  C31415202   5.806   2.221   8.812  0.4480 -0.1987 -0.5127
  139SAPE  H14X15203   5.739   2.229   8.724  3.1601 -1.2902 -2.8475
  139SAPE  H14Y15204   5.793   2.113   8.835 -0.3205  0.4612  2.7504
  139SAPE  C31515205   5.939   2.256   8.754 -0.1662 -0.9781 -0.1447
  139SAPE  H15X15206   6.030   2.224   8.809  0.8708 -3.0516 -2.8310
  139SAPE  H15Y15207   5.929   2.367   8.747  2.0046 -0.7559 -0.2842
  139SAPE  C31615208   5.966   2.187   8.621  0.7644 -1.1849  0.2510
  139SAPE  H16X15209   6.074   2.183   8.595  0.6172  1.7616 -1.1369
  139SAPE  H16Y15210   5.935   2.081   8.632  1.1787 -1.5586 -1.7727
  139SAPE  C31715211   5.895   2.265   8.508  0.3176  0.1424 -0.0989
  139SAPE  H17X15212   5.950   2.356   8.478 -0.2184  0.8191  0.9098
  139SAPE  H17Y15213   5.793   2.298   8.535  0.5724  2.1131 -1.3757
  139SAPE  C31815214   5.886   2.191   8.381 -0.6333  0.6664 -0.5994
  139SAPE  H18X15215   5.835   2.092   8.383  0.8527 -0.1335 -0.4276
  139SAPE  H18Y15216   5.990   2.172   8.346 -0.2627  1.7735 -0.1484
  139SAPE  H18Z15217   5.859   2.255   8.294 -0.8532  0.2813 -0.8159
  140SAPE     N15218   0.647   0.218  11.069 -0.1697 -0.9322  0.6540
  140SAPE   HN115219   0.675   0.144  11.002  2.8425 -0.6930  1.4883
  140SAPE   HN215220   0.727   0.230  11.135 -1.1838  1.5918  1.5506
  140SAPE   HN315221   0.561   0.197  11.123 -0.3722  0.1263  0.7603
  140SAPE   C1215222   0.621   0.350  10.991 -0.1409  0.4133 -0.0644
  140SAPE  H12A15223   0.598   0.431  11.063  0.4987  1.2926 -0.8352
  140SAPE  H12B15224   0.535   0.333  10.922 -0.2883  2.9504 -0.5970
  140SAPE   C1115225   0.752   0.405  10.914  0.5004 -0.5740  0.1171
  140SAPE  H11A15226   0.733   0.488  10.843  0.3678 -1.5908 -1.0930
  140SAPE  H11B15227   0.792   0.320  10.855  0.5535  0.2585 -1.0795
  140SAPE     P15228   1.002   0.439  10.979  0.1436 -0.2151  0.0915
  140SAPE   O1315229   1.061   0.556  11.052 -0.1304 -0.1968 -0.2852
  140SAPE   O1415230   1.067   0.315  11.023 -0.1115 -0.3200 -0.0736
  140SAPE   O1215231   0.848   0.449  11.010 -0.0584  0.3461 -0.2501
  140SAPE   O1115232   1.008   0.459  10.823 -0.2860 -0.0224 -0.1939
  140SAPE    C115233   1.122   0.470  10.747  0.1228  0.3319 -0.2538
  140SAPE    HA15234   1.168   0.571  10.747  0.9234  0.0077  1.2069
  140SAPE    HB15235   1.196   0.400  10.792  0.0466  0.8180  0.6398
  140SAPE    C215236   1.100   0.429  10.600  0.6816  0.0986 -0.2448
  140SAPE    HS15237   1.082   0.320  10.596  0.9933  0.0880 -1.6523
  140SAPE   O2115238   1.216   0.471  10.526 -0.4362  0.0171  0.5654
  140SAPE   C2115239   1.315   0.380  10.531  0.0812 -0.2689  0.0894
  140SAPE   O2215240   1.319   0.280  10.604 -1.0994 -0.1275  0.6894
  140SAPE   C2215241   1.425   0.432  10.446 -0.8099 -0.0082  0.4274
  140SAPE   H2R15242   1.384   0.448  10.344  0.6582  1.3046 -0.0096
  140SAPE   H2S15243   1.461   0.527  10.491 -2.4489 -0.2234  2.3128
  140SAPE    C315244   0.969   0.502  10.549 -0.6527  0.6580 -0.4715
  140SAPE    HX15245   0.993   0.610  10.555 -0.3698  0.5477  0.6926
  140SAPE    HY15246   0.887   0.484  10.621 -0.0745  0.5476  0.1788
  140SAPE   O3115247   0.940   0.444  10.418 -0.0942 -0.1571 -0.1570
  140SAPE   C3115248   0.856   0.514  10.344  0.5467 -0.2025  0.4011
  140SAPE   O3215249   0.789   0.605  10.390 -0.4607  0.1087  0.0172
  140SAPE   C3215250   0.862   0.470  10.198  0.5565  0.3871 -0.1504
  140SAPE   H2X15251   0.905   0.369  10.186  0.5790  0.5058 -1.1508
  140SAPE   H2Y15252   0.931   0.539  10.144  0.3537 -1.4639 -2.9904
  140SAPE   C2315253   1.551   0.348  10.450  0.1776  0.0154  0.1629
  140SAPE   H3R15254   1.518   0.245  10.427  3.0230 -0.5817 -1.7349
  140SAPE   H3S15255   1.597   0.348  10.551  2.1613 -1.6357 -0.6758
  140SAPE   C2415256   1.655   0.389  10.346 -0.5671 -0.7585  0.3239
  140SAPE   H4R15257   1.747   0.339  10.380 -0.0548  1.2834  2.1815
  140SAPE   H4S15258   1.665   0.500  10.355 -0.2774 -0.8070  0.6294
  140SAPE   C2515259   1.627   0.346  10.209  0.4168 -0.2498  1.0733
  140SAPE   H5R15260   1.648   0.240  10.189  1.3782  0.1653 -0.2832
  140SAPE   C2615261   1.570   0.414  10.112 -0.0179 -0.4879 -0.6166
  140SAPE   H6R15262   1.567   0.371  10.011  1.5038  0.7072 -1.2098
  140SAPE   C2715263   1.513   0.559  10.105 -0.2745  0.5499 -0.6364
  140SAPE   H7R15264   1.482   0.594  10.206 -0.9171 -2.4283  0.2976
  140SAPE   H7S15265   1.424   0.545  10.040  0.1778  0.7203 -1.2975
  140SAPE   C2815266   1.611   0.645  10.039  0.0185 -0.7491  0.7008
  140SAPE   H8R15267   1.665   0.708  10.111 -1.5407 -0.5990  1.7939
  140SAPE   C2915268   1.647   0.668   9.905  0.4546 -0.0971 -0.6532
  140SAPE   H9R15269   1.720   0.747   9.881  0.3896  0.0725 -0.2917
  140SAPE  C21015270   1.589   0.583   9.790  0.2603 -0.1725 -0.0269
  140SAPE  H10R15271   1.517   0.505   9.823 -1.2367  1.0227 -0.3584
  140SAPE  H10S15272   1.680   0.531   9.753 -1.0125 -1.9033 -0.8132
  140SAPE  C21115273   1.503   0.662   9.698  0.0279  0.1278  0.5325
  140SAPE  H11R15274   1.407   0.699   9.737  0.8777  2.3805  0.6032
  140SAPE  C21215275   1.531   0.691   9.568 -0.0127  0.1185  0.0585
  140SAPE  H12R15276   1.451   0.745   9.515 -1.1711  0.1351  1.7343
  140SAPE  C21315277   1.651   0.644   9.481  0.4482 -1.5022  0.3331
  140SAPE  H13R15278   1.714   0.561   9.519  0.9684 -1.7301 -0.9610
  140SAPE  H13S15279   1.716   0.734   9.469  0.8707 -1.9560 -0.9181
  140SAPE  C21415280   1.601   0.594   9.351 -0.4918  0.0052  0.6824
  140SAPE  H14R15281   1.566   0.490   9.357 -0.2274 -0.1694 -0.5580
  140SAPE  C21515282   1.584   0.670   9.240  0.7157  0.8140 -0.1993
  140SAPE  H15R15283   1.550   0.619   9.148 -1.6522 -2.5999  2.2875
  140SAPE  C21615284   1.620   0.811   9.226  1.1264 -0.3856 -0.2595
  140SAPE  H16R15285   1.695   0.841   9.302  2.1328 -0.7247 -1.0957
  140SAPE  H16S15286   1.526   0.868   9.243  0.0176 -2.1598 -0.1761
  140SAPE  C21715287   1.669   0.865   9.088 -0.2641 -0.2776 -0.8809
  140SAPE  H17R15288   1.754   0.800   9.058  0.4610  1.5945 -3.2589
  140SAPE  H17S15289   1.718   0.963   9.111  0.3752 -1.1041  1.6134
  140SAPE  C21815290   1.579   0.865   8.969  0.1058  0.2763  0.1621
  140SAPE  H18R15291   1.621   0.946   8.905 -1.8963  0.5659 -0.8452
  140SAPE  H18S15292   1.478   0.899   8.999  0.4926  1.0618  0.6393
  140SAPE  C21915293   1.564   0.736   8.876 -0.0825  0.0388  0.2686
  140SAPE  H19R15294   1.486   0.671   8.921 -1.0887  0.2631 -1.1120
  140SAPE  H19S15295   1.657   0.675   8.874 -1.6953 -2.5754  0.1380
  140SAPE  C22015296   1.531   0.776   8.736  0.3253 -0.3775  0.1671
  140SAPE  H20R15297   1.519   0.680   8.681 -0.2093  0.0251 -0.4398
  140SAPE  H20S15298   1.606   0.835   8.680  0.8583  1.2274  2.4088
  140SAPE  H20T15299   1.445   0.844   8.716  0.1566 -0.2974  1.1069
  140SAPE   C3315300   0.722   0.468  10.131 -0.7109 -0.2311 -0.3165
  140SAPE   H3X15301   0.682   0.572  10.122  0.9283  0.5331  0.6722
  140SAPE   H3Y15302   0.649   0.412  10.194 -0.9990 -0.1547 -0.5773
  140SAPE   C3415303   0.728   0.397   9.997 -0.2143  0.7380 -0.3748
  140SAPE   H4X15304   0.627   0.356   9.977 -0.2599  0.8261 -0.3229
  140SAPE   H4Y15305   0.793   0.307   9.997 -1.0816  0.0831 -1.5721
  140SAPE   C3515306   0.773   0.489   9.881 -0.1536 -0.5881 -0.6832
  140SAPE   H5X15307   0.866   0.547   9.895 -0.8698  0.3934  0.2864
  140SAPE   H5Y15308   0.695   0.567   9.895 -0.5639 -1.3154  1.6313
  140SAPE   C3615309   0.779   0.420   9.750 -0.3035  0.6157  0.4196
  140SAPE   H6X15310   0.684   0.362   9.743  0.4198 -0.5510 -0.1119
  140SAPE   H6Y15311   0.866   0.352   9.740 -0.1986  0.5507  1.6814
  140SAPE   C3715312   0.766   0.521   9.634  0.0332  0.4696 -0.2726
  140SAPE   H7X15313   0.859   0.581   9.630 -0.2044  0.8784  0.1033
  140SAPE   H7Y15314   0.686   0.598   9.642  1.4131  2.1733 -2.0631
  140SAPE   C3815315   0.751   0.453   9.500  0.2209 -0.3946  1.0769
  140SAPE   H8X15316   0.663   0.385   9.497  0.6500 -0.9289 -0.4428
  140SAPE   H8Y15317   0.836   0.386   9.474 -0.5949 -1.4217  0.9947
  140SAPE   C3915318   0.735   0.554   9.380 -0.0273 -0.4356  0.0285
  140SAPE   H9X15319   0.824   0.619   9.382 -0.6833  0.5205 -1.0538
  140SAPE   H9Y15320   0.646   0.616   9.404  0.4979  0.9720 -1.5442
  140SAPE  C31015321   0.730   0.486   9.242 -0.0510 -0.2132 -0.0315
  140SAPE  H10X15322   0.634   0.430   9.242 -1.1901  1.6314 -1.4402
  140SAPE  H10Y15323   0.814   0.415   9.226  0.5721  0.8597 -1.8263
  140SAPE  C31115324   0.728   0.586   9.126  0.1506 -0.4544 -0.0685
  140SAPE  H11X15325   0.819   0.650   9.130 -0.3747  0.2500  1.1259
  140SAPE  H11Y15326   0.641   0.653   9.145  0.3630 -0.3772  0.6269
  140SAPE  C31215327   0.703   0.527   8.992 -0.7534 -0.3839  0.0352
  140SAPE  H12X15328   0.599   0.490   8.988 -1.2305  0.9826 -0.8552
  140SAPE  H12Y15329   0.780   0.447   8.989  1.9986  2.0948 -2.9129
  140SAPE  C31315330   0.724   0.618   8.868 -0.4267  0.4087 -0.6327
  140SAPE  H13X15331   0.821   0.672   8.876  0.0901 -0.7806  4.0368
  140SAPE  H13Y15332   0.635   0.684   8.867 -0.5850  0.3139  1.6582
  140SAPE  C31415333   0.730   0.536   8.735  0.5541 -0.1455 -0.3800
  140SAPE  H14X15334   0.640   0.471   8.725 -0.5416  1.3759 -0.8551
  140SAPE  H14Y15335   0.819   0.471   8.746  0.4603 -0.3215 -0.6355
  140SAPE  C31515336   0.731   0.623   8.610  0.1890  0.3656 -0.6991
  140SAPE  H15X15337   0.744   0.541   8.536  0.2066 -2.4333  2.1855
  140SAPE  H15Y15338   0.836   0.659   8.604  0.3020  0.0344 -0.7683
  140SAPE  C31615339   0.609   0.714   8.587  0.3157 -0.1033 -0.2247
  140SAPE  H16X15340   0.606   0.794   8.664  0.8227  2.2356 -2.5173
  140SAPE  H16Y15341   0.515   0.660   8.611  1.7685 -2.2199  1.0633
  140SAPE  C31715342   0.594   0.773   8.448  0.0217 -0.1254 -0.8903
  140SAPE  H17X15343   0.586   0.697   8.367 -0.2820  0.4510 -1.4047
  140SAPE  H17Y15344   0.678   0.844   8.431  0.3168  0.3174  1.8857
  140SAPE  C31815345   0.469   0.862   8.445 -1.1852  0.6725 -0.2076
  140SAPE  H18X15346   0.370   0.818   8.472 -1.2781  0.7728 -0.3777
  140SAPE  H18Y15347   0.449   0.920   8.352 -0.8621  0.3030 -0.5134
  140SAPE  H18Z15348   0.489   0.941   8.520  2.0908  1.2307 -1.5129
  141SAPE     N15349   1.300   2.117  10.896 -0.1143 -0.2008  0.2984
  141SAPE   HN115350   1.319   2.015  10.898  0.5218 -0.0735  1.1203
  141SAPE   HN215351   1.382   2.175  10.922 -0.4834  1.4991 -2.0148
  141SAPE   HN315352   1.224   2.139  10.964  1.1111 -0.3149  1.7368
  141SAPE   C1215353   1.269   2.158  10.753  0.1725 -0.4018  0.3856
  141SAPE  H12A15354   1.163   2.126  10.738  0.3499 -2.3983  2.7310
  141SAPE  H12B15355   1.335   2.110  10.678 -0.8163  1.7047 -1.9806
  141SAPE   C1115356   1.286   2.310  10.724 -0.1338  0.0341 -0.4322
  141SAPE  H11A15357   1.255   2.324  10.618  2.6445  0.5719 -1.2624
  141SAPE  H11B15358   1.392   2.337  10.741  0.1457 -1.4040  0.2442
  141SAPE     P15359   1.055   2.431  10.776 -0.4076  0.0679  0.0257
  141SAPE   O1315360   0.985   2.307  10.750  0.1613  0.1880 -0.2616
  141SAPE   O1415361   1.004   2.520  10.883  0.5033  0.0516 -0.5162
  141SAPE   O1215362   1.211   2.394  10.809 -0.8316 -0.6316  0.0428
  141SAPE   O1115363   1.074   2.505  10.639  0.1168 -0.1734 -0.1421
  141SAPE    C115364   1.155   2.614  10.623  0.1818  0.0720 -0.1762
  141SAPE    HA15365   1.209   2.635  10.717  2.1099 -2.4392 -0.6016
  141SAPE    HB15366   1.234   2.580  10.552  2.9400  1.2680  2.1199
  141SAPE    C215367   1.076   2.740  10.575 -0.5893 -0.4550  0.2591
  141SAPE    HS15368   1.001   2.747  10.656 -0.7121  0.2379  0.0918
  141SAPE   O2115369   1.007   2.708  10.445  0.4155  0.0539 -0.3722
  141SAPE   C2115370   0.910   2.785  10.426  0.8050  0.8916  0.5023
  141SAPE   O2215371   0.871   2.876  10.496  0.2143  0.0497 -0.5851
  141SAPE   C2215372   0.853   2.750  10.285 -0.2214 -0.0978  0.0534
  141SAPE   H2R15373   0.927   2.797  10.217  2.0670  0.5602  2.8490
  141SAPE   H2S15374   0.873   2.642  10.264  0.9067  0.5762 -2.8641
  141SAPE    C315375   1.171   2.860  10.564  0.2003 -0.2410 -0.9679
  141SAPE    HX15376   1.207   2.873  10.668 -1.9048 -1.1873 -0.0804
  141SAPE    HY15377   1.107   2.950  10.552 -0.0114 -0.4918 -1.7953
  141SAPE   O3115378   1.282   2.838  10.470  0.0213  0.4147  0.0162
  141SAPE   C3115379   1.266   2.901  10.355 -0.3439  0.3319 -1.1933
  141SAPE   O3215380   1.179   2.979  10.333  0.0938  0.1258  0.1892
  141SAPE   C3215381   1.381   2.876  10.266  0.1658  0.0812 -0.0959
  141SAPE   H2X15382   1.444   2.794  10.307  0.2505  0.0085 -0.3680
  141SAPE   H2Y15383   1.436   2.972  10.271  0.0509  0.3670 -2.7762
  141SAPE   C2315384   0.708   2.784  10.258 -0.6142  0.2802  0.1764
  141SAPE   H3R15385   0.675   2.883  10.296  2.4229  1.3392  0.3044
  141SAPE   H3S15386   0.647   2.707  10.310 -0.8593 -0.0312 -0.5600
  141SAPE   C2415387   0.661   2.782  10.111  0.4461 -0.0111  0.2835
  141SAPE   H4R15388   0.727   2.844  10.046 -1.7649  2.1027 -0.0805
  141SAPE   H4S15389   0.571   2.847  10.109  1.4261  1.3739 -0.4685
  141SAPE   C2515390   0.620   2.653  10.040 -0.0886  0.1978  0.3486
  141SAPE   H5R15391   0.593   2.569  10.105  0.8684 -0.6918 -0.3802
  141SAPE   C2615392   0.652   2.626   9.912 -0.5255  0.5413  0.4278
  141SAPE   H6R15393   0.621   2.531   9.867 -0.3126  1.8992 -2.8633
  141SAPE   C2715394   0.725   2.717   9.814  1.0378 -0.4629  0.2928
  141SAPE   H7R15395   0.780   2.665   9.732  3.1673  1.7550  0.1782
  141SAPE   H7S15396   0.810   2.760   9.871 -0.1914  2.3121  0.2190
  141SAPE   C2815397   0.642   2.832   9.760 -0.5028 -0.1323  0.7202
  141SAPE   H8R15398   0.634   2.914   9.834  2.0610 -0.2685  1.2391
  141SAPE   C2915399   0.581   2.829   9.642  0.6855 -0.1703  0.0186
  141SAPE   H9R15400   0.517   2.912   9.608 -1.3694 -1.7184 -0.0606
  141SAPE  C21015401   0.582   2.705   9.545 -0.4432  0.0036  0.1740
  141SAPE  H10R15402   0.483   2.693   9.495 -0.1600  1.7992 -0.8807
  141SAPE  H10S15403   0.597   2.619   9.614  0.0008 -1.2561 -1.4327
  141SAPE  C21115404   0.686   2.730   9.440  0.5895 -0.4691  0.0201
  141SAPE  H11R15405   0.785   2.694   9.470  0.0667 -0.3103  2.0849
  141SAPE  C21215406   0.667   2.798   9.322 -0.2643  0.1258 -0.9299
  141SAPE  H12R15407   0.747   2.820   9.251 -1.2519  2.2259 -1.4763
  141SAPE  C21315408   0.534   2.856   9.271 -0.6325 -0.2080 -0.2696
  141SAPE  H13R15409   0.481   2.905   9.356  1.8462 -0.1296  1.3336
  141SAPE  H13S15410   0.470   2.772   9.237 -2.2866  0.8763  0.0407
  141SAPE  C21415411   0.533   2.958   9.158  0.6766  0.2986 -0.3690
  141SAPE  H14R15412   0.560   3.056   9.200 -1.6578  0.3180  1.2370
  141SAPE  C21515413   0.519   2.930   9.030  0.5834  0.2022  0.1307
  141SAPE  H15R15414   0.513   3.012   8.957 -0.3479  0.0440  0.0179
  141SAPE  C21615415   0.504   2.787   8.981 -0.1042  0.9657 -0.0976
  141SAPE  H16R15416   0.419   2.736   9.031  1.3053  0.4337  1.8754
  141SAPE  H16S15417   0.595   2.730   9.009  0.2744  1.3499 -0.5303
  141SAPE  C21715418   0.491   2.788   8.822 -0.2587 -0.3813  0.2865
  141SAPE  H17R15419   0.524   2.684   8.803 -1.1559 -0.6227 -0.0298
  141SAPE  H17S15420   0.569   2.855   8.780 -0.4677  0.1801  0.7737
  141SAPE  C21815421   0.351   2.819   8.754  0.2883 -0.1829 -0.0695
  141SAPE  H18R15422   0.323   2.924   8.777 -0.8638 -0.3322 -0.7061
  141SAPE  H18S15423   0.278   2.750   8.803 -0.5994  1.2886  0.7802
  141SAPE  C21915424   0.352   2.787   8.601  0.6269  0.0772 -0.1406
  141SAPE  H19R15425   0.416   2.700   8.577 -0.3231 -0.7086  0.1459
  141SAPE  H19S15426   0.397   2.878   8.555 -0.1894 -0.5789 -2.3668
  141SAPE  C22015427   0.206   2.767   8.548  0.4084  0.4307 -0.0135
  141SAPE  H20R15428   0.191   2.806   8.445  0.7188  0.7532  0.0627
  141SAPE  H20S15429   0.132   2.813   8.617 -0.5418 -0.7926 -0.1756
  141SAPE  H20T15430   0.173   2.662   8.536 -2.4780  1.1874  0.4469
  141SAPE   C3315431   1.349   2.849  10.115 -0.1085  0.1926  0.0576
  141SAPE   H3X15432   1.287   2.757  10.119  0.4777 -0.1896  0.5430
  141SAPE   H3Y15433   1.441   2.821  10.060 -0.8886 -3.6852  0.4495
  141SAPE   C3415434   1.276   2.964  10.044 -0.4170 -1.1555  0.1307
  141SAPE   H4X15435   1.338   3.056  10.054  2.2422 -2.7617 -0.4659
  141SAPE   H4Y15436   1.171   2.979  10.077 -0.3678  0.8391 -0.5364
  141SAPE   C3515437   1.266   2.929   9.895 -0.0554 -0.3071 -0.5970
  141SAPE   H5X15438   1.219   2.829   9.881 -1.1484  0.2592 -1.0774
  141SAPE   H5Y15439   1.365   2.915   9.847  0.4872  0.3927  0.2734
  141SAPE   C3615440   1.193   3.047   9.817 -0.2136 -0.8385  0.5780
  141SAPE   H6X15441   1.266   3.128   9.797  1.4529 -2.4854 -0.4122
  141SAPE   H6Y15442   1.103   3.079   9.874 -0.7388 -1.9012  0.3748
  141SAPE   C3715443   1.154   2.996   9.674 -0.3441  0.3563 -0.7550
  141SAPE   H7X15444   1.066   2.930   9.686  0.3867 -0.2952  1.3159
  141SAPE   H7Y15445   1.246   2.944   9.641  0.5389  0.6210  1.1664
  141SAPE   C3815446   1.107   3.120   9.581 -0.7973  0.2268 -0.3343
  141SAPE   H8X15447   1.198   3.183   9.581  0.3817 -1.4130 -0.0644
  141SAPE   H8Y15448   1.018   3.165   9.630 -1.3532 -1.1724 -0.0025
  141SAPE   C3915449   1.087   3.063   9.439  0.4517 -0.1387  0.4411
  141SAPE   H9X15450   0.990   3.009   9.441  0.5952 -0.4664 -0.7179
  141SAPE   H9Y15451   1.172   3.000   9.408  1.1774 -0.6371  3.1444
  141SAPE  C31015452   1.078   3.176   9.331 -0.0510  0.1224  0.0857
  141SAPE  H10X15453   1.170   3.238   9.333  0.9130 -1.2383 -0.4024
  141SAPE  H10Y15454   0.987   3.237   9.352  1.0049  1.4006  1.1191
  141SAPE  C31115455   1.071   3.124   9.189  0.2242 -0.2966  0.6682
  141SAPE  H11X15456   1.150   3.049   9.165  0.8212  0.1875  1.0885
  141SAPE  H11Y15457   1.077   3.211   9.121 -2.2577 -0.2991  0.3389
  141SAPE  C31215458   0.942   3.049   9.156 -0.0588 -0.6431 -0.1032
  141SAPE  H12X15459   0.856   3.117   9.174 -0.9101 -1.4681 -0.9566
  141SAPE  H12Y15460   0.934   2.974   9.237 -1.3381 -0.0789  0.3148
  141SAPE  C31315461   0.924   3.000   9.015  0.2757 -0.6761  0.0363
  141SAPE  H13X15462   0.922   3.095   8.958 -0.4566 -0.2506  0.7562
  141SAPE  H13Y15463   0.826   2.948   9.006 -0.7197  0.7768  1.8937
  141SAPE  C31415464   1.034   2.908   8.967  0.2357 -0.1356 -0.7867
  141SAPE  H14X15465   1.040   2.813   9.024  0.4489  0.0595 -0.4787
  141SAPE  H14Y15466   1.134   2.956   8.971 -0.0399  0.3674  0.5937
  141SAPE  C31515467   1.024   2.878   8.816 -0.3147 -0.1611  0.4692
  141SAPE  H15X15468   0.985   2.961   8.754 -1.6794 -2.0420 -1.3259
  141SAPE  H15Y15469   0.947   2.799   8.804 -0.4077 -0.0365  0.2512
  141SAPE  C31615470   1.148   2.818   8.759  0.5207  0.4841 -0.2931
  141SAPE  H16X15471   1.168   2.727   8.819 -0.5857 -1.0677 -2.1779
  141SAPE  H16Y15472   1.242   2.878   8.757 -0.3234  1.8586 -0.4943
  141SAPE  C31715473   1.134   2.759   8.614  0.0147 -0.0549  0.4926
  141SAPE  H17X15474   1.042   2.698   8.607 -1.4978  2.2273 -0.6349
  141SAPE  H17Y15475   1.216   2.693   8.576 -0.1754  0.0473 -0.0981
  141SAPE  C31815476   1.117   2.875   8.513  1.0928 -0.4738 -0.2152
  141SAPE  H18X15477   1.010   2.906   8.515  0.6845 -1.7656 -0.6145
  141SAPE  H18Y15478   1.136   2.837   8.410  1.0297  2.2593 -1.3099
  141SAPE  H18Z15479   1.183   2.959   8.542  0.3687 -0.4757  1.6142
  142SAPE     N15480   2.744   6.128  11.314  0.2686  0.1561 -0.4622
  142SAPE   HN115481   2.804   6.183  11.249  1.4482  2.3174  2.2390
  142SAPE   HN215482   2.746   6.171  11.408  0.5599 -2.7816  0.9988
  142SAPE   HN315483   2.779   6.031  11.331  0.6399  0.6359  1.8083
  142SAPE   C1215484   2.605   6.130  11.258 -1.2279  0.6136 -0.4752
  142SAPE  H12A15485   2.545   6.064  11.325 -0.0702  0.2565  0.2397
  142SAPE  H12B15486   2.612   6.082  11.158  0.1578  0.3686 -0.2715
  142SAPE   C1115487   2.539   6.269  11.273 -0.0314  0.1297  0.5854
  142SAPE  H11A15488   2.504   6.275  11.378  2.8303 -1.0833  1.7407
  142SAPE  H11B15489   2.449   6.258  11.209  0.5616 -0.2157 -0.2088
  142SAPE     P15490   2.582   6.509  11.210  0.1135 -0.3085  0.0253
  142SAPE   O1315491   2.452   6.531  11.281  0.4636 -0.3683  0.0818
  142SAPE   O1415492   2.694   6.594  11.251  0.2339  0.7023 -1.0223
  142SAPE   O1215493   2.630   6.366  11.221 -0.3899  0.0413  0.0538
  142SAPE   O1115494   2.563   6.516  11.057 -0.0095 -0.4918 -0.1164
  142SAPE    C115495   2.650   6.480  10.951  0.1822 -0.1385 -0.3635
  142SAPE    HA15496   2.643   6.562  10.876 -1.8738 -0.2998 -0.3984
  142SAPE    HB15497   2.758   6.466  10.973  0.4768  1.5590 -0.5790
  142SAPE    C215498   2.595   6.350  10.888 -0.5943  0.2562  0.1321
  142SAPE    HS15499   2.610   6.279  10.972 -1.4958  0.6098  0.6113
  142SAPE   O2115500   2.661   6.322  10.761 -0.0679 -0.1677  0.3621
  142SAPE   C2115501   2.675   6.199  10.733  0.0925  0.5170 -0.2334
  142SAPE   O2215502   2.653   6.104  10.810  0.3793  0.3599  0.3209
  142SAPE   C2215503   2.704   6.170  10.591 -0.3811 -0.6764 -0.3012
  142SAPE   H2R15504   2.737   6.064  10.584 -0.4449 -1.1443  3.7952
  142SAPE   H2S15505   2.621   6.201  10.524 -0.0332  1.8865  0.3308
  142SAPE    C315506   2.437   6.362  10.857  0.5341 -0.5382  0.0944
  142SAPE    HX15507   2.418   6.457  10.803  1.2744  1.0439  2.4634
  142SAPE    HY15508   2.380   6.386  10.949 -1.2079  1.8815 -1.4672
  142SAPE   O3115509   2.382   6.247  10.792 -0.4975  1.1467 -0.4468
  142SAPE   C3115510   2.355   6.141  10.877 -0.3602 -0.6715 -0.0166
  142SAPE   O3215511   2.373   6.143  10.997  0.3726  0.2382  0.2899
  142SAPE   C3215512   2.304   6.031  10.797 -1.8629  0.0978  0.3212
  142SAPE   H2X15513   2.198   6.016  10.824 -1.3968  1.0681  2.9988
  142SAPE   H2Y15514   2.343   5.938  10.844 -2.1133 -0.9608 -1.4710
  142SAPE   C2315515   2.831   6.249  10.528 -0.0473  0.0131 -0.1390
  142SAPE   H3R15516   2.850   6.211  10.426 -0.5452  0.2746 -0.3340
  142SAPE   H3S15517   2.916   6.216  10.591 -1.4128  0.9298  2.3680
  142SAPE   C2415518   2.808   6.397  10.506 -1.0424 -0.7959 -0.2831
  142SAPE   H4R15519   2.804   6.444  10.607 -0.6687  0.0628 -0.6626
  142SAPE   H4S15520   2.712   6.413  10.452 -0.3239  1.6565 -0.9656
  142SAPE   C2515521   2.920   6.470  10.434  0.3098 -0.1117 -0.1299
  142SAPE   H5R15522   3.022   6.463  10.475  0.3503 -0.3850 -0.2772
  142SAPE   C2615523   2.915   6.527  10.317 -0.1376 -0.0229  0.3996
  142SAPE   H6R15524   3.004   6.587  10.293  0.1891 -0.9729 -0.8857
  142SAPE   C2715525   2.794   6.563  10.229  1.2580 -0.5385 -0.2146
  142SAPE   H7R15526   2.725   6.476  10.233  0.0912  0.3867  0.7161
  142SAPE   H7S15527   2.830   6.573  10.125 -2.7590  0.2213 -1.7322
  142SAPE   C2815528   2.722   6.690  10.272 -0.1393  0.5626 -0.2884
  142SAPE   H8R15529   2.667   6.681  10.367 -1.4246 -0.9130 -1.1291
  142SAPE   C2915530   2.712   6.804  10.202  0.0387 -0.4725  0.7778
  142SAPE   H9R15531   2.656   6.891  10.238 -1.1206 -0.2766 -1.3749
  142SAPE  C21015532   2.774   6.827  10.066  0.3784  0.1954 -0.1660
  142SAPE  H10R15533   2.724   6.910  10.011  0.3120  0.2315 -0.0526
  142SAPE  H10S15534   2.747   6.735  10.011 -1.9133 -1.1557  2.9222
  142SAPE  C21115535   2.920   6.857  10.069  0.1811 -0.0270 -0.5462
  142SAPE  H11R15536   2.969   6.826  10.162 -0.4931 -1.9239 -0.7825
  142SAPE  C21215537   3.002   6.891   9.971  0.9025 -0.3047  0.8520
  142SAPE  H12R15538   3.110   6.895   9.987  1.1515  0.9272 -0.8583
  142SAPE  C21315539   2.968   6.910   9.820 -0.0990  0.1026 -0.2477
  142SAPE  H13R15540   2.860   6.892   9.803 -0.0230  0.1621 -0.8251
  142SAPE  H13S15541   3.014   6.833   9.755 -0.6488  0.0940 -0.6357
  142SAPE  C21415542   3.016   7.048   9.781 -0.3248 -0.8285 -0.2370
  142SAPE  H14R15543   3.021   7.120   9.864 -1.0255 -0.4554 -0.5037
  142SAPE  C21515544   3.060   7.095   9.658 -0.4017  0.3227 -0.2159
  142SAPE  H15R15545   3.088   7.199   9.637  2.2239 -0.3747 -0.5065
  142SAPE  C21615546   3.062   7.004   9.535  0.0820 -0.6039 -0.3674
  142SAPE  H16R15547   3.044   6.898   9.563  1.4324 -0.5943  0.6169
  142SAPE  H16S15548   3.162   6.997   9.487  1.6305  0.5869  2.4823
  142SAPE  C21715549   2.956   7.036   9.424 -0.2441  0.4151 -0.2372
  142SAPE  H17R15550   2.856   7.035   9.472  0.8195 -0.8520  2.1395
  142SAPE  H17S15551   2.972   6.963   9.341 -1.0390  1.1919 -1.0946
  142SAPE  C21815552   2.982   7.170   9.363 -0.3824  0.0872 -0.1769
  142SAPE  H18R15553   3.089   7.201   9.367 -0.2097 -0.2613 -1.5812
  142SAPE  H18S15554   2.927   7.242   9.426  0.8323  1.3182 -0.4858
  142SAPE  C21915555   2.913   7.189   9.224 -0.5368  0.2722 -0.4339
  142SAPE  H19R15556   2.808   7.155   9.228 -0.9830  1.4483 -1.3713
  142SAPE  H19S15557   2.955   7.113   9.154  1.2773 -0.2229  1.1028
  142SAPE  C22015558   2.918   7.326   9.162 -0.2450  0.3552 -0.9653
  142SAPE  H20R15559   2.854   7.338   9.072 -0.3326 -1.4760 -1.1805
  142SAPE  H20S15560   3.021   7.354   9.131 -0.3266  1.4815 -0.2669
  142SAPE  H20T15561   2.886   7.406   9.232 -1.2527 -1.5182  0.8215
  142SAPE   C3315562   2.341   6.037  10.648 -0.0337  0.1503  0.1387
  142SAPE   H3X15563   2.451   6.028  10.641  0.0856  1.5998 -0.1649
  142SAPE   H3Y15564   2.310   6.135  10.604 -1.0776 -0.5481 -0.7629
  142SAPE   C3415565   2.267   5.930  10.566  0.4993 -0.0805  0.0911
  142SAPE   H4X15566   2.158   5.948  10.569  0.6841  1.0080  1.8595
  142SAPE   H4Y15567   2.270   5.834  10.623  0.2020  1.5520  3.0644
  142SAPE   C3515568   2.330   5.928  10.422  0.5370 -0.1585 -0.8479
  142SAPE   H5X15569   2.273   5.852  10.364 -2.5556 -0.5153  2.2793
  142SAPE   H5Y15570   2.431   5.882  10.425  0.2942 -0.7232 -1.1346
  142SAPE   C3615571   2.341   6.066  10.361  0.0274  0.7658 -0.9494
  142SAPE   H6X15572   2.425   6.118  10.412 -0.2697  0.4972 -0.1903
  142SAPE   H6Y15573   2.251   6.121  10.395 -0.3255 -0.8146  0.7736
  142SAPE   C3715574   2.359   6.071  10.212 -0.1397  0.0723 -0.9117
  142SAPE   H7X15575   2.284   5.999  10.173 -1.1161  0.7518 -0.3206
  142SAPE   H7Y15576   2.460   6.031  10.187  0.4079  1.0587 -0.3319
  142SAPE   C3815577   2.341   6.202  10.153 -0.3533 -0.5845  0.4101
  142SAPE   H8X15578   2.430   6.262  10.184  0.8631 -0.4214 -2.9849
  142SAPE   H8Y15579   2.251   6.264  10.173 -0.8241 -0.4437 -1.8714
  142SAPE   C3915580   2.350   6.198  10.000 -0.0923 -0.2739 -0.2355
  142SAPE   H9X15581   2.258   6.146   9.964 -1.2162  0.9646  0.7311
  142SAPE   H9Y15582   2.434   6.135   9.965 -0.5006 -0.3533 -1.1214
  142SAPE  C31015583   2.332   6.337   9.931 -0.1618  0.3115  0.2456
  142SAPE  H10X15584   2.427   6.393   9.936  0.4001 -0.6023  0.0577
  142SAPE  H10Y15585   2.251   6.389   9.986 -1.9584 -2.1061  0.0693
  142SAPE  C31115586   2.300   6.314   9.784  0.4949  0.0224  0.1684
  142SAPE  H11X15587   2.208   6.259   9.755  0.8178 -1.2936  1.4877
  142SAPE  H11Y15588   2.381   6.246   9.748 -0.2705 -1.7980  1.6893
  142SAPE  C31215589   2.299   6.452   9.710 -0.1301  0.3976  0.0324
  142SAPE  H12X15590   2.401   6.496   9.700  0.7968 -1.6428  0.0152
  142SAPE  H12Y15591   2.243   6.519   9.779 -2.8691 -0.0900 -1.5625
  142SAPE  C31315592   2.240   6.441   9.572  0.2942 -0.4204  0.2190
  142SAPE  H13X15593   2.215   6.543   9.535  0.3970 -0.6472 -0.4968
  142SAPE  H13Y15594   2.145   6.383   9.579 -1.3194  1.5830 -2.8685
  142SAPE  C31415595   2.337   6.388   9.469 -0.4832  0.0690 -0.0289
  142SAPE  H14X15596   2.359   6.279   9.481 -0.5822 -0.1032 -1.2246
  142SAPE  H14Y15597   2.431   6.446   9.474 -0.1431 -0.5772  2.7346
  142SAPE  C31515598   2.303   6.401   9.316 -0.5085  1.4786 -0.5056
  142SAPE  H15X15599   2.285   6.504   9.280  1.0422  1.2488 -2.0701
  142SAPE  H15Y15600   2.204   6.357   9.290  0.3464 -1.5350  0.8699
  142SAPE  C31615601   2.409   6.334   9.231  0.0171  0.4267 -0.6958
  142SAPE  H16X15602   2.412   6.225   9.255 -0.0017  0.8283  1.3363
  142SAPE  H16Y15603   2.506   6.384   9.252 -0.1702  0.7873 -0.6739
  142SAPE  C31715604   2.370   6.363   9.082  0.6141 -0.0941  0.2392
  142SAPE  H17X15605   2.351   6.469   9.056  1.2311 -0.1028 -0.2859
  142SAPE  H17Y15606   2.275   6.306   9.075  1.2730 -1.1574 -0.5254
  142SAPE  C31815607   2.468   6.312   8.978 -0.6952  0.5543 -0.3010
  142SAPE  H18X15608   2.420   6.307   8.878 -3.2584 -0.7863  0.8935
  142SAPE  H18Y15609   2.520   6.217   9.001 -5.4420 -2.3675 -0.3722
  142SAPE  H18Z15610   2.556   6.380   8.973  0.9259 -1.4426 -0.3174
  143SAPE     N15611   3.990   1.168  10.935 -0.2318  0.5958  0.0541
  143SAPE   HN115612   4.060   1.125  10.871  0.1496  0.8281  0.3087
  143SAPE   HN215613   3.913   1.192  10.870  0.7816 -0.8728 -1.7945
  143SAPE   HN315614   4.023   1.258  10.975 -3.6607  2.5681 -1.1299
  143SAPE   C1215615   3.954   1.082  11.062 -0.2969  0.2656  0.1868
  143SAPE  H12A15616   3.863   1.122  11.112 -0.0079 -0.5449  1.3987
  143SAPE  H12B15617   4.030   1.105  11.140 -2.4796  0.5670  2.3290
  143SAPE   C1115618   3.952   0.929  11.035  0.1159 -1.3724 -0.0770
  143SAPE  H11A15619   3.943   0.880  11.134 -0.6616  2.8385  2.1615
  143SAPE  H11B15620   4.049   0.904  10.987 -1.4589 -0.7666 -3.9700
  143SAPE     P15621   3.828   0.749  10.884  0.0446 -0.1889 -0.0223
  143SAPE   O1315622   3.927   0.658  10.946 -0.1480  0.4757  0.5977
  143SAPE   O1415623   3.686   0.717  10.895  0.2373 -0.5758 -0.0172
  143SAPE   O1215624   3.849   0.903  10.935  0.4453  0.4517  0.5716
  143SAPE   O1115625   3.862   0.753  10.727 -0.0059 -0.0128 -0.2083
  143SAPE    C115626   3.852   0.874  10.651 -0.4012 -0.6412 -0.8188
  143SAPE    HA15627   3.805   0.951  10.716 -2.6497 -2.4251 -0.1953
  143SAPE    HB15628   3.957   0.905  10.633 -0.4656  0.1393  0.0394
  143SAPE    C215629   3.771   0.866  10.525 -1.0106  0.1883 -0.6638
  143SAPE    HS15630   3.671   0.832  10.558 -2.0754  1.8329 -2.0917
  143SAPE   O2115631   3.845   0.763  10.447  0.1285 -0.3411 -0.0892
  143SAPE   C2115632   3.774   0.690  10.369 -0.2743 -0.2908 -1.0512
  143SAPE   O2215633   3.654   0.671  10.375 -0.3108 -0.0903 -0.3674
  143SAPE   C2215634   3.861   0.614  10.266  0.2820 -0.2281 -0.2624
  143SAPE   H2R15635   3.925   0.538  10.316  0.3055 -0.6196 -0.8828
  143SAPE   H2S15636   3.802   0.549  10.198 -0.5719  0.2281  0.0337
  143SAPE    C315637   3.745   0.998  10.455 -0.6295 -0.3151 -0.7518
  143SAPE    HX15638   3.835   1.060  10.437 -0.5799 -0.6473 -1.7231
  143SAPE    HY15639   3.680   1.059  10.522  1.1200 -0.5954  1.3076
  143SAPE   O3115640   3.695   0.961  10.324  0.1185 -0.3029 -0.1151
  143SAPE   C3115641   3.587   1.027  10.283 -0.3803 -0.8134 -0.1044
  143SAPE   O3215642   3.515   1.096  10.353  0.2002  0.5779  0.1484
  143SAPE   C3215643   3.575   1.001  10.140 -0.5031  0.1055  0.6523
  143SAPE   H2X15644   3.584   0.892  10.123 -0.5118  0.2607 -0.4154
  143SAPE   H2Y15645   3.666   1.043  10.092  0.5248 -2.1014  0.5781
  143SAPE   C2315646   3.946   0.706  10.174  0.0276  0.5271 -0.0273
  143SAPE   H3R15647   4.030   0.645  10.133  2.0136  3.2795 -0.3258
  143SAPE   H3S15648   3.992   0.782  10.240 -0.6559 -1.6881  3.2129
  143SAPE   C2415649   3.861   0.773  10.065  0.3357  0.1800  0.7484
  143SAPE   H4R15650   3.924   0.852  10.020  0.1887 -0.0809  0.0750
  143SAPE   H4S15651   3.770   0.827  10.098 -0.3745 -0.1085 -0.6583
  143SAPE   C2515652   3.823   0.673   9.954 -0.3876 -0.0742 -0.3389
  143SAPE   H5R15653   3.839   0.568   9.983 -0.9205 -0.5848 -1.7803
  143SAPE   C2615654   3.774   0.712   9.832 -0.2443 -0.0949 -0.0792
  143SAPE   H6R15655   3.761   0.643   9.748 -2.4363  0.6373 -0.4133
  143SAPE   C2715656   3.745   0.859   9.791 -0.4070  0.8891 -0.0323
  143SAPE   H7R15657   3.763   0.922   9.881  1.0116  1.0030 -0.3782
  143SAPE   H7S15658   3.641   0.851   9.754  0.2259 -2.1728 -1.4720
  143SAPE   C2815659   3.845   0.909   9.686  0.1423 -0.2252  0.1317
  143SAPE   H8R15660   3.924   0.967   9.736 -0.1633  0.7547 -0.5041
  143SAPE   C2915661   3.841   0.892   9.551  0.1663  0.0533 -0.7108
  143SAPE   H9R15662   3.926   0.932   9.494  0.6569 -0.5872 -0.4411
  143SAPE  C21015663   3.748   0.806   9.473 -0.3373 -0.5867 -0.4642
  143SAPE  H10R15664   3.708   0.723   9.535 -0.7052 -0.8305 -1.0130
  143SAPE  H10S15665   3.813   0.752   9.401  1.4835  0.0303  0.6441
  143SAPE  C21115666   3.630   0.868   9.402 -0.3911 -0.5803  0.5039
  143SAPE  H11R15667   3.550   0.901   9.470  0.0686 -1.9648  1.7757
  143SAPE  C21215668   3.607   0.867   9.268  0.3894  0.2477 -0.1499
  143SAPE  H12R15669   3.513   0.907   9.229  1.5231  0.5476 -2.7452
  143SAPE  C21315670   3.692   0.801   9.165  0.3663  0.5308  0.2326
  143SAPE  H13R15671   3.650   0.704   9.131  1.8885  0.1729 -0.7393
  143SAPE  H13S15672   3.789   0.779   9.215  0.3717 -0.8502 -0.3536
  143SAPE  C21415673   3.724   0.888   9.049 -1.1949  0.1420 -0.0486
  143SAPE  H14R15674   3.689   0.992   9.043  0.2402  0.6017 -0.9738
  143SAPE  C21515675   3.810   0.842   8.948  0.7722 -0.4788 -0.4673
  143SAPE  H15R15676   3.844   0.918   8.876 -1.4278  2.4467  1.3539
  143SAPE  C21615677   3.869   0.705   8.944  0.0736  0.0718  0.0081
  143SAPE  H16R15678   3.869   0.663   9.046  1.6444  2.3372  1.0121
  143SAPE  H16S15679   3.972   0.719   8.904 -0.4039  1.2503 -0.8873
  143SAPE  C21715680   3.792   0.604   8.853  0.1119  0.3607 -0.0173
  143SAPE  H17R15681   3.772   0.639   8.750  3.5500 -0.1028 -0.9446
  143SAPE  H17S15682   3.697   0.573   8.903 -0.4952  1.5417 -0.4015
  143SAPE  C21815683   3.869   0.471   8.840  0.1666  0.5146 -0.3279
  143SAPE  H18R15684   3.902   0.433   8.939  0.0110  1.4523  0.1007
  143SAPE  H18S15685   3.959   0.494   8.779 -0.1082 -2.2019 -1.9079
  143SAPE  C21915686   3.813   0.362   8.748  0.5619 -0.7806  0.0993
  143SAPE  H19R15687   3.804   0.402   8.645  0.4919  0.6298  0.6283
  143SAPE  H19S15688   3.717   0.325   8.788  0.8209 -2.5370 -0.8106
  143SAPE  C22015689   3.912   0.239   8.729  0.1296 -0.1044 -0.1204
  143SAPE  H20R15690   3.868   0.156   8.670  0.3970 -0.5264  0.2701
  143SAPE  H20S15691   3.942   0.203   8.830  0.5091 -1.4582 -0.7062
  143SAPE  H20T15692   4.006   0.280   8.686 -0.3460  1.4834  0.2902
  143SAPE   C3315693   3.445   1.054  10.086  1.3483  0.5947 -0.0808
  143SAPE   H3X15694   3.426   1.161  10.107 -0.3355  0.2588  0.2886
  143SAPE   H3Y15695   3.356   1.004  10.131  0.5309 -1.0699 -3.2082
  143SAPE   C3415696   3.438   1.046   9.935 -0.0057 -0.3024  0.6351
  143SAPE   H4X15697   3.471   0.945   9.904  0.6964  0.9408 -3.2091
  143SAPE   H4Y15698   3.514   1.111   9.887 -1.1553 -2.0445 -4.0424
  143SAPE   C3515699   3.298   1.078   9.876 -0.6004  0.2802 -0.1642
  143SAPE   H5X15700   3.280   1.187   9.890 -0.5923  0.3571 -0.7482
  143SAPE   H5Y15701   3.223   1.013   9.925 -1.5167  0.6902 -0.9790
  143SAPE   C3615702   3.286   1.052   9.721  0.0075 -0.1503 -0.2726
  143SAPE   H6X15703   3.190   1.100   9.692  0.1855  1.2016  1.1996
  143SAPE   H6Y15704   3.279   0.942   9.712  0.5311 -0.2638  0.5798
  143SAPE   C3715705   3.392   1.118   9.632 -0.2795 -0.1615  0.2910
  143SAPE   H7X15706   3.492   1.071   9.639 -0.1662  0.1132  0.5175
  143SAPE   H7Y15707   3.402   1.222   9.669 -0.1568  0.5154 -1.5834
  143SAPE   C3815708   3.346   1.131   9.484  0.2513 -0.4198 -0.3804
  143SAPE   H8X15709   3.252   1.190   9.473  1.3187  1.7032  1.0878
  143SAPE   H8Y15710   3.325   1.034   9.435 -2.0076  0.2498 -0.8695
  143SAPE   C3915711   3.456   1.191   9.396  0.1139  1.0556 -0.0115
  143SAPE   H9X15712   3.554   1.140   9.398 -0.3315  0.1474 -0.4083
  143SAPE   H9Y15713   3.471   1.300   9.416 -0.2012  0.9897  0.6207
  143SAPE  C31015714   3.411   1.195   9.248 -0.4682 -0.6234  0.1923
  143SAPE  H10X15715   3.323   1.261   9.230  1.0713  0.7742 -3.1450
  143SAPE  H10Y15716   3.379   1.091   9.224  1.4177 -0.9028 -1.4447
  143SAPE  C31115717   3.528   1.222   9.149  0.0093 -0.9687  0.6886
  143SAPE  H11X15718   3.616   1.157   9.170 -0.0614 -0.3015  3.5287
  143SAPE  H11Y15719   3.565   1.323   9.179  1.8635 -0.7382 -2.0485
  143SAPE  C31215720   3.485   1.222   9.002  0.4616 -0.6428 -0.7008
  143SAPE  H12X15721   3.381   1.261   8.992  0.2938 -0.5297  1.1897
  143SAPE  H12Y15722   3.484   1.115   8.971  3.4617 -1.9536  2.9540
  143SAPE  C31315723   3.589   1.286   8.903  0.3996  0.0128 -1.0146
  143SAPE  H13X15724   3.688   1.274   8.952 -0.2617  1.2166  0.7161
  143SAPE  H13Y15725   3.566   1.394   8.900  2.9567  0.6863  0.7054
  143SAPE  C31415726   3.584   1.233   8.761 -0.5601  0.4777  0.2098
  143SAPE  H14X15727   3.643   1.299   8.693  0.9251 -1.5053 -0.5291
  143SAPE  H14Y15728   3.475   1.235   8.741 -0.9821  1.4266  2.3673
  143SAPE  C31515729   3.646   1.091   8.723  0.6264 -0.4305 -0.2588
  143SAPE  H15X15730   3.582   1.016   8.774 -1.9007  2.6048  1.3623
  143SAPE  H15Y15731   3.745   1.092   8.774 -0.0073  0.3646  0.9931
  143SAPE  C31615732   3.644   1.054   8.577 -0.3902 -0.2671 -0.3041
  143SAPE  H16X15733   3.537   1.031   8.559 -0.3748 -0.8748  0.3140
  143SAPE  H16Y15734   3.702   0.959   8.568 -0.8378 -0.5604 -0.1018
  143SAPE  C31715735   3.707   1.153   8.483  0.0139 -0.6547  0.3964
  143SAPE  H17X15736   3.647   1.247   8.474  1.0854  0.0072  0.0488
  143SAPE  H17Y15737   3.697   1.102   8.384 -1.6501  0.3333  0.0161
  143SAPE  C31815738   3.852   1.188   8.511 -0.3149  0.1665  0.2553
  143SAPE  H18X15739   3.875   1.223   8.614 -0.5602  1.4100 -0.0830
  143SAPE  H18Y15740   3.884   1.260   8.433  0.0852 -1.9018 -1.5742
  143SAPE  H18Z15741   3.911   1.097   8.488 -0.4600  0.1636 -0.1073
  144SAPE     N15742   2.938   5.097  11.092  0.9078  0.5914  0.1890
  144SAPE   HN115743   3.017   5.161  11.071  0.2507  0.7840 -2.0404
  144SAPE   HN215744   2.940   5.067  11.191  1.1962 -0.4271 -0.1168
  144SAPE   HN315745   2.959   5.016  11.030  2.0198  1.7527 -1.0172
  144SAPE   C1215746   2.825   5.178  11.039  1.0810  0.0872 -0.9260
  144SAPE  H12A15747   2.805   5.264  11.107  1.6103  0.2100 -0.9184
  144SAPE  H12B15748   2.728   5.126  11.052  0.7066  1.0529  0.2596
  144SAPE   C1115749   2.862   5.225  10.894  0.2230 -0.1127 -0.0562
  144SAPE  H11A15750   2.780   5.297  10.870 -0.3651 -1.2184 -1.5226
  144SAPE  H11B15751   2.839   5.136  10.831 -0.8485  0.2989 -0.2683
  144SAPE     P15752   3.049   5.408  10.840 -0.4469  0.0594  0.1360
  144SAPE   O1315753   2.996   5.519  10.922 -0.0863  0.4954  0.3810
  144SAPE   O1415754   3.196   5.404  10.844 -0.0457  0.0365  0.2362
  144SAPE   O1215755   2.995   5.268  10.882 -0.2969 -0.6136  0.4339
  144SAPE   O1115756   3.004   5.417  10.689  0.5241 -0.0575 -0.0480
  144SAPE    C115757   3.042   5.539  10.614  0.6646  0.4722 -0.0285
  144SAPE    HA15758   3.101   5.607  10.679  1.7832 -1.1179  0.6767
  144SAPE    HB15759   3.111   5.513  10.531  2.0124  1.8047  0.6200
  144SAPE    C215760   2.912   5.613  10.560  0.0636 -0.3109  0.5575
  144SAPE    HS15761   2.851   5.638  10.650 -4.1711 -1.2611 -1.7337
  144SAPE   O2115762   2.840   5.523  10.477  0.1375  0.0907 -0.3459
  144SAPE   C2115763   2.738   5.465  10.524 -0.5572 -0.1388  0.4809
  144SAPE   O2215764   2.700   5.458  10.640  0.6706 -0.3490  0.6294
  144SAPE   C2215765   2.657   5.412  10.401 -0.2448  0.1331 -0.2773
  144SAPE   H2R15766   2.714   5.392  10.307 -1.4231 -0.8501 -0.8148
  144SAPE   H2S15767   2.624   5.311  10.435  0.3192 -0.2550 -0.8493
  144SAPE    C315768   2.944   5.745  10.488 -0.2394 -1.1282  0.1551
  144SAPE    HX15769   3.034   5.728  10.426  0.5307  0.9071  0.6597
  144SAPE    HY15770   2.972   5.816  10.568 -3.0981 -1.5042  1.6396
  144SAPE   O3115771   2.839   5.794  10.410 -0.0630  0.5809  0.5231
  144SAPE   C3115772   2.872   5.919  10.374 -0.2229  0.2704  0.1968
  144SAPE   O3215773   2.971   5.975  10.412 -0.0064 -0.4299 -0.5085
  144SAPE   C3215774   2.764   5.967  10.275 -0.3056  0.1302  0.1370
  144SAPE   H2X15775   2.702   6.044  10.326  0.8598  1.4330 -0.3619
  144SAPE   H2Y15776   2.696   5.881  10.255 -0.3847 -0.1711  1.5960
  144SAPE   C2315777   2.527   5.492  10.379 -1.2327 -0.1087  0.1830
  144SAPE   H3R15778   2.480   5.507  10.479 -1.0386 -0.4379  0.3234
  144SAPE   H3S15779   2.462   5.430  10.314 -3.0403  2.0318 -0.1760
  144SAPE   C2415780   2.538   5.633  10.318  0.8428 -0.4990  0.6850
  144SAPE   H4R15781   2.596   5.702  10.384 -0.2103  1.6214 -0.5322
  144SAPE   H4S15782   2.434   5.672  10.314  0.4935 -1.3101  1.4963
  144SAPE   C2515783   2.597   5.624  10.175 -0.1604 -0.2920 -0.6298
  144SAPE   H5R15784   2.685   5.559  10.162 -1.3683 -1.6973 -2.0790
  144SAPE   C2615785   2.532   5.656  10.061  0.0578 -0.5174  0.5155
  144SAPE   H6R15786   2.582   5.647   9.963 -1.5383  0.8470 -0.4893
  144SAPE   C2715787   2.399   5.727  10.051 -0.3595 -0.2396 -0.2207
  144SAPE   H7R15788   2.408   5.837  10.046 -0.9706 -0.2262 -1.2941
  144SAPE   H7S15789   2.324   5.698  10.127 -0.6476 -3.1122 -1.4807
  144SAPE   C2815790   2.344   5.689   9.919 -0.0161 -0.0889 -0.1319
  144SAPE   H8R15791   2.300   5.588   9.922 -1.7548  0.6544  2.5421
  144SAPE   C2915792   2.325   5.766   9.811  1.7070  0.0031  0.5240
  144SAPE   H9R15793   2.266   5.719   9.732  0.0885  0.8820  1.1654
  144SAPE  C21015794   2.368   5.911   9.800 -0.7271  0.2850 -0.0434
  144SAPE  H10R15795   2.341   5.961   9.895 -1.1699 -0.0337  0.0022
  144SAPE  H10S15796   2.296   5.962   9.733 -2.0127  1.3152  2.0237
  144SAPE  C21115797   2.514   5.920   9.756  0.7717 -0.0121  0.6775
  144SAPE  H11R15798   2.589   5.913   9.835  1.6338 -1.2689 -0.2155
  144SAPE  C21215799   2.569   5.948   9.629 -0.2170  0.1014  0.4049
  144SAPE  H12R15800   2.678   5.955   9.618 -0.2846  3.5058  0.8283
  144SAPE  C21315801   2.498   5.968   9.493  0.2234  0.7147 -0.8506
  144SAPE  H13R15802   2.531   6.066   9.453  0.4062  1.5682  1.2599
  144SAPE  H13S15803   2.397   6.005   9.519  0.5618  2.2109 -1.5391
  144SAPE  C21415804   2.490   5.861   9.388 -0.4094 -1.3538  0.2462
  144SAPE  H14R15805   2.435   5.767   9.407  0.6806 -2.4450 -1.6646
  144SAPE  C21515806   2.541   5.883   9.261  0.2577 -0.1038  0.3287
  144SAPE  H15R15807   2.518   5.801   9.191  1.1912  0.7691 -1.0370
  144SAPE  C21615808   2.613   6.013   9.212 -0.1400 -0.3536  0.3504
  144SAPE  H16R15809   2.621   6.097   9.283 -0.0622  0.3994 -0.5283
  144SAPE  H16S15810   2.569   6.063   9.122  0.4017  3.4728  2.0198
  144SAPE  C21715811   2.760   5.973   9.164  0.0701  0.8672  0.0481
  144SAPE  H17R15812   2.792   5.898   9.240  0.4307  2.1060  1.1690
  144SAPE  H17S15813   2.837   6.053   9.174  1.3949 -0.5594  2.4509
  144SAPE  C21815814   2.767   5.906   9.027  0.2073  0.8905 -0.1148
  144SAPE  H18R15815   2.694   5.822   9.023  2.2553 -1.0450  0.9663
  144SAPE  H18S15816   2.870   5.865   9.023 -1.3465 -3.4785 -1.7746
  144SAPE  C21915817   2.744   5.993   8.914  0.2048  0.2943 -0.0752
  144SAPE  H19R15818   2.831   6.060   8.898  1.1261 -0.6514  0.8506
  144SAPE  H19S15819   2.653   6.052   8.935  0.3622  0.1925  0.9607
  144SAPE  C22015820   2.738   5.909   8.784  0.1942  0.3146 -0.6091
  144SAPE  H20R15821   2.737   5.978   8.697 -1.0227  0.5254 -0.4398
  144SAPE  H20S15822   2.649   5.844   8.773 -1.1340  2.2599 -2.0794
  144SAPE  H20T15823   2.832   5.849   8.780  0.5753  0.6469  1.7755
  144SAPE   C3315824   2.829   6.027  10.146  0.2907 -0.2512  0.1564
  144SAPE   H3X15825   2.845   5.942  10.077  0.4003 -1.5986  1.7966
  144SAPE   H3Y15826   2.924   6.081  10.166  0.1493  1.9742 -3.9960
  144SAPE   C3415827   2.738   6.130  10.076  0.9099 -0.2825 -0.6063
  144SAPE   H4X15828   2.688   6.203  10.143 -1.2301 -0.2651 -2.1271
  144SAPE   H4Y15829   2.652   6.072  10.036 -2.5233  2.7574  1.7058
  144SAPE   C3515830   2.810   6.207   9.969 -0.2385  0.0967  0.2450
  144SAPE   H5X15831   2.895   6.147   9.929  0.4827  1.3671 -0.2102
  144SAPE   H5Y15832   2.860   6.284  10.032 -0.5428  0.4470  0.0600
  144SAPE   C3615833   2.739   6.288   9.862 -0.3110 -0.0689  0.2367
  144SAPE   H6X15834   2.662   6.360   9.896  0.8531  1.7243 -0.7531
  144SAPE   H6Y15835   2.679   6.220   9.798 -1.1551  0.5742  0.3291
  144SAPE   C3715836   2.835   6.367   9.759  0.6211  0.2211 -0.6960
  144SAPE   H7X15837   2.929   6.309   9.768  1.1867  1.4095  2.6118
  144SAPE   H7Y15838   2.856   6.470   9.797  2.2784  0.6937 -2.7157
  144SAPE   C3815839   2.763   6.378   9.623 -0.9306  0.7185  0.6222
  144SAPE   H8X15840   2.658   6.343   9.626 -0.6652 -0.7860 -3.0760
  144SAPE   H8Y15841   2.819   6.308   9.557 -1.1540 -0.3892  1.5870
  144SAPE   C3915842   2.775   6.522   9.555 -0.9631  0.5008 -0.8597
  144SAPE   H9X15843   2.831   6.589   9.623  1.1778 -1.5198 -0.4923
  144SAPE   H9Y15844   2.668   6.546   9.540 -0.9801  0.1307 -1.3856
  144SAPE  C31015845   2.840   6.511   9.421  0.3832 -0.8171  0.3686
  144SAPE  H10X15846   2.810   6.422   9.361 -1.3859  1.5880 -2.5798
  144SAPE  H10Y15847   2.945   6.490   9.451  1.2308  2.0949 -0.2560
  144SAPE  C31115848   2.853   6.645   9.340 -0.7707  0.4281 -0.5553
  144SAPE  H11X15849   2.931   6.634   9.261 -0.8093 -1.3762 -0.3682
  144SAPE  H11Y15850   2.870   6.730   9.410 -1.2925 -1.1279  1.5630
  144SAPE  C31215851   2.723   6.682   9.263  0.5278  0.3854 -0.0215
  144SAPE  H12X15852   2.644   6.689   9.341 -1.7475 -2.5186 -1.8533
  144SAPE  H12Y15853   2.692   6.593   9.205 -1.0903 -0.6570  2.2746
  144SAPE  C31315854   2.737   6.802   9.169  0.1189 -0.1639  0.0539
  144SAPE  H13X15855   2.795   6.771   9.080 -0.1937  0.9699 -0.5623
  144SAPE  H13Y15856   2.789   6.881   9.228  0.3494 -1.1712  1.2436
  144SAPE  C31415857   2.597   6.860   9.135 -1.0183 -0.9952 -0.3522
  144SAPE  H14X15858   2.537   6.878   9.227  0.2937  1.5271  0.1057
  144SAPE  H14Y15859   2.533   6.798   9.069 -0.7794 -1.5828 -0.0434
  144SAPE  C31515860   2.614   6.996   9.067 -0.2850 -0.1060  0.1759
  144SAPE  H15X15861   2.681   6.992   8.978 -0.4273  0.3292  0.0442
  144SAPE  H15Y15862   2.660   7.072   9.134 -0.6972  1.0028 -0.7619
  144SAPE  C31615863   2.472   7.045   9.017 -0.0723  0.3903 -0.1829
  144SAPE  H16X15864   2.401   7.037   9.102  0.7107 -1.0828  0.3720
  144SAPE  H16Y15865   2.437   6.983   8.932  0.0552 -1.0791  0.7907
  144SAPE  C31715866   2.459   7.195   8.970 -0.3353  0.4573 -0.3276
  144SAPE  H17X15867   2.541   7.204   8.895 -0.2624  0.6434 -0.2268
  144SAPE  H17Y15868   2.491   7.263   9.051 -0.6229 -0.4750  0.5822
  144SAPE  C31815869   2.327   7.236   8.904  0.6875 -0.2180  0.3255
  144SAPE  H18X15870   2.339   7.336   8.858 -0.1803  0.2382  1.0607
  144SAPE  H18Y15871   2.252   7.250   8.986 -0.3917 -0.7173 -0.5506
  144SAPE  H18Z15872   2.294   7.162   8.828 -0.2951  0.6374 -0.1016
  145SAPE     N15873   3.998   6.061  11.400  0.4175  0.0745  0.5428
  145SAPE   HN115874   4.041   6.115  11.478  1.5111 -0.9465  0.6837
  145SAPE   HN215875   4.029   5.964  11.420  0.5067 -0.1694 -0.7241
  145SAPE   HN315876   4.054   6.081  11.314  1.2006  0.2473  1.0745
  145SAPE   C1215877   3.851   6.090  11.380 -0.4622 -1.4331  0.0935
  145SAPE  H12A15878   3.838   6.199  11.362 -0.5803 -1.7187 -1.8510
  145SAPE  H12B15879   3.796   6.059  11.471 -2.0073 -0.1657 -0.3421
  145SAPE   C1115880   3.800   6.003  11.261 -0.1059  0.2800  1.1705
  145SAPE  H11A15881   3.844   6.027  11.162 -0.2585  1.0181  1.2800
  145SAPE  H11B15882   3.690   6.018  11.253 -0.2648 -0.9300  0.7878
  145SAPE     P15883   3.894   5.749  11.224  0.1486  0.0985  0.1832
  145SAPE   O1315884   4.007   5.721  11.309  0.1711 -0.3564 -0.5250
  145SAPE   O1415885   3.801   5.638  11.197  0.3321  1.0582 -0.6405
  145SAPE   O1215886   3.815   5.865  11.293  0.1081 -0.0956  0.6520
  145SAPE   O1115887   3.948   5.807  11.088 -0.4484 -0.7346 -0.3287
  145SAPE    C115888   3.869   5.825  10.979 -0.4276 -0.0747  1.1561
  145SAPE    HA15889   3.776   5.765  10.967 -1.0730  1.3190 -1.9291
  145SAPE    HB15890   3.841   5.931  10.964 -0.7355 -0.3132 -0.1053
  145SAPE    C215891   3.968   5.805  10.855  0.0984  0.3790  0.0554
  145SAPE    HS15892   4.058   5.869  10.866  1.8818 -1.5577 -2.1958
  145SAPE   O2115893   3.905   5.840  10.733  0.1026 -0.0362  0.5136
  145SAPE   C2115894   3.874   5.967  10.710 -0.3797 -0.0104 -0.4154
  145SAPE   O2215895   3.905   6.064  10.775  0.8293 -0.0088  0.5734
  145SAPE   C2215896   3.786   5.981  10.588 -0.4420 -0.2736  0.8479
  145SAPE   H2R15897   3.771   5.885  10.533 -2.1481  0.8792 -0.8519
  145SAPE   H2S15898   3.689   6.017  10.629 -0.2541  0.3951  0.7140
  145SAPE    C315899   4.012   5.656  10.849 -0.3965 -0.4031 -0.5311
  145SAPE    HX15900   3.917   5.598  10.848 -2.8764  3.3286 -0.4220
  145SAPE    HY15901   4.071   5.630  10.939  2.1855 -0.1975 -2.0870
  145SAPE   O3115902   4.092   5.629  10.736 -0.3147 -0.8887  0.3003
  145SAPE   C3115903   4.192   5.549  10.742  0.2400  0.4564 -0.0628
  145SAPE   O3215904   4.211   5.473  10.839 -0.3599 -0.2193  0.7307
  145SAPE   C3215905   4.266   5.538  10.613  0.6288 -0.5389  0.0370
  145SAPE   H2X15906   4.339   5.621  10.620 -1.5412  1.6940 -1.6515
  145SAPE   H2Y15907   4.212   5.555  10.517 -0.5427  1.3881  0.9914
  145SAPE   C2315908   3.825   6.077  10.480 -0.3666 -0.3871 -0.0473
  145SAPE   H3R15909   3.912   6.036  10.424 -0.6951 -0.7066 -0.3256
  145SAPE   H3S15910   3.865   6.170  10.525  1.9207 -1.7550  0.9599
  145SAPE   C2415911   3.714   6.119  10.389 -0.1566  0.3087  0.3735
  145SAPE   H4R15912   3.764   6.182  10.312 -0.4957  0.4239  0.2440
  145SAPE   H4S15913   3.639   6.183  10.441  3.0369  2.9633  2.1108
  145SAPE   C2515914   3.646   6.013  10.312 -0.4140  0.1011 -0.8508
  145SAPE   H5R15915   3.622   5.926  10.375 -1.3234  0.6252 -0.4409
  145SAPE   C2615916   3.633   5.995  10.179  0.8482  0.6129  0.1056
  145SAPE   H6R15917   3.568   5.911  10.150 -0.5530  1.7424 -0.1391
  145SAPE   C2715918   3.674   6.084  10.059 -0.4519 -0.6696  0.1986
  145SAPE   H7R15919   3.753   6.161  10.070 -0.7841 -0.1889 -0.6519
  145SAPE   H7S15920   3.582   6.129  10.016  0.2671  1.0326  0.3497
  145SAPE   C2815921   3.736   5.991   9.961 -0.4838  0.5630  0.0711
  145SAPE   H8R15922   3.834   5.952   9.995  0.0235  0.5203 -1.3920
  145SAPE   C2915923   3.678   5.943   9.851 -1.2010 -0.2014  0.2615
  145SAPE   H9R15924   3.730   5.866   9.792  0.1045  1.5784 -1.0147
  145SAPE  C21015925   3.543   5.975   9.796  1.0413  0.1835 -0.0045
  145SAPE  H10R15926   3.474   6.000   9.880  1.2079  0.3197  0.0948
  145SAPE  H10S15927   3.500   5.884   9.750  2.6306 -0.2493 -0.6700
  145SAPE  C21115928   3.559   6.075   9.684  0.2501 -0.4082 -0.2795
  145SAPE  H11R15929   3.575   6.177   9.721 -1.8570  0.5641 -1.8063
  145SAPE  C21215930   3.563   6.054   9.550  0.4576  0.9411  0.5127
  145SAPE  H12R15931   3.562   6.128   9.470 -1.2514 -1.5371 -1.9393
  145SAPE  C21315932   3.562   5.921   9.483  0.3183  0.3946  0.0808
  145SAPE  H13R15933   3.488   5.853   9.530  0.3077  0.2444 -0.1499
  145SAPE  H13S15934   3.660   5.876   9.508 -0.5262 -0.9506  1.1449
  145SAPE  C21415935   3.555   5.919   9.329  0.0223  0.0281 -0.6068
  145SAPE  H14R15936   3.505   6.002   9.278 -0.2297 -0.2591 -0.8274
  145SAPE  C21515937   3.640   5.847   9.251  0.5928 -0.9025 -0.3057
  145SAPE  H15R15938   3.631   5.856   9.142 -0.3652 -1.8412 -0.3277
  145SAPE  C21615939   3.744   5.750   9.297  0.0811  0.5519  0.1543
  145SAPE  H16R15940   3.702   5.647   9.308 -0.6049  0.9591  1.6352
  145SAPE  H16S15941   3.782   5.780   9.397 -0.5516 -1.7873  1.1688
  145SAPE  C21715942   3.854   5.732   9.193  0.4515 -0.6417 -0.5179
  145SAPE  H17R15943   3.807   5.708   9.095 -2.0663 -1.6121  0.8303
  145SAPE  H17S15944   3.915   5.650   9.235 -0.1708 -0.8181  0.0656
  145SAPE  C21815945   3.948   5.856   9.170  0.5166  0.0802  0.2239
  145SAPE  H18R15946   3.988   5.888   9.268 -0.9103 -0.5594  1.0405
  145SAPE  H18S15947   3.894   5.942   9.124  0.7996 -0.2932 -0.8315
  145SAPE  C21915948   4.065   5.829   9.073 -0.0775  0.3794 -0.3839
  145SAPE  H19R15949   4.145   5.768   9.120  1.6167 -0.5957 -4.1181
  145SAPE  H19S15950   4.105   5.929   9.048 -1.5318  1.2477  0.5964
  145SAPE  C22015951   4.021   5.766   8.936  0.0582  0.4506  0.4582
  145SAPE  H20R15952   4.095   5.777   8.854 -2.0159  1.0486 -1.3958
  145SAPE  H20S15953   3.927   5.812   8.900  1.2430  2.5223 -0.1809
  145SAPE  H20T15954   3.999   5.659   8.958  1.3144  0.6692  3.2954
  145SAPE   C3315955   4.342   5.401  10.605  0.1330 -0.2087 -0.5221
  145SAPE   H3X15956   4.266   5.321  10.589  0.2724 -0.1072 -1.7676
  145SAPE   H3Y15957   4.404   5.376  10.693 -0.9123  0.5622  0.4720
  145SAPE   C3415958   4.431   5.391  10.481  0.0408 -0.0405 -0.0181
  145SAPE   H4X15959   4.502   5.307  10.495  0.6040  0.3586 -0.4534
  145SAPE   H4Y15960   4.487   5.487  10.474 -1.0332  0.4763 -2.1849
  145SAPE   C3515961   4.351   5.351  10.355  0.2074  0.4983 -0.6758
  145SAPE   H5X15962   4.285   5.436  10.325  0.3535  1.2644  1.0920
  145SAPE   H5Y15963   4.282   5.271  10.391 -2.2695  2.2267 -1.2946
  145SAPE   C3615964   4.438   5.301  10.240 -0.3054 -0.3579 -0.0568
  145SAPE   H6X15965   4.490   5.210  10.275  0.9145  0.9014  1.5573
  145SAPE   H6Y15966   4.518   5.375  10.218  0.6782 -0.4499  2.7816
  145SAPE   C3715967   4.349   5.275  10.120 -0.4434 -0.1584  0.0273
  145SAPE   H7X15968   4.269   5.348  10.096 -0.5717 -0.1561  0.4485
  145SAPE   H7Y15969   4.293   5.184  10.152  1.4337 -1.1953  0.4964
  145SAPE   C3815970   4.413   5.249   9.982  0.2311  0.6264 -0.1243
  145SAPE   H8X15971   4.463   5.150   9.986  1.2337  1.1483  0.9702
  145SAPE   H8Y15972   4.492   5.322   9.952  0.4553  0.6121  0.4281
  145SAPE   C3915973   4.311   5.240   9.868  0.2620 -0.1395  0.3356
  145SAPE   H9X15974   4.253   5.334   9.855  0.1221 -0.5328 -2.4560
  145SAPE   H9Y15975   4.241   5.159   9.898  0.9020 -0.5213  0.8032
  145SAPE  C31015976   4.387   5.236   9.737 -0.2129 -0.3132  0.1037
  145SAPE  H10X15977   4.451   5.145   9.743  0.5585  0.2423  0.4587
  145SAPE  H10Y15978   4.448   5.327   9.716  0.8834 -0.8291  0.9698
  145SAPE  C31115979   4.296   5.217   9.614  0.2575  0.1814 -0.0671
  145SAPE  H11X15980   4.231   5.306   9.601 -3.2139 -2.3372 -1.7187
  145SAPE  H11Y15981   4.244   5.119   9.624 -0.8517  0.7904  0.2147
  145SAPE  C31215982   4.375   5.193   9.488  0.0436 -0.1509  1.0154
  145SAPE  H12X15983   4.443   5.108   9.510 -2.0260 -1.6329  1.9784
  145SAPE  H12Y15984   4.420   5.290   9.457 -1.2424  0.1533  0.0162
  145SAPE  C31315985   4.298   5.139   9.369  0.1357  0.4797  0.3064
  145SAPE  H13X15986   4.204   5.197   9.353  1.2806  1.8128 -2.0118
  145SAPE  H13Y15987   4.271   5.033   9.386  0.1689  0.7627  2.4275
  145SAPE  C31415988   4.379   5.144   9.237  0.4032 -0.8187 -0.3148
  145SAPE  H14X15989   4.463   5.074   9.255 -0.8478 -1.7310  2.4338
  145SAPE  H14Y15990   4.423   5.246   9.229  1.2711 -1.2073 -0.6441
  145SAPE  C31515991   4.302   5.116   9.114  0.0322  0.1321  1.0153
  145SAPE  H15X15992   4.379   5.113   9.034 -0.3291 -0.2322  0.6740
  145SAPE  H15Y15993   4.254   5.215   9.097  0.9126  0.4511  0.3320
  145SAPE  C31615994   4.211   4.996   9.117  0.2087 -0.3411  0.0390
  145SAPE  H16X15995   4.157   4.996   9.020  0.5979 -0.2906 -0.1821
  145SAPE  H16Y15996   4.145   5.004   9.205 -0.5190 -0.2708 -0.5007
  145SAPE  C31715997   4.285   4.860   9.137  0.4477  0.3476  0.5642
  145SAPE  H17X15998   4.210   4.778   9.133 -0.1900  0.9390  0.0613
  145SAPE  H17Y15999   4.339   4.855   9.234 -2.2298  0.8942  2.1914
  145SAPE  C31816000   4.393   4.807   9.042  0.0310 -0.3817 -0.1138
  145SAPE  H18X16001   4.421   4.701   9.060 -4.0092 -1.3097  2.0966
  145SAPE  H18Y16002   4.486   4.865   9.053  0.3954 -0.8902 -0.4811
  145SAPE  H18Z16003   4.371   4.813   8.934 -1.8717  0.6875  0.2933
  146SAPE     N16004   2.094   5.272  11.088  0.1545 -0.9682 -0.1120
  146SAPE   HN116005   2.020   5.233  11.149 -1.0076  1.9024  0.4730
  146SAPE   HN216006   2.178   5.295  11.145 -1.0607  1.0288  0.9665
  146SAPE   HN316007   2.063   5.365  11.054  1.9172 -1.0276 -2.0956
  146SAPE   C1216008   2.140   5.178  10.982 -0.5605  0.6070  0.6324
  146SAPE  H12A16009   2.222   5.112  11.019 -1.9011 -1.2380  0.4757
  146SAPE  H12B16010   2.183   5.226  10.892 -1.1209  4.1352  2.1115
  146SAPE   C1116011   2.024   5.089  10.932  0.2325 -0.2915 -0.1217
  146SAPE  H11A16012   1.980   5.039  11.021  1.3845 -1.3607 -0.1269
  146SAPE  H11B16013   2.054   5.004  10.868 -0.0816  1.4966 -2.8296
  146SAPE     P16014   1.839   5.116  10.750  0.4442  0.2941  0.3200
  146SAPE   O1316015   1.745   5.014  10.804 -0.2306  0.9180  0.4096
  146SAPE   O1416016   1.780   5.230  10.676  0.0807 -0.1976  0.1234
  146SAPE   O1216017   1.923   5.173  10.870  0.0356 -0.4928  0.1103
  146SAPE   O1116018   1.952   5.049  10.662  0.0060 -0.1567 -0.5302
  146SAPE    C116019   2.076   5.097  10.606 -0.2898 -0.2512 -0.1009
  146SAPE    HA16020   2.113   5.186  10.661  1.1358 -2.2522  2.3840
  146SAPE    HB16021   2.155   5.021  10.621  0.4591  1.0267  3.1105
  146SAPE    C216022   2.069   5.115  10.452  0.3933  0.0927 -0.6986
  146SAPE    HS16023   2.174   5.116  10.415  0.9228 -1.8020  0.5964
  146SAPE   O2116024   1.990   5.233  10.418 -0.6477 -0.1004  0.4016
  146SAPE   C2116025   2.037   5.359  10.451 -0.3008 -0.3471 -0.1282
  146SAPE   O2216026   2.154   5.380  10.474  0.1725  0.1170  0.0768
  146SAPE   C2216027   1.922   5.459  10.439  0.3530 -0.5099  0.1781
  146SAPE   H2R16028   1.837   5.408  10.389  1.3200 -1.2920 -0.7128
  146SAPE   H2S16029   1.901   5.485  10.545 -0.7519  0.9636 -0.3691
  146SAPE    C316030   1.999   4.987  10.390 -0.2183 -0.4225  1.2676
  146SAPE    HX16031   1.896   4.988  10.432 -0.6185  2.2016  0.4130
  146SAPE    HY16032   2.052   4.894  10.421  1.3736 -0.2392 -0.7019
  146SAPE   O3116033   2.000   4.988  10.238 -0.4753  0.2725  0.6522
  146SAPE   C3116034   1.879   5.014  10.183 -0.4259  0.1765  0.4852
  146SAPE   O3216035   1.783   5.052  10.244  0.1912  0.8841  0.1535
  146SAPE   C3216036   1.885   4.986  10.032  0.0123 -0.6942 -0.2631
  146SAPE   H2X16037   1.780   4.971  10.000  0.2496 -3.2096 -0.0656
  146SAPE   H2Y16038   1.925   4.885  10.009 -2.1810 -1.1405 -2.5097
  146SAPE   C2316039   1.968   5.592  10.372  1.3029 -0.5113 -0.2678
  146SAPE   H3R16040   2.048   5.628  10.440 -0.0977  1.1231  0.5963
  146SAPE   H3S16041   1.888   5.667  10.390 -0.4092 -1.8122 -2.0393
  146SAPE   C2416042   2.013   5.575  10.230  0.5333 -0.4089 -0.5608
  146SAPE   H4R16043   2.080   5.488  10.217 -1.1093 -1.6500 -1.1387
  146SAPE   H4S16044   2.067   5.670  10.210 -1.2665  0.6323 -0.7332
  146SAPE   C2516045   1.896   5.558  10.138  0.0734 -0.0168 -0.2861
  146SAPE   H5R16046   1.804   5.544  10.197 -0.5154  3.3228 -0.2012
  146SAPE   C2616047   1.888   5.579  10.005 -0.5709  0.3466 -0.3875
  146SAPE   H6R16048   1.793   5.560   9.953 -0.4871 -0.2054 -0.3373
  146SAPE   C2716049   2.006   5.622   9.919  0.0184  0.5055 -0.5263
  146SAPE   H7R16050   2.034   5.530   9.863  1.1310  0.5134 -0.0059
  146SAPE   H7S16051   2.098   5.644   9.978 -0.6339  1.7045  0.0833
  146SAPE   C2816052   1.967   5.725   9.819  0.3108 -0.7910  0.1875
  146SAPE   H8R16053   2.001   5.823   9.855 -4.0386  0.2085  2.2217
  146SAPE   C2916054   1.914   5.713   9.696  0.0457  0.0303  0.3422
  146SAPE   H9R16055   1.879   5.806   9.648 -0.6090 -0.4858 -0.1815
  146SAPE  C21016056   1.868   5.585   9.633  0.4553 -0.2113 -0.0430
  146SAPE  H10R16057   1.760   5.592   9.610 -0.1613 -3.6745  1.2579
  146SAPE  H10S16058   1.876   5.504   9.709  0.2070  0.1002  0.3198
  146SAPE  C21116059   1.942   5.557   9.506 -0.3133 -0.6055 -0.8884
  146SAPE  H11R16060   2.051   5.563   9.503 -0.3430  2.9341  0.1829
  146SAPE  C21216061   1.888   5.532   9.385  0.4490 -0.4101  0.6147
  146SAPE  H12R16062   1.958   5.539   9.301 -0.9607  2.6176 -0.4428
  146SAPE  C21316063   1.740   5.528   9.337 -0.9190 -0.0028  0.5289
  146SAPE  H13R16064   1.686   5.599   9.402  0.2946  1.4686 -0.0104
  146SAPE  H13S16065   1.701   5.424   9.345 -1.6462  0.3193  1.3708
  146SAPE  C21416066   1.737   5.591   9.200 -0.0020  0.2822 -0.1179
  146SAPE  H14R16067   1.803   5.679   9.199 -0.1510  0.4446  1.5986
  146SAPE  C21516068   1.676   5.543   9.090  0.2543 -0.1878  0.1541
  146SAPE  H15R16069   1.685   5.597   8.995 -1.0731  2.1518  1.2849
  146SAPE  C21616070   1.592   5.420   9.089 -0.5590  0.3840  0.1893
  146SAPE  H16R16071   1.571   5.387   9.193 -0.8170  1.5531  0.5211
  146SAPE  H16S16072   1.649   5.344   9.031 -0.4562  0.7016 -0.1321
  146SAPE  C21716073   1.449   5.452   9.045 -0.2415 -0.5076 -0.0994
  146SAPE  H17R16074   1.451   5.503   8.946 -0.3254  1.9669  1.1192
  146SAPE  H17S16075   1.389   5.530   9.095  0.3192 -0.7786  1.0349
  146SAPE  C21816076   1.365   5.323   9.041 -0.4547  0.3409 -0.0396
  146SAPE  H18R16077   1.363   5.269   9.138 -0.5517 -0.7020 -0.6022
  146SAPE  H18S16078   1.412   5.254   8.966  0.2343  0.2050  0.5108
  146SAPE  C21916079   1.226   5.353   8.989  0.6750 -0.5717 -0.1419
  146SAPE  H19R16080   1.236   5.385   8.883  1.8532  1.0889  0.4269
  146SAPE  H19S16081   1.193   5.440   9.050  1.1283 -0.3818 -0.1609
  146SAPE  C22016082   1.130   5.243   8.995  0.2906  0.1177  0.1490
  146SAPE  H20R16083   1.142   5.190   9.092  0.5365 -0.9668 -0.4609
  146SAPE  H20S16084   1.158   5.177   8.910 -1.5806 -2.0855  1.1544
  146SAPE  H20T16085   1.027   5.281   8.982  0.7046  1.3385  0.3022
  146SAPE   C3316086   1.959   5.083   9.940 -0.1841  0.1839 -0.4662
  146SAPE   H3X16087   2.068   5.094   9.962  0.2268 -1.6873 -1.3666
  146SAPE   H3Y16088   1.913   5.184   9.949 -2.0333 -0.7354  1.1095
  146SAPE   C3416089   1.940   5.042   9.794  0.3447  0.0770  0.1963
  146SAPE   H4X16090   1.832   5.039   9.765  0.4512  0.1517 -0.2271
  146SAPE   H4Y16091   1.990   4.946   9.772  0.7333  0.3239 -0.0066
  146SAPE   C3516092   2.017   5.140   9.700 -0.6776 -0.2404  0.0137
  146SAPE   H5X16093   2.121   5.139   9.738 -0.2587  0.2773 -1.0529
  146SAPE   H5Y16094   1.984   5.246   9.707  0.2305  0.0527  0.0017
  146SAPE   C3616095   2.017   5.097   9.553 -0.2886 -0.3678  0.6824
  146SAPE   H6X16096   2.069   5.000   9.538 -0.0478  0.1998 -3.4071
  146SAPE   H6Y16097   2.078   5.172   9.500 -0.1150 -0.0271  1.3646
  146SAPE   C3716098   1.882   5.087   9.482  0.0140 -0.0575  0.3300
  146SAPE   H7X16099   1.822   5.178   9.501  1.4038  0.5177  2.3392
  146SAPE   H7Y16100   1.813   5.013   9.529  0.4782 -0.1783  0.8331
  146SAPE   C3816101   1.896   5.070   9.329 -0.4514 -0.1257 -0.0939
  146SAPE   H8X16102   1.994   5.028   9.296  1.4962  1.7044  2.9078
  146SAPE   H8Y16103   1.901   5.177   9.300  0.9590  0.6428  2.6964
  146SAPE   C3916104   1.782   4.998   9.258  0.2263 -0.1736  0.1975
  146SAPE   H9X16105   1.681   5.044   9.260  0.0413 -0.3864 -2.0604
  146SAPE   H9Y16106   1.770   4.893   9.294 -0.1189 -0.3835 -0.5115
  146SAPE  C31016107   1.812   4.972   9.111 -0.1106  0.1890 -0.3649
  146SAPE  H10X16108   1.912   4.924   9.103 -0.4999 -0.4724 -1.6178
  146SAPE  H10Y16109   1.806   5.070   9.060 -1.4154  0.4437  0.2482
  146SAPE  C31116110   1.709   4.885   9.037  0.0093 -0.6498  0.5426
  146SAPE  H11X16111   1.615   4.945   9.032  0.6030  0.2078 -0.5761
  146SAPE  H11Y16112   1.691   4.795   9.099  1.6992  1.1049  3.8478
  146SAPE  C31216113   1.759   4.847   8.898  0.1030 -0.7684 -0.0890
  146SAPE  H12X16114   1.845   4.779   8.890  0.4013 -0.6378  1.6260
  146SAPE  H12Y16115   1.783   4.939   8.840 -0.1264 -1.4983 -1.4022
  146SAPE  C31316116   1.639   4.798   8.809  0.6158 -0.5773  0.1371
  146SAPE  H13X16117   1.675   4.833   8.710 -0.2945  0.2567  0.0783
  146SAPE  H13Y16118   1.560   4.873   8.830  2.9800  1.9903  0.5471
  146SAPE  C31416119   1.608   4.650   8.832 -0.1178 -0.2745 -0.0152
  146SAPE  H14X16120   1.501   4.636   8.804 -0.1807 -1.8342  0.9242
  146SAPE  H14Y16121   1.607   4.627   8.940  0.3064 -1.1770 -0.2008
  146SAPE  C31516122   1.706   4.556   8.759 -0.5721  0.2148  0.4853
  146SAPE  H15X16123   1.708   4.455   8.806 -0.0787 -1.4009 -2.6981
  146SAPE  H15Y16124   1.809   4.596   8.769 -1.4274  2.6621  0.2279
  146SAPE  C31616125   1.696   4.562   8.602 -0.9567 -0.3045  0.0769
  146SAPE  H16X16126   1.732   4.662   8.569  0.3072 -1.0702 -0.9284
  146SAPE  H16Y16127   1.590   4.556   8.568 -1.3516 -1.8757  1.4628
  146SAPE  C31716128   1.787   4.465   8.529 -0.0340  0.4696  0.0436
  146SAPE  H17X16129   1.736   4.368   8.545  2.3433 -0.6450  1.4255
  146SAPE  H17Y16130   1.890   4.467   8.572  0.4997  0.3517 -1.1936
  146SAPE  C31816131   1.821   4.503   8.384  0.0672 -0.3199  0.1367
  146SAPE  H18X16132   1.876   4.600   8.385  1.6509 -1.1830  0.4640
  146SAPE  H18Y16133   1.731   4.498   8.319  2.0442 -2.9140 -2.7317
  146SAPE  H18Z16134   1.893   4.443   8.324 -2.1932 -0.7280 -2.3773
  147SAPE     N16135   4.844   3.044   6.133  0.0125  0.2500 -0.3416
  147SAPE   HN116136   4.926   2.980   6.142 -1.0587 -1.0465  0.4866
  147SAPE   HN216137   4.756   2.996   6.105  0.3602  0.7172 -2.3389
  147SAPE   HN316138   4.859   3.119   6.063 -1.6948 -0.6176 -1.6990
  147SAPE   C1216139   4.833   3.115   6.270  0.6736 -0.6786 -0.1138
  147SAPE  H12A16140   4.853   3.223   6.259 -1.2891  0.2561  3.6137
  147SAPE  H12B16141   4.915   3.067   6.328  1.8987  0.5469 -0.7686
  147SAPE   C1116142   4.699   3.081   6.329  0.1959  0.0908 -0.3027
  147SAPE  H11A16143   4.696   3.119   6.433  0.3315  0.0178 -0.2720
  147SAPE  H11B16144   4.699   2.970   6.333 -1.0456  0.0840 -0.3011
  147SAPE     P16145   4.490   3.058   6.185  0.2376 -0.1743  0.2110
  147SAPE   O1316146   4.380   3.140   6.123 -0.0120  0.6633 -0.4630
  147SAPE   O1416147   4.570   2.976   6.089 -0.3309 -0.5571  0.3403
  147SAPE   O1216148   4.591   3.144   6.255 -0.1400  0.4479 -0.1239
  147SAPE   O1116149   4.429   2.972   6.301 -0.1983 -0.1034  0.6660
  147SAPE    C116150   4.327   3.026   6.382  0.2847 -0.1033 -0.5775
  147SAPE    HA16151   4.301   3.133   6.369 -1.2232 -0.3297  0.3178
  147SAPE    HB16152   4.240   2.958   6.368  0.3698 -0.5791  1.0142
  147SAPE    C216153   4.350   3.007   6.530  0.4021  0.2286 -0.0410
  147SAPE    HS16154   4.247   3.024   6.569 -0.1897  2.4516 -2.3469
  147SAPE   O2116155   4.446   3.098   6.576  0.7292 -0.2010 -0.6262
  147SAPE   C2116156   4.424   3.154   6.685  0.5246 -1.0504  0.2104
  147SAPE   O2216157   4.336   3.122   6.768  0.5669 -0.0621 -0.6257
  147SAPE   C2216158   4.515   3.279   6.694  0.2037 -0.2795  0.4407
  147SAPE   H2R16159   4.568   3.282   6.791  1.5624  0.1362 -0.2870
  147SAPE   H2S16160   4.581   3.268   6.605 -0.3646 -0.2199  0.0048
  147SAPE    C316161   4.405   2.875   6.574 -0.0434  0.6819  0.5762
  147SAPE    HX16162   4.512   2.858   6.550  0.1552 -0.7991  2.2833
  147SAPE    HY16163   4.351   2.796   6.517  1.2252  1.6571 -2.1045
  147SAPE   O3116164   4.368   2.846   6.713 -0.2003 -0.3676  0.2845
  147SAPE   C3116165   4.474   2.845   6.799 -0.5347 -0.3500  0.0050
  147SAPE   O3216166   4.588   2.880   6.774 -0.2211 -0.2511  0.5944
  147SAPE   C3216167   4.436   2.775   6.933 -0.3703 -0.6839 -0.2092
  147SAPE   H2X16168   4.518   2.702   6.942 -0.1962 -0.2579  2.2786
  147SAPE   H2Y16169   4.348   2.707   6.935 -0.7296 -0.3736 -2.2936
  147SAPE   C2316170   4.441   3.410   6.690  0.3687  0.0793 -0.3327
  147SAPE   H3R16171   4.355   3.398   6.621  0.7650  0.8129 -0.9696
  147SAPE   H3S16172   4.499   3.496   6.651 -1.1168 -0.5139 -4.3553
  147SAPE   C2416173   4.378   3.445   6.829  0.0700 -0.2212 -0.1843
  147SAPE   H4R16174   4.305   3.368   6.862  0.3479 -0.0047  1.0085
  147SAPE   H4S16175   4.320   3.534   6.798  0.0384 -0.5435 -1.0536
  147SAPE   C2516176   4.467   3.488   6.941  0.2705  0.0211 -0.3415
  147SAPE   H5R16177   4.556   3.538   6.900  0.5107 -0.0635  0.0796
  147SAPE   C2616178   4.451   3.479   7.074 -0.2498 -1.1245 -0.1014
  147SAPE   H6R16179   4.543   3.492   7.134  0.8663 -1.3360 -1.7068
  147SAPE   C2716180   4.336   3.421   7.147 -0.3706  0.1846  0.0216
  147SAPE   H7R16181   4.348   3.311   7.147 -1.1810  0.0873  0.2593
  147SAPE   H7S16182   4.242   3.427   7.087 -1.2162  2.2621  1.4380
  147SAPE   C2816183   4.305   3.471   7.287  0.1598  0.5247 -0.4434
  147SAPE   H8R16184   4.236   3.556   7.301  1.7742  1.6155  1.2708
  147SAPE   C2916185   4.349   3.398   7.393 -0.1893  0.7419  0.0184
  147SAPE   H9R16186   4.310   3.438   7.488 -0.6585  1.1675 -0.3470
  147SAPE  C21016187   4.431   3.272   7.393 -0.6962 -0.0959 -1.0961
  147SAPE  H10R16188   4.407   3.211   7.303 -0.5254 -1.0010 -0.5386
  147SAPE  H10S16189   4.409   3.210   7.483 -1.9768 -0.6870 -1.7893
  147SAPE  C21116190   4.579   3.294   7.388 -0.1302 -0.8685  0.1198
  147SAPE  H11R16191   4.620   3.278   7.287 -0.9039 -1.5771 -0.0986
  147SAPE  C21216192   4.657   3.321   7.492  0.4523  0.6800  0.0899
  147SAPE  H12R16193   4.763   3.338   7.467  1.1745 -3.0738  0.0291
  147SAPE  C21316194   4.610   3.333   7.635 -0.3579  0.0029  0.4946
  147SAPE  H13R16195   4.500   3.318   7.636 -0.9467  1.9605 -4.6107
  147SAPE  H13S16196   4.638   3.436   7.667 -0.7143 -0.4748  2.5157
  147SAPE  C21416197   4.684   3.225   7.713  0.1435  0.0461  0.5547
  147SAPE  H14R16198   4.760   3.165   7.661 -1.4329  0.7471 -2.8824
  147SAPE  C21516199   4.670   3.199   7.842 -0.1616 -0.4884 -0.9239
  147SAPE  H15R16200   4.721   3.121   7.901  2.3203  1.2342 -0.6279
  147SAPE  C21616201   4.572   3.291   7.915  0.4542 -0.4356  0.0954
  147SAPE  H16R16202   4.517   3.233   7.992  1.0854 -1.8534 -0.4872
  147SAPE  H16S16203   4.504   3.355   7.855  0.4034 -0.3418  0.2515
  147SAPE  C21716204   4.642   3.410   7.989  0.3831  0.1101  0.5997
  147SAPE  H17R16205   4.569   3.488   8.019  1.9701  0.6179  3.5494
  147SAPE  H17S16206   4.717   3.459   7.922 -0.8583 -1.3727 -2.0414
  147SAPE  C21816207   4.712   3.365   8.117  0.6568 -0.6691 -0.3568
  147SAPE  H18R16208   4.799   3.298   8.097  1.7557 -0.4024  2.8714
  147SAPE  H18S16209   4.636   3.324   8.186  1.6760  0.7295  1.7009
  147SAPE  C21916210   4.763   3.493   8.177  0.1607 -0.4144 -0.1936
  147SAPE  H19R16211   4.689   3.575   8.160  0.4355  0.1072  1.0449
  147SAPE  H19S16212   4.858   3.525   8.128  0.8340  1.8798  2.3786
  147SAPE  C22016213   4.772   3.498   8.330  0.2523  0.6618 -0.2451
  147SAPE  H20R16214   4.676   3.477   8.382  0.8833  1.8221  1.5090
  147SAPE  H20S16215   4.815   3.589   8.376  3.2603 -0.8696  0.2586
  147SAPE  H20T16216   4.840   3.421   8.372  0.5305  1.8113  1.5388
  147SAPE   C3316217   4.420   2.875   7.051  0.2649  0.4529 -0.2342
  147SAPE   H3X16218   4.333   2.941   7.031  0.5776  1.5162  1.6358
  147SAPE   H3Y16219   4.513   2.937   7.051  0.6292 -0.0838 -1.3358
  147SAPE   C3416220   4.408   2.798   7.183  0.0203 -0.1251  0.0723
  147SAPE   H4X16221   4.481   2.718   7.206  0.0162 -0.1222  0.0952
  147SAPE   H4Y16222   4.311   2.743   7.183 -0.4038  0.5923  1.0691
  147SAPE   C3516223   4.399   2.899   7.300  0.7885  0.5278 -0.3574
  147SAPE   H5X16224   4.312   2.968   7.291 -0.3035 -0.4062  2.1637
  147SAPE   H5Y16225   4.483   2.971   7.294 -0.1035  1.8294  1.6893
  147SAPE   C3616226   4.399   2.824   7.436  1.1103  0.0526  0.0234
  147SAPE   H6X16227   4.506   2.798   7.450  1.6207  1.5225 -0.9278
  147SAPE   H6Y16228   4.326   2.740   7.436 -1.0917  1.8739 -1.4682
  147SAPE   C3716229   4.355   2.909   7.557 -0.3107  0.3957  0.1508
  147SAPE   H7X16230   4.246   2.924   7.543 -0.2719  0.9831  0.4437
  147SAPE   H7Y16231   4.399   3.010   7.565  0.2162  0.1109  1.0673
  147SAPE   C3816232   4.368   2.827   7.687  0.4196  0.3612 -0.5610
  147SAPE   H8X16233   4.474   2.819   7.719 -0.2676  0.0878  1.9178
  147SAPE   H8Y16234   4.336   2.721   7.681  0.9718  0.0892  0.8321
  147SAPE   C3916235   4.285   2.902   7.796 -0.8995  0.3232  0.3977
  147SAPE   H9X16236   4.185   2.935   7.760 -0.4712  2.7057  1.1985
  147SAPE   H9Y16237   4.343   2.996   7.808 -0.0469 -0.3356  1.5517
  147SAPE  C31016238   4.255   2.825   7.925 -0.1380 -0.2943 -0.2460
  147SAPE  H10X16239   4.182   2.745   7.901 -0.5872  0.1870 -0.5066
  147SAPE  H10Y16240   4.206   2.889   8.001 -1.2414 -0.4221 -0.8348
  147SAPE  C31116241   4.380   2.764   7.992 -0.0626  0.4683 -0.5316
  147SAPE  H11X16242   4.452   2.846   8.014 -0.8804  0.7018  1.5623
  147SAPE  H11Y16243   4.431   2.698   7.919  0.7806 -0.8865  1.1916
  147SAPE  C31216244   4.338   2.696   8.122  0.2626  0.4761  0.1646
  147SAPE  H12X16245   4.250   2.631   8.103 -0.5812  1.5716  0.2258
  147SAPE  H12Y16246   4.308   2.776   8.193 -0.7791 -1.0663  1.5477
  147SAPE  C31316247   4.450   2.616   8.186  0.2981 -0.0814 -0.0856
  147SAPE  H13X16248   4.538   2.681   8.204  0.4840  0.2862 -2.0538
  147SAPE  H13Y16249   4.479   2.527   8.126 -4.5008 -2.2932  0.3295
  147SAPE  C31416250   4.394   2.561   8.319 -0.1259 -1.3905 -0.2962
  147SAPE  H14X16251   4.289   2.528   8.308 -0.0610 -1.8092  0.2956
  147SAPE  H14Y16252   4.383   2.647   8.388  3.5623 -1.5952  0.7556
  147SAPE  C31516253   4.495   2.468   8.387  0.2391 -0.2113  0.4370
  147SAPE  H15X16254   4.596   2.516   8.392  0.6503 -1.0404  0.2999
  147SAPE  H15Y16255   4.506   2.374   8.330  1.3426  0.2303 -0.1287
  147SAPE  C31616256   4.455   2.437   8.530 -0.0700  0.6972 -0.5868
  147SAPE  H16X16257   4.359   2.383   8.536  0.1906  0.3864  1.4439
  147SAPE  H16Y16258   4.446   2.535   8.582  2.5517  0.1026  1.1805
  147SAPE  C31716259   4.567   2.355   8.602 -0.0786 -0.5685 -0.2394
  147SAPE  H17X16260   4.658   2.419   8.611  1.0544 -1.9619 -1.3065
  147SAPE  H17Y16261   4.603   2.268   8.543  0.1012 -0.0472 -0.9064
  147SAPE  C31816262   4.531   2.315   8.747  0.2121  0.0645 -0.0640
  147SAPE  H18X16263   4.446   2.244   8.750  1.2825 -1.2392  0.3545
  147SAPE  H18Y16264   4.507   2.403   8.811  0.3060 -1.3207  1.9778
  147SAPE  H18Z16265   4.607   2.266   8.811 -1.0797  0.3144  1.7498
  148SAPE     N16266   4.361   0.769   6.683 -0.0260  0.5640 -0.6311
  148SAPE   HN116267   4.357   0.865   6.645 -3.7337 -0.0289 -2.0968
  148SAPE   HN216268   4.417   0.755   6.770  1.6003 -2.7714 -2.0030
  148SAPE   HN316269   4.401   0.704   6.612  0.4291  0.5433 -0.3605
  148SAPE   C1216270   4.219   0.727   6.715  0.8371 -0.6778  0.3534
  148SAPE  H12A16271   4.220   0.642   6.787 -2.1166 -1.7131 -0.6685
  148SAPE  H12B16272   4.181   0.684   6.621 -0.4931 -1.8665  1.3956
  148SAPE   C1116273   4.134   0.845   6.760 -0.2560  0.4642 -0.0908
  148SAPE  H11A16274   4.169   0.882   6.859 -0.7602 -1.4453  0.8409
  148SAPE  H11B16275   4.032   0.813   6.792  0.7066 -0.4714  2.2457
  148SAPE     P16276   4.190   1.075   6.681  0.2893 -0.4858 -0.0591
  148SAPE   O1316277   4.324   1.042   6.723 -0.5612 -0.0856  0.1649
  148SAPE   O1416278   4.170   1.168   6.565  0.3247 -0.0014 -0.1503
  148SAPE   O1216279   4.116   0.943   6.654  0.5469  0.1469  0.5001
  148SAPE   O1116280   4.116   1.137   6.804  0.0330 -0.1010  0.3333
  148SAPE    C116281   3.983   1.191   6.795  0.1045 -0.3587 -0.1208
  148SAPE    HA16282   3.921   1.141   6.718  0.8659  0.0990 -1.0419
  148SAPE    HB16283   3.935   1.179   6.895  0.9760  0.4005  0.4067
  148SAPE    C216284   3.978   1.341   6.756 -0.2679  0.4389 -0.1439
  148SAPE    HS16285   4.050   1.356   6.673 -0.0398  1.0742  0.1544
  148SAPE   O2116286   4.036   1.408   6.871 -0.2204  0.1218 -0.2265
  148SAPE   C2116287   4.108   1.514   6.842  0.6209 -0.9548 -0.2188
  148SAPE   O2216288   4.137   1.555   6.733  0.1136 -0.0467  0.1469
  148SAPE   C2216289   4.153   1.585   6.974 -0.2814 -0.3237 -0.0965
  148SAPE   H2R16290   4.061   1.601   7.035  1.4099 -2.0204  3.1603
  148SAPE   H2S16291   4.211   1.513   7.035  0.8427 -0.5461 -1.3911
  148SAPE    C316292   3.842   1.401   6.715 -0.2269 -0.1099  0.0479
  148SAPE    HX16293   3.822   1.361   6.613 -0.7037 -0.5776  0.3193
  148SAPE    HY16294   3.858   1.510   6.706 -1.5380  0.0644 -0.4169
  148SAPE   O3116295   3.738   1.373   6.809  0.0238 -0.1266  0.3225
  148SAPE   C3116296   3.639   1.303   6.759 -0.2564 -0.6671  0.0123
  148SAPE   O3216297   3.625   1.252   6.650  0.4422 -0.3772  0.2694
  148SAPE   C3216298   3.529   1.317   6.865 -0.8244  0.5510  0.0127
  148SAPE   H2X16299   3.529   1.409   6.927  1.5566  0.6378 -0.0566
  148SAPE   H2Y16300   3.529   1.232   6.936  2.8624 -0.1993 -0.6871
  148SAPE   C2316301   4.237   1.708   6.959  0.0706 -0.7128 -0.3369
  148SAPE   H3R16302   4.176   1.775   6.895  3.0143  1.5417 -1.0218
  148SAPE   H3S16303   4.335   1.686   6.911 -0.0638 -1.7615 -0.1485
  148SAPE   C2416304   4.275   1.793   7.090  0.1133  0.0238 -0.4904
  148SAPE   H4R16305   4.184   1.815   7.150 -0.2007 -0.5224 -0.7487
  148SAPE   H4S16306   4.323   1.888   7.059  2.1533 -0.4414  1.0743
  148SAPE   C2516307   4.372   1.717   7.183  0.1338  0.5046  0.4004
  148SAPE   H5R16308   4.455   1.663   7.134 -1.0227 -1.1060  0.1308
  148SAPE   C2616309   4.364   1.709   7.320  0.0364  0.7530 -0.3636
  148SAPE   H6R16310   4.433   1.640   7.371  1.0878  2.4306  0.5574
  148SAPE   C2716311   4.252   1.766   7.412  0.4822 -0.4914 -0.0099
  148SAPE   H7R16312   4.151   1.766   7.365  0.5171 -0.5397 -0.0869
  148SAPE   H7S16313   4.265   1.872   7.439 -0.4800 -0.6167  1.0368
  148SAPE   C2816314   4.257   1.685   7.533 -0.1095 -0.1090  0.0066
  148SAPE   H8R16315   4.326   1.727   7.607 -0.2680 -0.1670  0.1871
  148SAPE   C2916316   4.169   1.586   7.576 -0.3155  0.4759 -0.6025
  148SAPE   H9R16317   4.200   1.536   7.669 -1.4496  0.2824 -0.3221
  148SAPE  C21016318   4.048   1.528   7.505 -0.1491  0.0414  0.7114
  148SAPE  H10R16319   4.058   1.577   7.405 -0.6301  1.1746  1.2035
  148SAPE  H10S16320   3.950   1.560   7.546 -0.1576 -0.7824  1.3420
  148SAPE  C21116321   4.064   1.377   7.506  0.9932 -0.7551 -0.9020
  148SAPE  H11R16322   4.005   1.326   7.583 -0.0788  0.3187 -0.9871
  148SAPE  C21216323   4.128   1.299   7.417  0.0523 -0.4409 -0.2827
  148SAPE  H12R16324   4.119   1.190   7.425 -1.4364 -0.2687  0.7027
  148SAPE  C21316325   4.206   1.338   7.296  0.1890  0.5312  0.9709
  148SAPE  H13R16326   4.315   1.318   7.307  1.0800  3.6426 -0.9185
  148SAPE  H13S16327   4.213   1.447   7.277  1.1176  0.4104  0.5656
  148SAPE  C21416328   4.147   1.272   7.175  0.3448  0.3069  0.3759
  148SAPE  H14R16329   4.062   1.315   7.120  0.5187 -0.8745 -0.8757
  148SAPE  C21516330   4.198   1.152   7.123  0.8130 -1.0686  0.2624
  148SAPE  H15R16331   4.155   1.101   7.036  1.3571 -0.0906 -0.5953
  148SAPE  C21616332   4.304   1.071   7.191  0.4395  0.6512  0.0096
  148SAPE  H16R16333   4.260   1.017   7.278 -1.2362  0.5126 -0.8657
  148SAPE  H16S16334   4.388   1.130   7.232  1.3036 -1.6429  1.7481
  148SAPE  C21716335   4.350   0.956   7.098  0.0901  0.5589  0.5518
  148SAPE  H17R16336   4.384   0.997   7.001  0.0520 -1.8325 -0.5405
  148SAPE  H17S16337   4.259   0.896   7.081  0.1052  0.2466  1.4976
  148SAPE  C21816338   4.469   0.888   7.163  0.1447  1.0544  0.2781
  148SAPE  H18R16339   4.528   0.961   7.221 -1.4889  1.1726  1.8758
  148SAPE  H18S16340   4.532   0.845   7.082 -0.2590 -3.0909  1.9118
  148SAPE  C21916341   4.429   0.767   7.255 -0.0105 -0.5200 -0.0652
  148SAPE  H19R16342   4.369   0.698   7.192  0.2117 -0.4085 -0.4047
  148SAPE  H19S16343   4.353   0.807   7.325 -1.2388  3.5252 -3.2762
  148SAPE  C22016344   4.555   0.699   7.310 -0.1945 -0.4711  0.0974
  148SAPE  H20R16345   4.630   0.660   7.237 -0.1126 -1.4294  0.6858
  148SAPE  H20S16346   4.534   0.608   7.370  1.3605  0.0587  1.5548
  148SAPE  H20T16347   4.609   0.765   7.381 -0.2049  1.9824 -2.0200
  148SAPE   C3316348   3.394   1.330   6.799 -0.1529  0.0055  0.4892
  148SAPE   H3X16349   3.374   1.232   6.751 -1.7823  0.2781  0.5720
  148SAPE   H3Y16350   3.392   1.400   6.713  1.4534  2.0620  2.0132
  148SAPE   C3416351   3.272   1.362   6.889 -0.2548  0.3616  0.0217
  148SAPE   H4X16352   3.242   1.279   6.956 -1.2530  0.9159  0.2709
  148SAPE   H4Y16353   3.179   1.386   6.834 -0.5007  1.5772  0.9489
  148SAPE   C3516354   3.291   1.474   6.988  0.4456 -0.5345  0.2052
  148SAPE   H5X16355   3.345   1.563   6.950 -2.3135  0.4711 -1.7099
  148SAPE   H5Y16356   3.346   1.438   7.078  1.0631  1.2519  0.6006
  148SAPE   C3616357   3.157   1.529   7.036  0.7641 -0.1883 -0.6644
  148SAPE   H6X16358   3.078   1.467   6.989  0.8812 -0.5475 -0.3932
  148SAPE   H6Y16359   3.154   1.636   7.003  1.0913 -0.5137 -1.8079
  148SAPE   C3716360   3.151   1.538   7.189  0.3754 -0.2735  0.1848
  148SAPE   H7X16361   3.109   1.450   7.241 -0.7302  1.5392  2.5604
  148SAPE   H7Y16362   3.072   1.615   7.206  1.5654  0.7198  1.4682
  148SAPE   C3816363   3.267   1.580   7.275  0.2863 -0.2138  0.7083
  148SAPE   H8X16364   3.309   1.677   7.240  0.5994 -0.8961 -0.8811
  148SAPE   H8Y16365   3.343   1.499   7.273  0.9464  0.3622 -1.7852
  148SAPE   C3916366   3.216   1.592   7.419 -0.0279  0.0574 -0.6674
  148SAPE   H9X16367   3.194   1.489   7.453 -1.7144  0.4495 -0.5204
  148SAPE   H9Y16368   3.127   1.656   7.433 -0.4558 -0.8781  1.3102
  148SAPE  C31016369   3.323   1.657   7.502 -0.7057 -0.1326 -0.5662
  148SAPE  H10X16370   3.334   1.767   7.488  1.3681 -0.5183 -2.8100
  148SAPE  H10Y16371   3.425   1.617   7.481 -0.6038  0.5094 -1.3629
  148SAPE  C31116372   3.305   1.627   7.657  0.0701  0.2284  0.1862
  148SAPE  H11X16373   3.206   1.670   7.682  0.7735  2.0532 -0.0135
  148SAPE  H11Y16374   3.391   1.683   7.699  0.6897  0.0221 -0.7587
  148SAPE  C31216375   3.332   1.483   7.697  0.6680  0.0391 -0.3160
  148SAPE  H12X16376   3.415   1.461   7.626 -0.3918 -2.3190 -0.9146
  148SAPE  H12Y16377   3.241   1.420   7.684 -0.6450  2.1629 -2.2975
  148SAPE  C31316378   3.392   1.472   7.837  0.0564  0.1371  0.3600
  148SAPE  H13X16379   3.483   1.536   7.841  1.1860 -1.4757  1.9984
  148SAPE  H13Y16380   3.427   1.368   7.856 -1.5489 -0.7209 -1.1196
  148SAPE  C31416381   3.290   1.515   7.940 -0.1900  0.5392  0.1147
  148SAPE  H14X16382   3.193   1.461   7.924 -0.4340  0.8424  0.5702
  148SAPE  H14Y16383   3.272   1.622   7.920  0.5782  0.3697 -1.7293
  148SAPE  C31516384   3.343   1.508   8.085  0.3559  0.3753 -0.2593
  148SAPE  H15X16385   3.276   1.567   8.150  0.0568  0.7163 -0.8718
  148SAPE  H15Y16386   3.439   1.565   8.088  0.4189  0.2832 -0.4887
  148SAPE  C31616387   3.355   1.363   8.136 -0.6763 -0.8356  0.5851
  148SAPE  H16X16388   3.432   1.304   8.081  0.1579 -1.2132  2.0971
  148SAPE  H16Y16389   3.262   1.310   8.108 -1.6173  1.4210 -0.8528
  148SAPE  C31716390   3.382   1.368   8.284 -0.0302  0.5725 -0.3750
  148SAPE  H17X16391   3.313   1.429   8.346  2.1072  1.1352  1.6059
  148SAPE  H17Y16392   3.482   1.415   8.295  0.1421  0.0715  0.3110
  148SAPE  C31816393   3.371   1.231   8.350 -0.1697 -0.0464 -0.3788
  148SAPE  H18X16394   3.396   1.218   8.457  0.7489 -0.1994 -0.6060
  148SAPE  H18Y16395   3.441   1.166   8.292 -1.3017 -1.0934 -0.6104
  148SAPE  H18Z16396   3.270   1.187   8.337 -0.0568 -0.7100  0.8820
  149SAPE     N16397   4.412   1.895   6.406 -0.8923 -0.5698  0.2247
  149SAPE   HN116398   4.352   1.874   6.323  1.3282 -1.1094 -1.3360
  149SAPE   HN216399   4.502   1.941   6.381 -1.0115  0.4788  1.6156
  149SAPE   HN316400   4.447   1.811   6.455  2.0317  0.4564  0.1231
  149SAPE   C1216401   4.351   1.987   6.516  0.2092  0.4836 -0.5020
  149SAPE  H12A16402   4.336   2.084   6.465  1.1916  0.7782 -0.2381
  149SAPE  H12B16403   4.424   1.994   6.599 -0.8821  0.5905  0.4821
  149SAPE   C1116404   4.213   1.928   6.557 -0.2326  0.1182  0.3677
  149SAPE  H11A16405   4.170   1.994   6.635  1.0834 -1.0225  2.1660
  149SAPE  H11B16406   4.239   1.828   6.599  0.2836 -0.7068 -1.7921
  149SAPE     P16407   4.024   2.008   6.404  0.2981  0.3952  0.1237
  149SAPE   O1316408   4.082   2.144   6.399  0.5292 -0.1697  0.2436
  149SAPE   O1416409   3.957   1.959   6.282 -0.2178 -0.0934  0.1846
  149SAPE   O1216410   4.130   1.901   6.444 -0.1540  0.0759  0.1418
  149SAPE   O1116411   3.922   1.998   6.520  0.5603 -0.2624  0.4855
  149SAPE    C116412   3.872   1.885   6.580 -0.3470  0.6794  0.4566
  149SAPE    HA16413   3.848   1.803   6.510 -0.1356  0.0160  1.1397
  149SAPE    HB16414   3.945   1.856   6.659  2.0246  1.5847 -1.2969
  149SAPE    C216415   3.728   1.917   6.642 -0.3652 -0.4186 -0.4575
  149SAPE    HS16416   3.675   1.977   6.565  1.7958  1.6461 -0.4769
  149SAPE   O2116417   3.750   1.991   6.760  0.5356 -0.3149 -0.1043
  149SAPE   C2116418   3.660   2.070   6.797 -0.0764  0.2622 -0.1882
  149SAPE   O2216419   3.549   2.081   6.750 -0.1072  0.2468 -0.2262
  149SAPE   C2216420   3.705   2.152   6.915  0.1881  0.1715 -0.0780
  149SAPE   H2R16421   3.816   2.157   6.913  0.3520 -2.4952 -1.4565
  149SAPE   H2S16422   3.678   2.257   6.891 -0.2311 -0.2294 -1.4286
  149SAPE    C316423   3.653   1.790   6.683 -0.2263  1.0310 -0.7843
  149SAPE    HX16424   3.643   1.729   6.590 -1.0298  1.5327 -1.0365
  149SAPE    HY16425   3.549   1.818   6.711  0.2046  0.6005  1.3690
  149SAPE   O3116426   3.733   1.724   6.783 -0.0045 -0.3486  0.2184
  149SAPE   C3116427   3.667   1.723   6.904 -0.4967  0.7144 -0.0732
  149SAPE   O3216428   3.551   1.754   6.925 -0.1433  0.4656 -0.1479
  149SAPE   C3216429   3.776   1.694   7.008  0.2036  0.6244 -0.9120
  149SAPE   H2X16430   3.843   1.780   6.990 -2.2478  2.6104 -1.1787
  149SAPE   H2Y16431   3.820   1.595   6.983 -0.2784  0.2236 -0.2160
  149SAPE   C2316432   3.645   2.111   7.051 -0.4468  0.2347  0.1619
  149SAPE   H3R16433   3.653   2.003   7.073 -1.9427 -0.3890 -2.0866
  149SAPE   H3S16434   3.539   2.143   7.044 -0.8087 -1.1845 -1.4807
  149SAPE   C2416435   3.728   2.187   7.159  0.0531  0.0670 -0.6424
  149SAPE   H4R16436   3.675   2.182   7.257 -0.3760 -0.8616 -0.9032
  149SAPE   H4S16437   3.732   2.296   7.137  2.5920  0.1420 -0.0448
  149SAPE   C2516438   3.869   2.143   7.172  0.2504 -0.3973 -0.7726
  149SAPE   H5R16439   3.929   2.183   7.088  0.0837  1.0084 -0.2494
  149SAPE   C2616440   3.920   2.065   7.269 -0.1061  0.3957 -0.5408
  149SAPE   H6R16441   4.029   2.051   7.263 -0.0068  1.0643 -0.4356
  149SAPE   C2716442   3.842   2.002   7.384  0.7902 -0.1547 -0.6720
  149SAPE   H7R16443   3.863   1.893   7.392 -1.1704 -0.6388 -1.6313
  149SAPE   H7S16444   3.734   2.005   7.357  0.7714  0.7845 -0.5358
  149SAPE   C2816445   3.844   2.077   7.515 -0.0888  1.2485  0.0340
  149SAPE   H8R16446   3.778   2.165   7.510 -0.9671  0.5355 -1.1110
  149SAPE   C2916447   3.912   2.056   7.629 -0.2612 -0.7242 -0.3411
  149SAPE   H9R16448   3.900   2.131   7.708  2.2743  2.0274 -2.3484
  149SAPE  C21016449   4.012   1.955   7.650 -0.1910 -0.4792  0.4966
  149SAPE  H10R16450   4.062   1.916   7.558  1.1938  1.3720  0.3984
  149SAPE  H10S16451   3.956   1.867   7.689 -1.6052 -0.6382 -1.7091
  149SAPE  C21116452   4.116   2.007   7.748  0.3788 -0.6622  0.2841
  149SAPE  H11R16453   4.171   2.096   7.714 -1.7232  2.3667  4.0760
  149SAPE  C21216454   4.153   1.953   7.867 -0.4731  0.0874  0.7127
  149SAPE  H12R16455   4.234   2.002   7.923 -0.3366  0.1913  0.4271
  149SAPE  C21316456   4.109   1.826   7.921  0.8390 -0.0068 -0.6635
  149SAPE  H13R16457   4.113   1.760   7.832  2.2457  0.0260 -0.6505
  149SAPE  H13S16458   4.002   1.825   7.950  1.5379  2.1549  2.4834
  149SAPE  C21416459   4.193   1.788   8.037 -0.0673  0.6040 -0.0165
  149SAPE  H14R16460   4.205   1.866   8.113  1.8396 -0.0699  0.4273
  149SAPE  C21516461   4.239   1.666   8.056  0.2784 -0.6283 -0.6351
  149SAPE  H15R16462   4.303   1.647   8.143 -0.3542  1.5466  0.3768
  149SAPE  C21616463   4.207   1.539   7.983  0.0769  0.0934 -0.4101
  149SAPE  H16R16464   4.303   1.487   7.963  1.9872  1.7102  3.4659
  149SAPE  H16S16465   4.153   1.560   7.888 -3.8185 -0.4343  1.4942
  149SAPE  C21716466   4.112   1.446   8.070 -0.1781 -0.0945 -0.6567
  149SAPE  H17R16467   4.170   1.430   8.163 -0.6855  1.6134 -0.0043
  149SAPE  H17S16468   4.086   1.350   8.021  3.6147 -1.0043 -1.1982
  149SAPE  C21816469   3.967   1.499   8.113 -0.7051 -0.5965  0.2799
  149SAPE  H18R16470   3.902   1.484   8.024 -2.5750  0.8005  1.3339
  149SAPE  H18S16471   3.973   1.607   8.141 -0.8863 -0.0827 -1.4899
  149SAPE  C21916472   3.913   1.414   8.220 -0.6284  0.2674  0.0186
  149SAPE  H19R16473   3.977   1.431   8.310 -1.7884 -1.6020  1.2812
  149SAPE  H19S16474   3.920   1.311   8.179  1.5260  1.1870 -2.1262
  149SAPE  C22016475   3.768   1.439   8.252  0.5441  0.9956 -0.0241
  149SAPE  H20R16476   3.740   1.540   8.289  0.3524  1.6360 -1.8187
  149SAPE  H20S16477   3.754   1.374   8.340  1.6759 -0.9763 -1.2339
  149SAPE  H20T16478   3.699   1.413   8.169  0.1719 -0.2267  0.6582
  149SAPE   C3316479   3.710   1.701   7.144  0.0619 -0.7036 -0.6818
  149SAPE   H3X16480   3.627   1.629   7.145 -1.8824  1.4101  0.5621
  149SAPE   H3Y16481   3.690   1.804   7.181  2.7473 -1.1249  2.5412
  149SAPE   C3416482   3.797   1.635   7.258  0.7724 -0.7280 -0.9677
  149SAPE   H4X16483   3.739   1.640   7.353  0.2328  0.7108 -1.3499
  149SAPE   H4Y16484   3.885   1.700   7.277  0.7748 -0.6704 -1.1764
  149SAPE   C3516485   3.840   1.493   7.226  0.1916  0.4397 -0.6518
  149SAPE   H5X16486   3.895   1.460   7.317  0.0134 -2.1097 -1.3792
  149SAPE   H5Y16487   3.920   1.473   7.151  1.5043 -1.5329  1.1527
  149SAPE   C3616488   3.719   1.394   7.220 -0.3103 -0.2437 -0.0271
  149SAPE   H6X16489   3.670   1.412   7.122 -1.2839 -1.0792  0.2923
  149SAPE   H6Y16490   3.650   1.419   7.303  1.7347 -0.4676  1.8382
  149SAPE   C3716491   3.771   1.249   7.244  0.2015  0.0798  0.0201
  149SAPE   H7X16492   3.825   1.261   7.340 -0.4802  1.7806  0.2293
  149SAPE   H7Y16493   3.838   1.223   7.159 -0.8741  0.0399 -0.8412
  149SAPE   C3816494   3.663   1.138   7.249 -0.1525 -0.3362  0.2357
  149SAPE   H8X16495   3.716   1.042   7.271 -0.4496 -0.6037 -0.2054
  149SAPE   H8Y16496   3.606   1.127   7.154 -2.6599  2.3740  1.2864
  149SAPE   C3916497   3.552   1.164   7.354 -0.6149 -0.0238 -0.1183
  149SAPE   H9X16498   3.505   1.255   7.310 -1.4154 -0.7364 -0.7893
  149SAPE   H9Y16499   3.611   1.183   7.446  0.7153  2.0129 -1.3066
  149SAPE  C31016500   3.453   1.043   7.346  0.3422  0.1445 -0.2435
  149SAPE  H10X16501   3.510   0.950   7.367  0.0890  0.5145  2.4364
  149SAPE  H10Y16502   3.402   1.036   7.248 -1.3017 -0.3367  0.6071
  149SAPE  C31116503   3.358   1.046   7.467 -0.4352  0.0307 -0.5901
  149SAPE  H11X16504   3.421   1.049   7.559 -0.3124  2.3363 -0.6855
  149SAPE  H11Y16505   3.292   0.957   7.480 -0.4958  0.2335  0.5800
  149SAPE  C31216506   3.263   1.168   7.466  0.1092  0.0977 -0.5005
  149SAPE  H12X16507   3.221   1.178   7.363  0.9540  1.2732 -0.7521
  149SAPE  H12Y16508   3.312   1.265   7.489  1.1797 -0.7314  0.8291
  149SAPE  C31316509   3.145   1.139   7.567 -0.4980 -0.3368  0.0734
  149SAPE  H13X16510   3.093   1.054   7.519  0.4617 -0.6504 -0.4426
  149SAPE  H13Y16511   3.070   1.221   7.563 -1.5863 -1.3764 -1.7783
  149SAPE  C31416512   3.180   1.124   7.718  0.0074 -0.7522  0.7142
  149SAPE  H14X16513   3.227   1.217   7.758 -1.0339 -1.0954  2.8652
  149SAPE  H14Y16514   3.252   1.042   7.735  1.8882  0.6262 -0.2087
  149SAPE  C31516515   3.054   1.091   7.803 -0.0360 -1.2034  0.0441
  149SAPE  H15X16516   2.987   1.006   7.778 -0.6607 -1.2412  1.7205
  149SAPE  H15Y16517   2.985   1.178   7.791 -1.3222 -2.4044 -1.7901
  149SAPE  C31616518   3.098   1.079   7.950  0.1314  0.3046  0.3279
  149SAPE  H16X16519   3.025   1.130   8.017  0.5205  2.1224 -0.5742
  149SAPE  H16Y16520   3.198   1.127   7.952  0.6168 -0.6436 -0.5136
  149SAPE  C31716521   3.121   0.933   7.992 -0.1857  0.3606  0.2263
  149SAPE  H17X16522   3.207   0.897   7.931 -0.0981 -0.9771  1.1033
  149SAPE  H17Y16523   3.030   0.877   7.962  1.2805 -2.3508  0.4720
  149SAPE  C31816524   3.146   0.904   8.142 -0.2193  0.0686  0.6020
  149SAPE  H18X16525   3.138   0.795   8.163  2.9884 -0.9788 -2.6025
  149SAPE  H18Y16526   3.074   0.956   8.209 -2.2027 -1.8022  0.0297
  149SAPE  H18Z16527   3.251   0.933   8.164 -0.3538  2.8415 -1.7061
  150SAPE     N16528   1.315   2.691   6.509  0.5742 -0.0570 -0.2505
  150SAPE   HN116529   1.224   2.717   6.552 -0.8805 -1.3976 -2.3334
  150SAPE   HN216530   1.360   2.763   6.449 -0.5230 -0.3118 -1.4143
  150SAPE   HN316531   1.303   2.604   6.453 -2.7724 -0.6593  1.1400
  150SAPE   C1216532   1.424   2.671   6.610  0.5248 -0.6097 -0.3988
  150SAPE  H12A16533   1.515   2.651   6.549  2.2062  1.8260  1.1311
  150SAPE  H12B16534   1.393   2.579   6.665 -0.4849 -0.5463 -0.8332
  150SAPE   C1116535   1.446   2.792   6.703  0.0325  0.1154  0.0629
  150SAPE  H11A16536   1.515   2.764   6.786  0.3166 -1.5902 -0.7107
  150SAPE  H11B16537   1.357   2.818   6.764 -0.4640 -1.5277  0.0651
  150SAPE     P16538   1.653   2.937   6.616  0.1109  0.6233  0.2509
  150SAPE   O1316539   1.713   2.836   6.525 -0.5728 -0.1088  0.0643
  150SAPE   O1416540   1.665   3.079   6.574 -0.3267 -0.0358  0.3700
  150SAPE   O1216541   1.503   2.905   6.639  0.2010  0.3389  0.0546
  150SAPE   O1116542   1.716   2.924   6.767 -0.5057  0.5169  0.1967
  150SAPE    C116543   1.660   3.000   6.876  0.2139 -0.3664 -0.4271
  150SAPE    HA16544   1.564   3.051   6.851  0.2226  0.1345  0.5073
  150SAPE    HB16545   1.636   2.926   6.955  1.8182 -0.0528  0.4141
  150SAPE    C216546   1.765   3.104   6.927 -0.0470 -0.2479  0.5359
  150SAPE    HS16547   1.796   3.156   6.834 -3.9302  0.5798 -0.4628
  150SAPE   O2116548   1.862   3.029   7.001  0.0486 -0.3535  0.5600
  150SAPE   C2116549   1.986   3.058   6.967  0.6620 -0.0692 -0.2464
  150SAPE   O2216550   2.014   3.126   6.875  0.4276 -0.2296  0.3079
  150SAPE   C2216551   2.078   2.996   7.064 -0.4993 -0.4714 -0.1293
  150SAPE   H2R16552   2.054   2.888   7.075  0.9451 -0.6059  2.7321
  150SAPE   H2S16553   2.174   3.000   7.008  0.6103  0.5850  1.7565
  150SAPE    C316554   1.695   3.213   7.012  0.1564  0.7166  0.1125
  150SAPE    HX16555   1.656   3.167   7.105  1.8979 -1.2474 -0.0600
  150SAPE    HY16556   1.604   3.260   6.970 -0.8112 -0.9603  0.2589
  150SAPE   O3116557   1.782   3.318   7.051  0.0836 -0.2961 -0.1886
  150SAPE   C3116558   1.792   3.419   6.964 -0.4621  0.2453 -0.3858
  150SAPE   O3216559   1.705   3.448   6.885 -0.2126  0.9036  0.7383
  150SAPE   C3216560   1.928   3.475   6.969 -0.1994 -0.8365  0.0346
  150SAPE   H2X16561   1.948   3.490   6.861  1.9031 -1.3074  0.3201
  150SAPE   H2Y16562   1.996   3.405   7.022 -1.0091 -0.2640  1.9303
  150SAPE   C2316563   2.098   3.070   7.199 -0.0534 -0.6048  0.2509
  150SAPE   H3R16564   2.128   3.173   7.171  0.2112 -0.3896  1.2981
  150SAPE   H3S16565   2.184   3.023   7.251  2.8379  0.6082 -3.0725
  150SAPE   C2416566   1.982   3.072   7.294 -0.1445 -0.6224 -0.1401
  150SAPE   H4R16567   1.974   2.968   7.332 -0.2289 -0.6144 -0.1343
  150SAPE   H4S16568   1.889   3.104   7.242  0.2325 -0.3546 -0.6604
  150SAPE   C2516569   2.013   3.176   7.396  0.6164 -0.0248  0.0404
  150SAPE   H5R16570   2.041   3.276   7.359 -2.1445  1.0804  0.7174
  150SAPE   C2616571   2.019   3.150   7.531  0.5248 -0.2377  0.1302
  150SAPE   H6R16572   2.027   3.230   7.606  1.7831 -0.0626 -0.1791
  150SAPE   C2716573   1.985   3.018   7.598 -0.4200  0.4548 -0.9214
  150SAPE   H7R16574   1.880   2.997   7.569 -0.2200  0.1788 -1.4448
  150SAPE   H7S16575   1.978   3.040   7.707  0.2265 -3.5017  0.0652
  150SAPE   C2816576   2.083   2.904   7.565 -0.1306  0.3127  0.4726
  150SAPE   H8R16577   2.137   2.918   7.471 -2.4104 -1.6640 -1.2568
  150SAPE   C2916578   2.106   2.800   7.650  0.0886  0.3324  0.9996
  150SAPE   H9R16579   2.179   2.727   7.612 -0.7566 -0.1226  0.1918
  150SAPE  C21016580   2.046   2.774   7.785  0.5389  0.3120 -0.4609
  150SAPE  H10R16581   2.048   2.664   7.801 -0.7585  0.6570  2.9932
  150SAPE  H10S16582   1.941   2.811   7.790  1.0338  1.6183  1.4890
  150SAPE  C21116583   2.123   2.822   7.909 -0.1462 -0.7456  0.2513
  150SAPE  H11R16584   2.232   2.813   7.906 -0.1817 -2.8596  2.4539
  150SAPE  C21216585   2.068   2.859   8.019 -0.2801 -0.0708 -0.0779
  150SAPE  H12R16586   2.142   2.889   8.095  1.4460 -0.7519 -1.4128
  150SAPE  C21316587   1.922   2.859   8.065 -0.1457  0.1823 -0.4452
  150SAPE  H13R16588   1.911   2.876   8.174  2.4163 -1.1024  0.0998
  150SAPE  H13S16589   1.872   2.761   8.049 -1.1101  0.9654 -2.6923
  150SAPE  C21416590   1.820   2.968   8.017  1.3296  0.3006 -0.5409
  150SAPE  H14R16591   1.767   2.938   7.925  2.8697  0.4145 -1.4978
  150SAPE  C21516592   1.797   3.092   8.070 -0.5631  0.0460 -0.1274
  150SAPE  H15R16593   1.738   3.170   8.019  1.0385  1.9980  0.8463
  150SAPE  C21616594   1.872   3.144   8.189  0.0888  1.1802 -0.1322
  150SAPE  H16R16595   1.898   3.062   8.260 -2.3374  0.3745 -0.0824
  150SAPE  H16S16596   1.815   3.210   8.256 -1.4678 -1.0269  0.8495
  150SAPE  C21716597   2.000   3.213   8.145 -0.1667  0.4080 -0.3907
  150SAPE  H17R16598   2.066   3.131   8.108 -0.1997  0.2115 -0.0117
  150SAPE  H17S16599   2.058   3.239   8.236 -0.4655 -0.0091 -0.0799
  150SAPE  C21816600   1.975   3.331   8.053  0.5563  0.4958 -0.1443
  150SAPE  H18R16601   1.917   3.413   8.101 -0.2571 -0.9372  1.3902
  150SAPE  H18S16602   1.908   3.299   7.970  1.3996 -1.4118 -0.1380
  150SAPE  C21916603   2.104   3.373   7.974 -0.3328 -0.4507 -0.0348
  150SAPE  H19R16604   2.173   3.430   8.040 -0.8505 -2.5968  2.4969
  150SAPE  H19S16605   2.064   3.443   7.897 -0.2515 -0.5411 -0.1593
  150SAPE  C22016606   2.196   3.269   7.918 -1.3495  0.0665  0.1351
  150SAPE  H20R16607   2.234   3.190   7.986  1.7152  0.0711 -1.4011
  150SAPE  H20S16608   2.291   3.313   7.881 -0.3016 -1.3631  1.0419
  150SAPE  H20T16609   2.150   3.215   7.831 -0.2684  0.9443 -1.0117
  150SAPE   C3316610   1.931   3.611   7.037  0.2033 -0.3256 -0.3613
  150SAPE   H3X16611   1.834   3.665   7.044  1.1063  1.0958  2.7155
  150SAPE   H3Y16612   2.000   3.672   6.975  2.9747 -2.3912  0.5029
  150SAPE   C3416613   2.002   3.613   7.175 -0.1176  0.2252  0.8459
  150SAPE   H4X16614   2.022   3.719   7.201  4.8206 -0.4028  0.6158
  150SAPE   H4Y16615   2.103   3.567   7.164 -0.1095  0.3749  0.2311
  150SAPE   C3516616   1.929   3.545   7.294 -0.3117  0.3335  0.1863
  150SAPE   H5X16617   1.951   3.436   7.290 -1.4836  0.0689  0.6550
  150SAPE   H5Y16618   1.820   3.564   7.288 -0.0062  1.8881 -4.1857
  150SAPE   C3616619   1.997   3.592   7.424  0.7345  0.2485 -0.1154
  150SAPE   H6X16620   1.999   3.703   7.428 -1.6212  0.3254  0.0008
  150SAPE   H6Y16621   2.100   3.556   7.445  0.5558  0.0773  0.4948
  150SAPE   C3716622   1.912   3.534   7.545  0.4765 -0.0518  0.0207
  150SAPE   H7X16623   1.907   3.424   7.533 -2.1517  0.2354 -2.4878
  150SAPE   H7Y16624   1.808   3.573   7.541  0.7705  1.0080  1.5952
  150SAPE   C3816625   1.964   3.557   7.685 -0.3442  0.8701  0.4046
  150SAPE   H8X16626   2.073   3.534   7.678 -0.8262 -1.4172 -0.1729
  150SAPE   H8Y16627   1.909   3.487   7.751 -0.6028  1.0370  0.3661
  150SAPE   C3916628   1.942   3.697   7.730  0.1732 -0.1074 -0.0587
  150SAPE   H9X16629   1.839   3.733   7.707 -0.3796 -1.3591  0.3828
  150SAPE   H9Y16630   2.011   3.762   7.673  1.9540 -1.5650  0.3397
  150SAPE  C31016631   1.956   3.710   7.879  0.4016 -0.2599  0.0491
  150SAPE  H10X16632   2.056   3.687   7.922 -0.1318 -0.7685  1.0657
  150SAPE  H10Y16633   1.887   3.647   7.939  2.0998 -0.6214  1.7297
  150SAPE  C31116634   1.921   3.852   7.937  0.5741 -0.2065  0.1982
  150SAPE  H11X16635   1.813   3.873   7.919  0.9885  3.5412  1.1137
  150SAPE  H11Y16636   1.972   3.932   7.878 -1.9414  0.4563 -1.2694
  150SAPE  C31216637   1.957   3.873   8.085 -0.3721  0.1274  0.4398
  150SAPE  H12X16638   2.060   3.833   8.097 -0.3131  0.1908  0.1408
  150SAPE  H12Y16639   1.896   3.803   8.147 -0.8672 -1.4424 -1.7097
  150SAPE  C31316640   1.965   4.012   8.144  0.7365  0.3855  0.6870
  150SAPE  H13X16641   1.861   4.044   8.167 -0.0664  0.2098 -2.2228
  150SAPE  H13Y16642   2.008   4.087   8.074  2.1959 -0.5738  0.5170
  150SAPE  C31416643   2.037   4.020   8.280  0.1111  0.6170 -0.6772
  150SAPE  H14X16644   2.146   4.011   8.261 -0.1070 -0.1105 -1.6519
  150SAPE  H14Y16645   2.008   3.932   8.341  1.2375  0.6244 -0.1158
  150SAPE  C31516646   1.994   4.152   8.348 -0.0161 -0.3115  0.3325
  150SAPE  H15X16647   1.937   4.140   8.443  1.3672  1.1597  1.4276
  150SAPE  H15Y16648   1.937   4.215   8.277  0.3079 -0.1006  0.2593
  150SAPE  C31616649   2.116   4.240   8.386  0.4056 -0.2228  0.8053
  150SAPE  H16X16650   2.195   4.168   8.418  0.5703 -0.5926 -0.3764
  150SAPE  H16Y16651   2.096   4.306   8.473 -0.6957 -2.0357  1.9891
  150SAPE  C31716652   2.172   4.320   8.267 -0.4743 -0.4691  0.6146
  150SAPE  H17X16653   2.088   4.385   8.232 -0.2856 -0.1413  0.7705
  150SAPE  H17Y16654   2.190   4.253   8.180 -0.2859 -0.0684  0.3430
  150SAPE  C31816655   2.292   4.404   8.306 -0.2957  0.0325 -0.4037
  150SAPE  H18X16656   2.265   4.475   8.387  1.3373  0.4140 -0.1471
  150SAPE  H18Y16657   2.327   4.469   8.222 -2.1119  1.3039 -0.2291
  150SAPE  H18Z16658   2.376   4.349   8.354 -1.7050 -0.3909  1.6902
  151SAPE     N16659   6.245   1.150   6.150  0.2004 -0.4415  0.8460
  151SAPE   HN116660   6.144   1.161   6.128  0.3519  1.1549  0.8207
  151SAPE   HN216661   6.303   1.158   6.065 -0.8796 -0.8861  0.0448
  151SAPE   HN316662   6.264   1.055   6.187  1.6212 -0.1575  0.9217
  151SAPE   C1216663   6.287   1.269   6.232  0.5719  0.2584  0.0222
  151SAPE  H12A16664   6.285   1.347   6.154 -2.6493 -0.4602 -0.7767
  151SAPE  H12B16665   6.386   1.251   6.279  0.4417 -1.3862 -0.2683
  151SAPE   C1116666   6.184   1.302   6.338  0.7404  0.0996  0.4832
  151SAPE  H11A16667   6.210   1.387   6.404 -0.0698 -1.0342  2.3556
  151SAPE  H11B16668   6.178   1.223   6.417  1.0364  0.0984  0.5070
  151SAPE     P16669   6.003   1.443   6.199 -0.3834  0.2951 -0.0418
  151SAPE   O1316670   6.077   1.450   6.072 -0.3514  0.1749  0.3566
  151SAPE   O1416671   5.854   1.440   6.175 -0.9766 -1.0521 -0.1889
  151SAPE   O1216672   6.052   1.319   6.280 -0.2269 -0.2434 -0.0934
  151SAPE   O1116673   6.043   1.573   6.276 -0.1552 -0.3324  0.4427
  151SAPE    C116674   5.952   1.619   6.376  0.3098  0.1015 -0.0304
  151SAPE    HA16675   5.956   1.728   6.398  0.7214 -0.0279  0.5673
  151SAPE    HB16676   5.846   1.614   6.344 -0.1007  3.1004  0.5710
  151SAPE    C216677   5.959   1.553   6.519 -0.3535 -0.1839 -0.3138
  151SAPE    HS16678   5.933   1.446   6.508 -2.1878  0.1863  0.0817
  151SAPE   O2116679   5.856   1.603   6.604 -0.4985 -0.4650 -0.2770
  151SAPE   C2116680   5.842   1.546   6.718 -0.8055  0.5744 -0.4094
  151SAPE   O2216681   5.892   1.440   6.752 -0.0013  0.1781 -0.4279
  151SAPE   C2216682   5.744   1.620   6.809 -0.9869 -0.4876 -0.2703
  151SAPE   H2R16683   5.737   1.559   6.902 -0.0466  1.7386  1.3411
  151SAPE   H2S16684   5.789   1.713   6.848  1.0522 -1.7188  0.4924
  151SAPE    C316685   6.102   1.583   6.583  0.5339 -0.3751  0.2632
  151SAPE    HX16686   6.178   1.569   6.504  0.2580  1.0678 -0.2938
  151SAPE    HY16687   6.128   1.519   6.671  1.1081 -0.1885  0.2333
  151SAPE   O3116688   6.100   1.726   6.616  0.4996  0.2408  0.7296
  151SAPE   C3116689   6.112   1.761   6.741 -0.1352  0.4391 -0.0911
  151SAPE   O3216690   6.132   1.682   6.831  0.2445 -0.0611 -0.3562
  151SAPE   C3216691   6.068   1.913   6.754 -0.2357  0.0554 -0.0338
  151SAPE   H2X16692   5.966   1.914   6.711  0.5902 -0.9224 -2.1651
  151SAPE   H2Y16693   6.136   1.976   6.692 -1.4328  0.8373 -0.5866
  151SAPE   C2316694   5.608   1.659   6.747  0.1350 -0.5108  0.4292
  151SAPE   H3R16695   5.546   1.577   6.705 -0.6666  1.3682 -2.4331
  151SAPE   H3S16696   5.609   1.713   6.650 -1.5038 -0.6735  0.2848
  151SAPE   C2416697   5.526   1.739   6.848  0.0430 -0.0198  1.1894
  151SAPE   H4R16698   5.505   1.669   6.931 -2.3191 -0.8800 -0.0467
  151SAPE   H4S16699   5.428   1.763   6.803  1.6598  1.6883 -1.7939
  151SAPE   C2516700   5.580   1.872   6.876  0.4439 -0.6197  0.0560
  151SAPE   H5R16701   5.587   1.941   6.791  1.7805 -0.4324  0.3084
  151SAPE   C2616702   5.632   1.904   6.994 -0.5793  0.1497 -0.1420
  151SAPE   H6R16703   5.663   2.009   7.004  2.4331 -0.2816 -3.1569
  151SAPE   C2716704   5.650   1.822   7.118  1.1057 -0.1475  0.1306
  151SAPE   H7R16705   5.747   1.838   7.171  0.8205 -0.0878  0.6319
  151SAPE   H7S16706   5.636   1.714   7.096 -2.0276  0.4987 -1.5943
  151SAPE   C2816707   5.541   1.858   7.214  0.0888 -1.2800  0.1315
  151SAPE   H8R16708   5.441   1.814   7.195 -1.1460  0.5506  1.9856
  151SAPE   C2916709   5.545   1.938   7.327  0.0549  0.0274  0.5838
  151SAPE   H9R16710   5.453   1.964   7.380 -0.8622  0.4108 -1.1505
  151SAPE  C21016711   5.668   2.009   7.380 -0.5191  0.4820 -0.4460
  151SAPE  H10R16712   5.753   1.954   7.334 -1.0754 -0.4820 -0.3526
  151SAPE  H10S16713   5.683   1.976   7.485 -0.5789  0.4450 -0.4487
  151SAPE  C21116714   5.674   2.153   7.357  0.4569 -0.4865 -0.3531
  151SAPE  H11R16715   5.681   2.176   7.250 -0.8504 -3.7730 -1.2733
  151SAPE  C21216716   5.665   2.244   7.457 -1.2215  0.0272  0.2154
  151SAPE  H12R16717   5.677   2.349   7.426 -0.6447 -0.2685 -0.5867
  151SAPE  C21316718   5.653   2.219   7.600  0.4996 -0.4244  0.0627
  151SAPE  H13R16719   5.583   2.134   7.616 -0.3073  0.5084  1.7421
  151SAPE  H13S16720   5.608   2.303   7.656 -0.9732 -1.0613 -0.1228
  151SAPE  C21416721   5.785   2.177   7.659  0.7467  0.0042 -0.0949
  151SAPE  H14R16722   5.848   2.126   7.585  1.3292 -0.7567  0.8976
  151SAPE  C21516723   5.826   2.189   7.793  0.6407  0.4233  0.5618
  151SAPE  H15R16724   5.924   2.148   7.819 -0.2135 -1.6544  0.6911
  151SAPE  C21616725   5.735   2.252   7.895  0.0749 -0.4532 -0.6336
  151SAPE  H16R16726   5.681   2.338   7.850 -0.0257 -0.5433 -0.6857
  151SAPE  H16S16727   5.798   2.301   7.972  0.5168  0.4497 -1.5352
  151SAPE  C21716728   5.625   2.162   7.948 -0.4882  0.0583 -0.1028
  151SAPE  H17R16729   5.573   2.112   7.863  0.1851 -2.0704  0.6641
  151SAPE  H17S16730   5.550   2.217   8.009 -1.2920 -1.0004 -0.1033
  151SAPE  C21816731   5.687   2.053   8.034 -0.1043  0.3308 -0.1341
  151SAPE  H18R16732   5.757   2.101   8.106  0.4824 -1.5253  0.5948
  151SAPE  H18S16733   5.750   1.992   7.966 -1.5843 -0.7148 -0.6327
  151SAPE  C21916734   5.584   1.970   8.111 -0.3137  0.4740 -0.3509
  151SAPE  H19R16735   5.496   1.941   8.050 -0.1078 -0.7616 -0.1083
  151SAPE  H19S16736   5.539   2.039   8.185  1.3068  0.5805  0.6049
  151SAPE  C22016737   5.646   1.851   8.184 -0.4236 -0.1056 -0.8049
  151SAPE  H20R16738   5.685   1.878   8.284 -2.2125  3.4537 -0.9150
  151SAPE  H20S16739   5.565   1.776   8.189  1.0586 -1.7425 -0.5891
  151SAPE  H20T16740   5.724   1.808   8.117 -0.1069  1.8796 -1.8062
  151SAPE   C3316741   6.083   1.960   6.899 -0.0479 -0.2811  0.2806
  151SAPE   H3X16742   6.184   1.934   6.939 -0.4411 -0.1906  1.3646
  151SAPE   H3Y16743   6.008   1.910   6.964  0.4603 -1.8852 -0.3098
  151SAPE   C3416744   6.040   2.110   6.916  0.3723 -0.2094 -0.4647
  151SAPE   H4X16745   5.930   2.122   6.920  0.5202  0.8774  1.6848
  151SAPE   H4Y16746   6.074   2.154   6.820 -4.3812  0.3891 -2.1307
  151SAPE   C3516747   6.109   2.178   7.032  0.0929  0.0485 -0.4832
  151SAPE   H5X16748   6.107   2.289   7.042 -0.6741  0.0543 -0.6556
  151SAPE   H5Y16749   6.218   2.157   7.021  0.1545 -0.5989  1.0501
  151SAPE   C3616750   6.055   2.115   7.168  0.1244 -0.2788  0.1712
  151SAPE   H6X16751   6.063   2.005   7.152  0.6643 -0.8053  3.4391
  151SAPE   H6Y16752   5.946   2.132   7.181  0.3024  0.2297  1.0892
  151SAPE   C3716753   6.131   2.152   7.290 -0.0226  0.3470  0.1637
  151SAPE   H7X16754   6.086   2.243   7.334 -1.1782  1.0501 -2.3160
  151SAPE   H7Y16755   6.240   2.154   7.267  0.6145  0.8754  2.8595
  151SAPE   C3816756   6.123   2.047   7.400  0.6455 -0.6167  0.8056
  151SAPE   H8X16757   6.152   1.944   7.372 -0.1072 -0.1999 -1.7145
  151SAPE   H8Y16758   6.016   2.039   7.431  0.2144  1.0409 -0.1325
  151SAPE   C3916759   6.213   2.078   7.520 -0.3139  0.0534  0.6223
  151SAPE   H9X16760   6.317   2.087   7.484 -0.3997  1.0126  0.5745
  151SAPE   H9Y16761   6.208   1.992   7.589 -0.3558  0.5781  1.2864
  151SAPE  C31016762   6.159   2.209   7.587 -0.6863  0.5305  0.5305
  151SAPE  H10X16763   6.048   2.215   7.589 -0.9087 -2.5813  2.1507
  151SAPE  H10Y16764   6.201   2.290   7.523  2.3882  0.1463  1.9206
  151SAPE  C31116765   6.206   2.224   7.738  0.1931 -0.2479 -0.3531
  151SAPE  H11X16766   6.317   2.221   7.738  0.2486  0.4224  1.3724
  151SAPE  H11Y16767   6.165   2.137   7.794  1.2009 -1.4282 -1.4083
  151SAPE  C31216768   6.166   2.360   7.803 -0.2497 -0.4177 -0.3704
  151SAPE  H12X16769   6.055   2.363   7.814 -0.3571 -2.7610 -0.2277
  151SAPE  H12Y16770   6.189   2.441   7.731  0.2658 -1.1733 -1.0837
  151SAPE  C31316771   6.234   2.395   7.930  0.1475 -0.0953  0.0443
  151SAPE  H13X16772   6.343   2.404   7.913  0.4701 -0.3005  1.8234
  151SAPE  H13Y16773   6.208   2.311   7.998  0.5095  0.6521  1.1481
  151SAPE  C31416774   6.180   2.523   7.998 -0.0133 -0.0913 -0.4291
  151SAPE  H14X16775   6.072   2.519   8.024  0.1145  1.1085  0.3786
  151SAPE  H14Y16776   6.198   2.613   7.935 -2.0123 -1.3611 -3.0157
  151SAPE  C31516777   6.253   2.534   8.138  0.5068  0.4872  0.6762
  151SAPE  H15X16778   6.331   2.611   8.120 -0.9478  1.9416  0.2652
  151SAPE  H15Y16779   6.293   2.435   8.169 -0.7109 -0.3132 -0.1822
  151SAPE  C31616780   6.159   2.585   8.252  0.2051 -0.4119  0.4159
  151SAPE  H16X16781   6.069   2.521   8.239  1.5679 -2.4646  0.6060
  151SAPE  H16Y16782   6.116   2.683   8.223 -2.5810 -1.6321  0.1499
  151SAPE  C31716783   6.211   2.592   8.394 -0.4337 -0.4305 -0.4053
  151SAPE  H17X16784   6.121   2.624   8.451 -0.2556 -0.1284 -0.2946
  151SAPE  H17Y16785   6.287   2.673   8.402 -1.6060  0.7311 -0.7758
  151SAPE  C31816786   6.257   2.457   8.446 -0.2579  0.8412 -0.1317
  151SAPE  H18X16787   6.359   2.443   8.404  0.4738  1.1905  1.4489
  151SAPE  H18Y16788   6.193   2.371   8.418  0.2305  0.2836  0.4528
  151SAPE  H18Z16789   6.264   2.462   8.557 -0.0570 -0.1020 -0.0979
  152SAPE     N16790   2.622   5.158   6.348  0.1001  0.4307  0.0455
  152SAPE   HN116791   2.620   5.241   6.285  1.5715 -0.2498 -0.9605
  152SAPE   HN216792   2.525   5.121   6.347  0.9027 -1.8563  0.4471
  152SAPE   HN316793   2.642   5.205   6.439  0.7486  0.0653  0.0915
  152SAPE   C1216794   2.723   5.065   6.299 -0.8951  0.1382 -0.3608
  152SAPE  H12A16795   2.718   5.055   6.189  2.2879 -2.8298 -0.4195
  152SAPE  H12B16796   2.692   4.969   6.345  2.1366 -0.9642 -0.4180
  152SAPE   C1116797   2.866   5.104   6.340  0.5342  0.3356  0.3614
  152SAPE  H11A16798   2.941   5.042   6.287  1.3473  0.2929  1.5300
  152SAPE  H11B16799   2.875   5.082   6.449  0.4937 -0.2232  0.2542
  152SAPE     P16800   3.030   5.295   6.321 -0.2801 -0.0036 -0.2933
  152SAPE   O1316801   3.114   5.213   6.230 -0.2519 -0.0337 -0.9184
  152SAPE   O1416802   3.029   5.443   6.304  0.5681  0.1290 -0.2607
  152SAPE   O1216803   2.880   5.238   6.306  0.6346  0.1307 -0.5778
  152SAPE   O1116804   3.078   5.268   6.466 -0.0190  0.2261 -0.3134
  152SAPE    C116805   3.011   5.305   6.590  0.7852 -0.3195  0.0044
  152SAPE    HA16806   3.045   5.405   6.625  1.7232 -1.0280  1.2135
  152SAPE    HB16807   2.901   5.302   6.574  0.6414 -0.9003  1.0199
  152SAPE    C216808   3.032   5.202   6.703  0.5080  0.3520 -0.3621
  152SAPE    HS16809   3.141   5.210   6.720  0.2248  1.4714  1.0883
  152SAPE   O2116810   2.985   5.071   6.662  0.2339 -0.2363 -0.5052
  152SAPE   C2116811   3.066   4.972   6.676  0.1947 -0.3032 -0.5220
  152SAPE   O2216812   3.169   4.969   6.740  0.2008 -0.2076 -0.0895
  152SAPE   C2216813   3.009   4.857   6.585  0.5431  0.4416  0.8748
  152SAPE   H2R16814   2.991   4.901   6.485 -0.6093  1.0404  1.3165
  152SAPE   H2S16815   3.090   4.785   6.562 -0.9385 -0.8668 -0.5626
  152SAPE    C316816   2.962   5.232   6.839 -0.5381 -0.2443  0.5832
  152SAPE    HX16817   2.856   5.243   6.806 -0.6333  1.2528  1.3096
  152SAPE    HY16818   2.988   5.329   6.887 -0.9261  0.8515 -1.3298
  152SAPE   O3116819   2.983   5.123   6.931  0.4169 -0.1970  0.1952
  152SAPE   C3116820   3.097   5.134   6.994  0.1356  0.2786  0.1109
  152SAPE   O3216821   3.179   5.226   6.983  0.3490  0.1808  0.2956
  152SAPE   C3216822   3.112   5.016   7.093 -0.8231  0.5873  1.0318
  152SAPE   H2X16823   3.116   4.924   7.029 -1.5594  0.7781  0.7004
  152SAPE   H2Y16824   3.011   5.010   7.139 -1.3526 -1.0389 -0.2319
  152SAPE   C2316825   2.873   4.803   6.633  0.2297 -0.1843 -0.8822
  152SAPE   H3R16826   2.818   4.750   6.552 -0.9063  1.0983 -0.9799
  152SAPE   H3S16827   2.805   4.890   6.641  1.2233  0.6264 -0.9171
  152SAPE   C2416828   2.891   4.709   6.754 -0.3227  1.7142 -0.6959
  152SAPE   H4R16829   2.946   4.749   6.842  0.3455 -2.4464  1.0210
  152SAPE   H4S16830   2.945   4.622   6.711 -1.0060 -0.3504  2.3147
  152SAPE   C2516831   2.749   4.669   6.796 -0.0968 -0.4574  0.2011
  152SAPE   H5R16832   2.700   4.601   6.725 -0.2666  0.4585 -0.5727
  152SAPE   C2616833   2.679   4.711   6.902  0.5394 -0.1979 -0.0030
  152SAPE   H6R16834   2.580   4.672   6.929 -0.6157  1.5116 -1.5777
  152SAPE   C2716835   2.738   4.804   7.006 -0.3359 -0.0019 -0.6803
  152SAPE   H7R16836   2.837   4.850   6.984  0.5289 -0.1037  2.5403
  152SAPE   H7S16837   2.749   4.754   7.105 -0.9806  2.4721  0.7216
  152SAPE   C2816838   2.651   4.928   7.039 -0.4706 -0.2881 -0.3174
  152SAPE   H8R16839   2.639   4.998   6.955  0.5406 -1.2182 -1.2695
  152SAPE   C2916840   2.568   4.944   7.145  0.3290 -0.0473 -0.2270
  152SAPE   H9R16841   2.519   5.041   7.164 -0.4472 -0.7048  1.3274
  152SAPE  C21016842   2.555   4.848   7.259  1.0914 -0.3739 -0.3646
  152SAPE  H10R16843   2.551   4.744   7.219  0.7850 -1.0230  1.2520
  152SAPE  H10S16844   2.464   4.889   7.307 -0.0005  0.3018 -2.8713
  152SAPE  C21116845   2.670   4.865   7.357 -0.4146  0.1579 -0.3298
  152SAPE  H11R16846   2.754   4.796   7.338 -0.1990  0.4625 -0.4919
  152SAPE  C21216847   2.671   4.935   7.475 -0.1407  0.1675  0.0410
  152SAPE  H12R16848   2.768   4.936   7.526 -1.0566  0.6369  1.8776
  152SAPE  C21316849   2.560   5.013   7.528 -0.2432 -0.3353 -0.1604
  152SAPE  H13R16850   2.492   4.951   7.591 -1.4546  1.0863 -0.0157
  152SAPE  H13S16851   2.496   5.050   7.445  1.9994  0.8020 -1.4698
  152SAPE  C21416852   2.610   5.119   7.624  0.4321  1.1653  0.1290
  152SAPE  H14R16853   2.684   5.090   7.700  0.1713 -0.1070 -0.0826
  152SAPE  C21516854   2.541   5.237   7.635 -0.4334 -0.1094  0.1861
  152SAPE  H15R16855   2.576   5.293   7.723  3.0582  1.0386 -1.7348
  152SAPE  C21616856   2.425   5.294   7.560 -0.4028  0.0332 -0.2357
  152SAPE  H16R16857   2.383   5.220   7.488 -1.5067 -1.1777  1.5621
  152SAPE  H16S16858   2.472   5.370   7.495 -0.1105 -1.7834 -2.2687
  152SAPE  C21716859   2.291   5.349   7.636 -0.4733  0.1840  0.5135
  152SAPE  H17R16860   2.214   5.374   7.561  0.6487  2.5720  0.0689
  152SAPE  H17S16861   2.313   5.435   7.703  0.4423 -0.2844  0.8461
  152SAPE  C21816862   2.230   5.235   7.725  0.1475  0.1117  0.5046
  152SAPE  H18R16863   2.230   5.135   7.676 -0.6088  1.2060 -1.9340
  152SAPE  H18S16864   2.119   5.241   7.729 -0.0001 -2.2986  1.4974
  152SAPE  C21916865   2.291   5.222   7.859 -0.4643 -0.9693  0.7130
  152SAPE  H19R16866   2.308   5.325   7.897  1.4606 -0.6758 -0.7855
  152SAPE  H19S16867   2.395   5.187   7.844  0.7054  2.6949 -1.0150
  152SAPE  C22016868   2.217   5.141   7.959  0.6320  0.8588 -0.2555
  152SAPE  H20R16869   2.263   5.138   8.060 -1.4943  0.2966  0.7757
  152SAPE  H20S16870   2.207   5.033   7.934  0.7253  1.3640 -2.6534
  152SAPE  H20T16871   2.113   5.179   7.971 -0.2557 -1.8985  2.0111
  152SAPE   C3316872   3.230   5.027   7.195 -0.1998  0.1702 -0.2753
  152SAPE   H3X16873   3.222   5.123   7.251  0.2077  1.0117 -1.5941
  152SAPE   H3Y16874   3.323   5.028   7.133 -1.8148  1.6596 -2.8706
  152SAPE   C3416875   3.240   4.910   7.298 -0.0473  0.4098  1.1980
  152SAPE   H4X16876   3.323   4.936   7.366  1.8401 -0.4137 -0.6992
  152SAPE   H4Y16877   3.257   4.819   7.237 -0.7246  1.4093 -0.5789
  152SAPE   C3516878   3.102   4.887   7.368  0.3798 -0.3246 -0.3384
  152SAPE   H5X16879   3.022   4.869   7.294  1.0410  2.7237 -1.9467
  152SAPE   H5Y16880   3.066   4.982   7.412  0.3429 -0.8146  0.7224
  152SAPE   C3616881   3.093   4.783   7.481  0.1412  0.6697  0.2018
  152SAPE   H6X16882   3.137   4.691   7.436  1.2566  0.7144  1.1612
  152SAPE   H6Y16883   2.985   4.781   7.509 -0.0710  2.8244 -0.3310
  152SAPE   C3716884   3.153   4.819   7.620  0.4081  0.1385 -0.5932
  152SAPE   H7X16885   3.160   4.927   7.644  0.7169  0.0777 -0.4051
  152SAPE   H7Y16886   3.250   4.764   7.627 -0.6548 -2.0452 -1.7488
  152SAPE   C3816887   3.081   4.758   7.738  0.1638  0.0180  0.5746
  152SAPE   H8X16888   3.068   4.648   7.732 -0.3346  0.0937  0.2950
  152SAPE   H8Y16889   2.978   4.797   7.726 -0.0549 -0.7326 -0.0708
  152SAPE   C3916890   3.139   4.807   7.870 -0.4178  0.5401  0.0857
  152SAPE   H9X16891   3.248   4.824   7.857 -0.2656 -0.9037 -0.6309
  152SAPE   H9Y16892   3.132   4.715   7.931 -0.6388  1.7549  2.0161
  152SAPE  C31016893   3.057   4.911   7.939 -0.0053 -0.2769  0.1315
  152SAPE  H10X16894   2.950   4.886   7.952  0.3965 -2.1203  0.0841
  152SAPE  H10Y16895   3.064   4.996   7.867 -0.0144 -0.5137 -0.1495
  152SAPE  C31116896   3.125   4.944   8.072  0.6033 -0.3767 -0.4448
  152SAPE  H11X16897   3.089   5.037   8.120  2.2982 -0.5631  1.3200
  152SAPE  H11Y16898   3.234   4.950   8.053  0.4875  0.7191 -0.8360
  152SAPE  C31216899   3.108   4.836   8.185  0.1221 -0.0343 -0.5124
  152SAPE  H12X16900   3.149   4.884   8.276  2.0970  1.1628 -1.9444
  152SAPE  H12Y16901   3.161   4.744   8.151  1.4170  0.5988 -0.2671
  152SAPE  C31316902   2.963   4.813   8.210 -0.5090  0.5343  0.3413
  152SAPE  H13X16903   2.940   4.747   8.124  1.8719  1.6568 -1.2862
  152SAPE  H13Y16904   2.906   4.908   8.204 -0.5658  0.4677 -0.2148
  152SAPE  C31416905   2.939   4.723   8.333 -0.3854  0.1541  0.1872
  152SAPE  H14X16906   2.970   4.779   8.423 -0.4844  0.4857  0.0171
  152SAPE  H14Y16907   3.002   4.632   8.335 -2.5701 -1.4962 -1.1146
  152SAPE  C31516908   2.790   4.687   8.347 -0.2622  0.0933 -0.6352
  152SAPE  H15X16909   2.756   4.641   8.252 -1.4935  1.4158 -0.8607
  152SAPE  H15Y16910   2.740   4.786   8.345 -1.0838 -0.3184 -0.7516
  152SAPE  C31616911   2.728   4.618   8.481  0.6308  0.1291  0.0277
  152SAPE  H16X16912   2.734   4.700   8.555 -1.2670  0.0002  0.3668
  152SAPE  H16Y16913   2.793   4.535   8.516  0.0975  0.3373  1.5837
  152SAPE  C31716914   2.577   4.587   8.463  0.1714  0.6290 -0.1134
  152SAPE  H17X16915   2.570   4.529   8.368  1.2495 -0.6754  0.5722
  152SAPE  H17Y16916   2.529   4.686   8.446  0.4346  0.4340 -2.3673
  152SAPE  C31816917   2.513   4.517   8.579  0.2698 -0.3224  0.1422
  152SAPE  H18X16918   2.513   4.596   8.657  1.8478  0.9707 -1.1002
  152SAPE  H18Y16919   2.585   4.439   8.609  1.4567  0.7652  0.1801
  152SAPE  H18Z16920   2.412   4.472   8.563 -1.0450  1.7419  2.0787
  153SAPE     N16921   6.194   6.276   6.160 -0.4833 -0.4877 -0.7279
  153SAPE   HN116922   6.135   6.353   6.198 -0.7810 -1.1957  0.3012
  153SAPE   HN216923   6.219   6.224   6.247 -0.9490  0.6923  0.1409
  153SAPE   HN316924   6.267   6.323   6.103  0.3880 -1.7309 -0.6727
  153SAPE   C1216925   6.114   6.186   6.077 -0.2544 -0.0219  0.8998
  153SAPE  H12A16926   6.102   6.240   5.980  0.1344  0.2988  1.0281
  153SAPE  H12B16927   6.012   6.187   6.122 -1.3662  4.5831 -1.1161
  153SAPE   C1116928   6.194   6.057   6.046 -0.7733 -0.6059  0.1301
  153SAPE  H11A16929   6.268   6.085   5.967  0.5031  0.0827  1.5169
  153SAPE  H11B16930   6.129   5.995   5.980  0.0403  0.6122 -1.8990
  153SAPE     P16931   6.172   5.867   6.223  0.3823 -0.1339  0.4668
  153SAPE   O1316932   6.120   5.911   6.355 -0.3526 -0.3521 -0.6225
  153SAPE   O1416933   6.074   5.816   6.118  0.2391  0.2169 -0.6372
  153SAPE   O1216934   6.253   5.986   6.155 -0.2566 -0.1989  0.2573
  153SAPE   O1116935   6.284   5.758   6.234 -0.1031  0.0895 -0.1596
  153SAPE    C116936   6.258   5.618   6.204  0.1275 -1.0037  0.4321
  153SAPE    HA16937   6.191   5.600   6.117 -1.3697  0.2241  1.2763
  153SAPE    HB16938   6.355   5.571   6.176 -0.6787 -2.1061 -0.6504
  153SAPE    C216939   6.207   5.547   6.334  0.1355  0.2095 -0.0797
  153SAPE    HS16940   6.119   5.607   6.366  1.4024  1.9253  0.3264
  153SAPE   O2116941   6.308   5.541   6.432 -0.6036  0.2776  0.0669
  153SAPE   C2116942   6.267   5.509   6.552 -0.2792 -1.1672 -1.0144
  153SAPE   O2216943   6.152   5.488   6.584 -0.1011  0.3238  0.2969
  153SAPE   C2216944   6.400   5.483   6.629  0.1227 -0.4061 -0.8390
  153SAPE   H2R16945   6.450   5.407   6.565 -1.6070 -1.7717 -0.6001
  153SAPE   H2S16946   6.463   5.575   6.636 -0.8297  0.2553 -0.8416
  153SAPE    C316947   6.163   5.393   6.295 -0.3298  0.4185 -0.2485
  153SAPE    HX16948   6.154   5.382   6.185  1.0071 -0.4185 -0.2932
  153SAPE    HY16949   6.060   5.391   6.337 -2.1949 -0.4332 -4.3693
  153SAPE   O3116950   6.252   5.294   6.350 -0.1664 -0.1359 -0.0807
  153SAPE   C3116951   6.210   5.174   6.335  0.1460  0.2278  0.0848
  153SAPE   O3216952   6.098   5.143   6.295 -0.5029 -0.2509  0.0530
  153SAPE   C3216953   6.316   5.078   6.389  0.2538  1.0224  0.7140
  153SAPE   H2X16954   6.410   5.134   6.410  1.1533 -0.3980  0.5682
  153SAPE   H2Y16955   6.328   4.998   6.314  0.2925  1.5218  0.1804
  153SAPE   C2316956   6.359   5.411   6.762  0.2599  0.4658 -0.1449
  153SAPE   H3R16957   6.336   5.304   6.745  1.7844  0.2961 -1.3466
  153SAPE   H3S16958   6.274   5.454   6.819  0.2616  0.6344 -0.2686
  153SAPE   C2416959   6.484   5.414   6.862 -0.2739  0.0816  0.2179
  153SAPE   H4R16960   6.571   5.370   6.809 -0.5687  2.4238 -2.4393
  153SAPE   H4S16961   6.459   5.344   6.945 -2.2621  0.3654 -0.0935
  153SAPE   C2516962   6.507   5.554   6.910  0.7453 -0.2197  0.3808
  153SAPE   H5R16963   6.557   5.621   6.839 -0.9671  1.3426  0.5724
  153SAPE   C2616964   6.480   5.598   7.035  0.3622 -0.4806  0.1715
  153SAPE   H6R16965   6.523   5.693   7.069 -1.8850  0.4067  0.6585
  153SAPE   C2716966   6.417   5.505   7.144 -0.1747 -0.5694  0.0347
  153SAPE   H7R16967   6.343   5.436   7.098 -1.2979 -0.3993  1.4877
  153SAPE   H7S16968   6.355   5.569   7.210  0.6775 -0.9279  1.2195
  153SAPE   C2816969   6.524   5.431   7.229 -0.2366 -0.0748 -0.1490
  153SAPE   H8R16970   6.619   5.399   7.184  0.8155  1.1349  1.1494
  153SAPE   C2916971   6.507   5.397   7.364  0.0637  0.4706  0.1040
  153SAPE   H9R16972   6.591   5.353   7.421 -0.9273 -1.7181 -0.0521
  153SAPE  C21016973   6.386   5.428   7.446 -0.3409  0.2753  0.4134
  153SAPE  H10R16974   6.359   5.340   7.507 -1.7711  0.4052 -0.0061
  153SAPE  H10S16975   6.302   5.440   7.374  1.5075  0.7286 -1.7945
  153SAPE  C21116976   6.415   5.554   7.525 -0.0077 -0.7895 -0.3608
  153SAPE  H11R16977   6.450   5.642   7.470  3.3606 -1.1830  0.9047
  153SAPE  C21216978   6.393   5.565   7.656  0.1770  0.5655 -0.5648
  153SAPE  H12R16979   6.408   5.659   7.712  0.7685  0.1007  0.0732
  153SAPE  C21316980   6.333   5.453   7.742 -0.3453 -0.3502  0.1295
  153SAPE  H13R16981   6.417   5.384   7.763 -0.7802 -0.6416  0.9488
  153SAPE  H13S16982   6.260   5.384   7.694 -0.7924 -1.6773  2.5744
  153SAPE  C21416983   6.270   5.498   7.866 -0.3763  0.0042 -0.3678
  153SAPE  H14R16984   6.204   5.584   7.851 -1.2407 -1.0281 -3.1118
  153SAPE  C21516985   6.278   5.444   7.984  0.7016  1.3011 -0.0533
  153SAPE  H15R16986   6.234   5.501   8.068 -0.9576  0.4945 -0.3282
  153SAPE  C21616987   6.362   5.327   8.022 -0.6401 -0.2963  0.3954
  153SAPE  H16R16988   6.364   5.248   7.943  2.2692  0.0469  0.0016
  153SAPE  H16S16989   6.321   5.268   8.106 -1.7221 -1.6439 -1.0138
  153SAPE  C21716990   6.511   5.369   8.033 -0.2921  0.1989 -0.1210
  153SAPE  H17R16991   6.553   5.407   7.938  0.5760 -2.3799 -0.8266
  153SAPE  H17S16992   6.572   5.278   8.049 -1.2104 -0.6013 -1.0123
  153SAPE  C21816993   6.556   5.462   8.149 -0.2749  0.8235 -0.6532
  153SAPE  H18R16994   6.497   5.556   8.159 -0.0214  0.8617  0.7048
  153SAPE  H18S16995   6.663   5.486   8.136 -0.5404  1.1596 -2.5574
  153SAPE  C21916996   6.542   5.394   8.287  0.3416 -0.5156  0.3137
  153SAPE  H19R16997   6.600   5.300   8.300 -1.1141 -1.5852 -0.6150
  153SAPE  H19S16998   6.435   5.372   8.306 -0.2567  0.8904 -1.2407
  153SAPE  C22016999   6.589   5.497   8.389  0.3894  0.1147 -0.3974
  153SAPE  H20R17000   6.693   5.534   8.378 -0.1274  1.7303 -0.0648
  153SAPE  H20S17001   6.587   5.454   8.491 -1.2744  2.2879  0.5515
  153SAPE  H20T17002   6.529   5.590   8.387 -1.7010 -1.1044  1.3600
  153SAPE   C3317003   6.278   5.033   6.529 -0.5793  0.6071 -0.4622
  153SAPE   H3X17004   6.193   4.961   6.521  0.6402 -1.5364  3.3360
  153SAPE   H3Y17005   6.239   5.122   6.582  1.7321  0.0502  2.4295
  153SAPE   C3417006   6.393   4.970   6.601  0.3338 -0.3125  0.0381
  153SAPE   H4X17007   6.482   5.035   6.613  0.5108 -0.9356  3.0552
  153SAPE   H4Y17008   6.430   4.883   6.543 -0.8416  1.3045 -3.3515
  153SAPE   C3517009   6.344   4.915   6.733 -0.1019  0.1912 -0.0716
  153SAPE   H5X17010   6.413   4.834   6.763  0.5370  0.6354 -0.3236
  153SAPE   H5Y17011   6.244   4.867   6.721 -0.0926  0.1954 -0.1657
  153SAPE   C3617012   6.343   5.019   6.848  0.2717  0.7581  0.5647
  153SAPE   H6X17013   6.276   5.102   6.817  0.8381  0.4440 -1.7368
  153SAPE   H6Y17014   6.442   5.067   6.857  0.9131 -0.5729  0.8167
  153SAPE   C3717015   6.313   4.948   6.982  0.4796  0.4514  0.3210
  153SAPE   H7X17016   6.374   4.857   7.000 -2.9296 -2.1266 -0.1168
  153SAPE   H7Y17017   6.211   4.906   6.970 -0.0781  0.6263  3.4939
  153SAPE   C3817018   6.307   5.035   7.106 -0.1261  0.4281 -0.1189
  153SAPE   H8X17019   6.224   5.109   7.104 -1.5018 -1.0714 -0.8660
  153SAPE   H8Y17020   6.404   5.090   7.102 -0.7216  1.4351 -1.3660
  153SAPE   C3917021   6.314   4.950   7.231 -0.8440  0.0377  0.3788
  153SAPE   H9X17022   6.398   4.877   7.240  0.6967  1.9277  2.4808
  153SAPE   H9Y17023   6.212   4.907   7.234 -2.2048  2.4560 -3.4267
  153SAPE  C31017024   6.338   5.041   7.351  0.0544  0.4066  0.2457
  153SAPE  H10X17025   6.249   5.107   7.359 -0.4800 -0.4503  1.5978
  153SAPE  H10Y17026   6.427   5.104   7.328  0.3247  0.5255  1.5212
  153SAPE  C31117027   6.344   4.959   7.474  0.0801  0.7331 -0.7459
  153SAPE  H11X17028   6.409   4.869   7.468 -0.9734 -0.1896  1.0099
  153SAPE  H11Y17029   6.243   4.922   7.498  0.9601 -2.5862 -1.5981
  153SAPE  C31217030   6.391   5.046   7.588  0.9905  0.4693  0.0476
  153SAPE  H12X17031   6.376   4.990   7.683  0.5350  0.8994  0.2322
  153SAPE  H12Y17032   6.320   5.131   7.585 -0.5409 -0.6957  1.4249
  153SAPE  C31317033   6.536   5.091   7.605 -0.4557  0.5903 -0.6924
  153SAPE  H13X17034   6.544   5.174   7.679  0.2020  2.1612 -2.4236
  153SAPE  H13Y17035   6.578   5.121   7.506 -1.0295 -1.8121 -1.7217
  153SAPE  C31417036   6.621   4.966   7.634 -0.4367  0.8076 -0.0280
  153SAPE  H14X17037   6.708   4.954   7.566  0.1711  1.0943  0.6705
  153SAPE  H14Y17038   6.556   4.877   7.644 -0.5368  0.8182 -0.5630
  153SAPE  C31517039   6.685   4.974   7.779 -0.2145 -0.1840  0.5848
  153SAPE  H15X17040   6.744   5.068   7.782 -0.0351 -0.1367 -2.1773
  153SAPE  H15Y17041   6.741   4.881   7.802 -0.7667 -0.1197  2.3672
  153SAPE  C31617042   6.579   4.989   7.888 -0.5457 -0.1978  0.3517
  153SAPE  H16X17043   6.520   4.896   7.872  0.2727 -0.6354 -0.1638
  153SAPE  H16Y17044   6.509   5.075   7.879 -3.7200 -2.3035  2.6973
  153SAPE  C31717045   6.637   4.971   8.032 -0.0461 -0.3185 -0.5070
  153SAPE  H17X17046   6.685   5.067   8.060 -0.6337 -0.3963  0.8363
  153SAPE  H17Y17047   6.706   4.884   8.038  1.5725  0.9443  0.1431
  153SAPE  C31817048   6.526   4.950   8.136 -0.1476  0.5611 -0.2699
  153SAPE  H18X17049   6.564   4.901   8.228  0.1583  4.4072  1.8793
  153SAPE  H18Y17050   6.444   4.896   8.084  0.4479 -3.1899  2.3393
  153SAPE  H18Z17051   6.486   5.045   8.177 -2.2624 -0.2305 -0.3565
  154SAPE     N17052   2.661   3.356   6.015 -0.7603 -0.2473 -0.6444
  154SAPE   HN117053   2.560   3.336   6.005 -0.6106 -1.3116 -0.2523
  154SAPE   HN217054   2.683   3.440   5.958 -1.8306  2.3232  2.4353
  154SAPE   HN317055   2.708   3.277   5.966  3.4548  1.0073  0.9581
  154SAPE   C1217056   2.717   3.357   6.161 -0.2246  0.5457 -0.8064
  154SAPE  H12A17057   2.819   3.313   6.159  0.2485  1.5748  0.0912
  154SAPE  H12B17058   2.643   3.304   6.224  0.7752 -0.7476 -0.6836
  154SAPE   C1117059   2.719   3.498   6.224 -0.4454 -0.3326  0.1178
  154SAPE  H11A17060   2.759   3.487   6.327 -0.9987 -1.1548  0.2585
  154SAPE  H11B17061   2.614   3.534   6.234  0.3268  1.9219  0.5128
  154SAPE     P17062   2.953   3.603   6.154  0.2582  0.3128 -0.0065
  154SAPE   O1317063   3.019   3.477   6.129 -0.2599 -0.0775  0.1479
  154SAPE   O1417064   2.978   3.704   6.050 -0.5949  0.2492  1.2614
  154SAPE   O1217065   2.793   3.590   6.146 -0.3855 -0.2167 -0.2635
  154SAPE   O1117066   2.986   3.663   6.303 -0.3671 -0.5924  0.9640
  154SAPE    C117067   3.122   3.674   6.345  0.1153 -0.0858 -0.9445
  154SAPE    HA17068   3.147   3.589   6.413 -2.6874  0.4602  0.9333
  154SAPE    HB17069   3.205   3.703   6.277  0.7590  2.5190  0.8262
  154SAPE    C217070   3.136   3.798   6.442 -0.1723 -0.3229 -0.3947
  154SAPE    HS17071   3.234   3.797   6.494 -0.4402 -0.1214  0.1122
  154SAPE   O2117072   3.031   3.791   6.546  0.2311  0.4105 -0.5684
  154SAPE   C2117073   3.060   3.701   6.645  0.0729  0.3923  0.2126
  154SAPE   O2217074   3.160   3.633   6.648 -0.5408 -0.4768  0.2385
  154SAPE   C2217075   2.936   3.698   6.742  0.1261 -0.4897  0.1069
  154SAPE   H2R17076   2.932   3.800   6.785  1.4332  0.6656 -2.3074
  154SAPE   H2S17077   2.840   3.682   6.689 -0.7809  2.0073  0.8531
  154SAPE    C317078   3.146   3.940   6.372 -0.3192 -0.6109 -0.6975
  154SAPE    HX17079   3.057   3.942   6.306  1.2605 -0.6101 -2.9422
  154SAPE    HY17080   3.238   3.933   6.309 -0.4764  0.1297 -1.0178
  154SAPE   O3117081   3.153   4.057   6.469  0.0228  0.5837  0.1369
  154SAPE   C3117082   3.040   4.116   6.496  1.3657 -0.0851  0.1613
  154SAPE   O3217083   2.929   4.091   6.448  0.0581 -1.0390  0.0433
  154SAPE   C3217084   3.055   4.215   6.615 -0.6437  0.3283  0.3635
  154SAPE   H2X17085   3.116   4.301   6.582  2.9490 -1.9435  0.5210
  154SAPE   H2Y17086   3.122   4.168   6.690 -0.7734 -3.2897 -1.5845
  154SAPE   C2317087   2.953   3.577   6.838  0.7810  0.0741 -0.0411
  154SAPE   H3R17088   2.968   3.476   6.793 -0.7105  0.4928 -1.6058
  154SAPE   H3S17089   2.855   3.557   6.886  0.7847  0.3414  0.0787
  154SAPE   C2417090   3.066   3.584   6.944  0.4998  0.3230 -0.0627
  154SAPE   H4R17091   3.169   3.574   6.902  2.5326  4.5125  3.0952
  154SAPE   H4S17092   3.046   3.499   7.012 -0.9687  0.6454 -0.0653
  154SAPE   C2517093   3.072   3.720   7.019  0.3182  0.6114  0.0860
  154SAPE   H5R17094   3.096   3.809   6.959 -0.1679  0.8372  0.2174
  154SAPE   C2617095   3.046   3.741   7.149 -0.1081 -0.1621  0.3219
  154SAPE   H6R17096   3.066   3.844   7.183 -1.3054 -0.5347  2.2896
  154SAPE   C2717097   3.008   3.641   7.260  0.5646  0.4907  0.5591
  154SAPE   H7R17098   2.994   3.538   7.221 -1.6491  0.2812  1.7433
  154SAPE   H7S17099   2.912   3.669   7.308 -0.3523  0.0953 -0.9737
  154SAPE   C2817100   3.108   3.654   7.367  0.1885 -0.0427 -0.0555
  154SAPE   H8R17101   3.209   3.683   7.336  0.4966 -0.0002  0.9420
  154SAPE   C2917102   3.091   3.623   7.499  0.0111 -0.2109  0.7692
  154SAPE   H9R17103   3.169   3.654   7.569  1.5143 -2.6034  0.2850
  154SAPE  C21017104   2.969   3.571   7.561 -0.3655  0.3271 -0.2339
  154SAPE  H10R17105   2.879   3.560   7.496 -1.9050  0.0839  1.8374
  154SAPE  H10S17106   2.927   3.647   7.630 -0.1942 -0.1782  0.4390
  154SAPE  C21117107   2.987   3.436   7.623  0.1295 -1.4587  0.9192
  154SAPE  H11R17108   2.981   3.357   7.546 -1.0073 -3.5248  2.9940
  154SAPE  C21217109   2.997   3.394   7.746  0.1801 -0.1485 -0.1836
  154SAPE  H12R17110   3.018   3.289   7.773  0.3741  0.2991  1.5116
  154SAPE  C21317111   2.991   3.489   7.865  0.0272  0.2578  0.6970
  154SAPE  H13R17112   2.903   3.458   7.925 -1.1585  0.8365 -0.6798
  154SAPE  H13S17113   2.968   3.594   7.834  1.5128  0.7852  1.2880
  154SAPE  C21417114   3.124   3.484   7.933 -0.1899 -0.6725 -0.3604
  154SAPE  H14R17115   3.208   3.541   7.891  0.4472 -0.3095  1.3188
  154SAPE  C21517116   3.151   3.419   8.051 -0.0992 -0.1612  0.3261
  154SAPE  H15R17117   3.253   3.414   8.091  0.2293  2.4612 -0.0050
  154SAPE  C21617118   3.046   3.350   8.134  0.1643  0.2051 -0.7518
  154SAPE  H16R17119   3.055   3.240   8.123  0.4913 -0.2116  2.6305
  154SAPE  H16S17120   2.942   3.371   8.100  1.0741  1.5855 -2.9316
  154SAPE  C21717121   3.049   3.370   8.289  0.0737 -0.4762  0.5032
  154SAPE  H17R17122   2.970   3.304   8.332  0.8243 -3.0836 -1.7887
  154SAPE  H17S17123   3.039   3.478   8.309  2.7853 -0.3255  1.4712
  154SAPE  C21817124   3.176   3.309   8.351  0.0972 -0.2000  0.1058
  154SAPE  H18R17125   3.270   3.365   8.330  0.1605  0.5311  2.1294
  154SAPE  H18S17126   3.184   3.204   8.317 -0.4057  0.1445 -1.1287
  154SAPE  C21917127   3.177   3.318   8.509 -0.6269  0.2023  0.4656
  154SAPE  H19R17128   3.183   3.421   8.549 -0.5801  0.6439 -0.6344
  154SAPE  H19S17129   3.270   3.264   8.535  0.3302  0.9511 -1.2439
  154SAPE  C22017130   3.062   3.241   8.575  0.5725 -0.1071 -0.3066
  154SAPE  H20R17131   3.057   3.262   8.684  1.5050  0.3862 -0.3489
  154SAPE  H20S17132   3.077   3.134   8.550  1.4646 -0.4282  1.4248
  154SAPE  H20T17133   2.961   3.274   8.541  0.6856  0.7647  0.1704
  154SAPE   C3317134   2.914   4.249   6.676 -0.5355  0.0691 -0.2360
  154SAPE   H3X17135   2.848   4.306   6.607 -1.9809  0.9720  1.7842
  154SAPE   H3Y17136   2.931   4.314   6.764 -1.4218  2.2675 -1.5886
  154SAPE   C3417137   2.846   4.124   6.741  0.6567  0.2522  0.5051
  154SAPE   H4X17138   2.905   4.034   6.714  1.6915  1.7794 -2.9320
  154SAPE   H4Y17139   2.747   4.103   6.696  0.1778  0.4796  1.4400
  154SAPE   C3517140   2.813   4.131   6.886 -0.0303  0.6447  1.0735
  154SAPE   H5X17141   2.742   4.213   6.908  0.5186  1.6208 -0.6357
  154SAPE   H5Y17142   2.904   4.156   6.945 -0.4873 -1.9055  3.0474
  154SAPE   C3617143   2.763   3.994   6.937 -0.4257 -0.5641  0.6453
  154SAPE   H6X17144   2.851   3.933   6.968  0.3311 -0.2577 -0.7707
  154SAPE   H6Y17145   2.706   3.936   6.862 -0.7484  0.1994  0.2834
  154SAPE   C3717146   2.673   4.013   7.061  0.2475  0.0918  0.2333
  154SAPE   H7X17147   2.582   3.950   7.059 -0.6028  1.2941  0.0393
  154SAPE   H7Y17148   2.643   4.120   7.064  3.2466  1.0124  1.1935
  154SAPE   C3817149   2.752   3.976   7.190 -0.6977  0.2850  0.8954
  154SAPE   H8X17150   2.802   3.878   7.173  0.7548  1.0605  0.5639
  154SAPE   H8Y17151   2.676   3.957   7.269  0.6914  0.5897  2.3311
  154SAPE   C3917152   2.854   4.082   7.235 -0.9735 -0.2066  0.0487
  154SAPE   H9X17153   2.798   4.177   7.233  2.0970  1.7496 -0.2689
  154SAPE   H9Y17154   2.921   4.108   7.150 -1.8123 -0.2136 -0.6240
  154SAPE  C31017155   2.927   4.039   7.371 -0.3036 -0.7915  0.2050
  154SAPE  H10X17156   2.980   4.131   7.403  1.1685 -1.4644 -0.1983
  154SAPE  H10Y17157   3.004   3.964   7.344 -1.9732 -2.4680 -0.1304
  154SAPE  C31117158   2.842   3.982   7.480  0.2848  0.0550 -0.9554
  154SAPE  H11X17159   2.799   3.885   7.449  0.6870 -1.2298  2.1269
  154SAPE  H11Y17160   2.755   4.048   7.505  1.7319  0.7938  2.7878
  154SAPE  C31217161   2.931   3.949   7.599 -0.0248 -0.3363 -0.3528
  154SAPE  H12X17162   2.962   4.041   7.652 -2.7587  1.3410 -1.4625
  154SAPE  H12Y17163   3.018   3.889   7.564 -1.2701 -1.9570 -0.8368
  154SAPE  C31317164   2.850   3.881   7.708  0.3271  0.4682 -0.5018
  154SAPE  H13X17165   2.795   3.790   7.676 -0.0948  0.7996 -0.7291
  154SAPE  H13Y17166   2.774   3.958   7.730  2.1987  1.8966  1.3375
  154SAPE  C31417167   2.920   3.875   7.842 -0.6373 -0.1565 -0.7059
  154SAPE  H14X17168   2.961   3.977   7.856 -1.1168  0.1070 -1.1625
  154SAPE  H14Y17169   3.006   3.804   7.832 -0.1802  0.1249  1.0057
  154SAPE  C31517170   2.836   3.830   7.963 -0.2868 -0.2275 -0.0596
  154SAPE  H15X17171   2.780   3.738   7.938 -1.4542  0.6010 -0.5793
  154SAPE  H15Y17172   2.762   3.907   7.994  1.2842  0.9673  0.9325
  154SAPE  C31617173   2.915   3.820   8.090 -0.5732 -0.2674 -0.2693
  154SAPE  H16X17174   2.946   3.923   8.113 -3.9640  0.9274 -0.4597
  154SAPE  H16Y17175   2.995   3.750   8.059  0.4761  0.7389  0.1200
  154SAPE  C31717176   2.823   3.772   8.205 -0.3584 -0.3886 -0.1723
  154SAPE  H17X17177   2.751   3.851   8.233 -0.9511 -1.6417  2.1053
  154SAPE  H17Y17178   2.895   3.777   8.290 -0.9852 -0.2298  0.3547
  154SAPE  C31817179   2.773   3.631   8.202 -0.0319 -0.0302 -0.1162
  154SAPE  H18X17180   2.719   3.615   8.298 -0.4329 -0.5456 -0.4212
  154SAPE  H18Y17181   2.862   3.565   8.199 -0.8025 -1.0795 -0.3349
  154SAPE  H18Z17182   2.697   3.611   8.123 -0.8351  0.2043  0.5850
  155SAPE     N17183   3.914   3.975   6.273 -0.5120 -0.1242  0.1885
  155SAPE   HN117184   3.912   3.871   6.264  1.2865 -0.1165 -0.7473
  155SAPE   HN217185   3.817   4.013   6.271  0.0031  1.2434  0.2570
  155SAPE   HN317186   3.971   4.001   6.190 -0.4776  0.0353  0.2622
  155SAPE   C1217187   3.980   4.008   6.405 -0.5537  0.6273  0.4385
  155SAPE  H12A17188   4.084   3.968   6.406 -0.7318  0.0789  2.9407
  155SAPE  H12B17189   3.929   3.962   6.491  0.0207 -2.2423 -0.6568
  155SAPE   C1117190   3.982   4.158   6.433  0.2107  0.3648 -0.3103
  155SAPE  H11A17191   4.016   4.171   6.538  0.8607 -1.1922 -0.3051
  155SAPE  H11B17192   3.875   4.189   6.432  0.1114  0.1838  1.4551
  155SAPE     P17193   4.224   4.213   6.344  0.7012  0.4738  0.0614
  155SAPE   O1317194   4.268   4.095   6.265 -0.1689 -0.1028  0.3241
  155SAPE   O1417195   4.271   4.345   6.304  1.0102 -0.7751  0.5986
  155SAPE   O1217196   4.067   4.222   6.337  0.0541  0.5333 -0.3715
  155SAPE   O1117197   4.264   4.192   6.498  0.5002 -0.2818 -0.3104
  155SAPE    C117198   4.260   4.294   6.592 -0.9994  0.0256  0.1273
  155SAPE    HA17199   4.198   4.379   6.555  1.1611  1.9715  0.7153
  155SAPE    HB17200   4.225   4.256   6.690  1.2544 -2.1435  0.1924
  155SAPE    C217201   4.396   4.362   6.610 -0.2111 -0.3709 -0.8662
  155SAPE    HS17202   4.427   4.415   6.517  1.1655  0.3099 -0.0578
  155SAPE   O2117203   4.498   4.264   6.646 -0.0249  0.0046 -0.1014
  155SAPE   C2117204   4.620   4.311   6.628 -0.0147  0.1012 -0.0410
  155SAPE   O2217205   4.661   4.398   6.557  0.0874  0.2662 -0.2098
  155SAPE   C2217206   4.715   4.226   6.718 -0.2136 -0.1994  0.7416
  155SAPE   H2R17207   4.660   4.131   6.735 -0.3365 -0.1163  0.8062
  155SAPE   H2S17208   4.809   4.214   6.660 -0.4621 -0.7775  0.4563
  155SAPE    C317209   4.394   4.469   6.722  0.7291  0.0732  0.0471
  155SAPE    HX17210   4.288   4.501   6.724  0.1577 -1.5941 -1.1918
  155SAPE    HY17211   4.457   4.559   6.702  1.1049 -0.5838 -1.9851
  155SAPE   O3117212   4.428   4.423   6.853 -0.1097 -0.0511 -0.6902
  155SAPE   C3117213   4.342   4.381   6.939  0.8414 -0.5165 -0.2430
  155SAPE   O3217214   4.222   4.373   6.918 -0.0098  0.3329 -0.4864
  155SAPE   C3217215   4.412   4.365   7.074 -0.4803  0.3161  0.6763
  155SAPE   H2X17216   4.459   4.463   7.099  0.8151 -0.2489  0.5833
  155SAPE   H2Y17217   4.507   4.307   7.073  1.0760  2.6997  1.1340
  155SAPE   C2317218   4.755   4.297   6.853 -0.1837  0.2631  0.0054
  155SAPE   H3R17219   4.663   4.308   6.916  0.1139  2.0346  0.1983
  155SAPE   H3S17220   4.767   4.405   6.829 -1.1343 -0.1127 -2.4066
  155SAPE   C2417221   4.871   4.227   6.920 -0.0075 -0.3357  0.3420
  155SAPE   H4R17222   4.899   4.286   7.009 -0.0904 -1.1559  0.9202
  155SAPE   H4S17223   4.951   4.234   6.844 -1.5342  1.4238 -1.2175
  155SAPE   C2517224   4.825   4.092   6.957  0.5583  0.3367  0.3054
  155SAPE   H5R17225   4.817   4.039   6.861 -0.4518 -0.2169  0.6829
  155SAPE   C2617226   4.800   4.036   7.077  0.6356 -0.1455  0.3465
  155SAPE   H6R17227   4.751   3.938   7.072  0.8037 -0.1709 -1.2335
  155SAPE   C2717228   4.812   4.104   7.210 -0.2213 -0.0789  0.2959
  155SAPE   H7R17229   4.734   4.061   7.276 -0.0612  1.0435  1.2586
  155SAPE   H7S17230   4.788   4.212   7.201 -0.6677 -0.3504 -2.4948
  155SAPE   C2817231   4.943   4.080   7.276  0.2843 -0.0615  0.0218
  155SAPE   H8R17232   5.014   4.038   7.204 -1.5944  0.4672 -2.2691
  155SAPE   C2917233   4.974   4.107   7.399  0.5945 -0.4915 -0.5001
  155SAPE   H9R17234   5.075   4.099   7.444 -0.6216 -1.3206  2.3102
  155SAPE  C21017235   4.873   4.160   7.503 -0.4674 -0.0922 -0.1846
  155SAPE  H10R17236   4.790   4.211   7.450 -1.0716  0.5911  1.3403
  155SAPE  H10S17237   4.920   4.247   7.553 -0.0866 -0.8520  0.8061
  155SAPE  C21117238   4.820   4.063   7.609  0.4851 -0.3871 -0.0550
  155SAPE  H11R17239   4.729   4.009   7.576  1.1138 -2.1739  0.9753
  155SAPE  C21217240   4.879   4.043   7.727  0.2832  0.5746  0.0508
  155SAPE  H12R17241   4.829   3.958   7.776 -1.7428  0.8625 -1.4087
  155SAPE  C21317242   5.007   4.096   7.786 -0.7413  0.0290  0.3846
  155SAPE  H13R17243   4.991   4.172   7.866  0.6314  1.5665 -0.7403
  155SAPE  H13S17244   5.050   4.159   7.705 -0.0575  1.2968  1.6744
  155SAPE  C21417245   5.105   3.990   7.833  0.3226 -0.3232  0.6876
  155SAPE  H14R17246   5.187   3.972   7.762 -1.3029  1.2880 -1.7323
  155SAPE  C21517247   5.088   3.920   7.951  0.2536  0.0017 -0.1203
  155SAPE  H15R17248   5.156   3.837   7.976  1.1153  1.3652  2.4791
  155SAPE  C21617249   4.980   3.957   8.052  0.2639 -0.3071  0.5717
  155SAPE  H16R17250   4.916   3.867   8.066  4.6211 -3.5645  1.6592
  155SAPE  H16S17251   4.929   4.056   8.045  0.7308 -0.1330 -0.6652
  155SAPE  C21717252   5.036   3.962   8.197 -0.0524 -0.9403  0.0272
  155SAPE  H17R17253   5.112   3.882   8.206  0.5893 -0.2689  0.7819
  155SAPE  H17S17254   4.955   3.942   8.271  0.9147 -1.3524  0.9986
  155SAPE  C21817255   5.112   4.096   8.223  0.0796  0.4720  0.0547
  155SAPE  H18R17256   5.046   4.180   8.255 -0.9276 -0.8463  1.5578
  155SAPE  H18S17257   5.165   4.126   8.130  0.1656  3.4961  0.9648
  155SAPE  C21917258   5.219   4.085   8.336  0.2223  0.2734 -0.4463
  155SAPE  H19R17259   5.277   4.180   8.337 -0.2923  0.5932  0.4968
  155SAPE  H19S17260   5.295   4.006   8.319  0.0629  0.1579 -0.6122
  155SAPE  C22017261   5.158   4.078   8.471  0.5402  0.1762  0.6014
  155SAPE  H20R17262   5.076   4.152   8.472  0.8638  0.5363  0.7121
  155SAPE  H20S17263   5.234   4.108   8.547  1.5563 -1.1804  0.1715
  155SAPE  H20T17264   5.119   3.978   8.500  1.2883 -0.6164 -0.9551
  155SAPE   C3317265   4.336   4.328   7.203 -0.0507 -0.4060 -0.1849
  155SAPE   H3X17266   4.258   4.250   7.194 -2.2807  1.8863 -2.4668
  155SAPE   H3Y17267   4.285   4.418   7.243  0.1859  0.9376 -2.6875
  155SAPE   C3417268   4.432   4.277   7.315  0.6633 -0.2545 -0.0879
  155SAPE   H4X17269   4.526   4.336   7.312  0.6442 -0.1837  0.5687
  155SAPE   H4Y17270   4.464   4.178   7.277 -0.8472  0.0440 -2.3085
  155SAPE   C3517271   4.372   4.273   7.458 -0.4095  0.7630  0.2304
  155SAPE   H5X17272   4.285   4.205   7.470 -1.1138  1.4453 -0.8424
  155SAPE   H5Y17273   4.323   4.371   7.475  0.9571  1.2107  1.8477
  155SAPE   C3617274   4.485   4.262   7.565  0.3868 -0.4215 -0.2400
  155SAPE   H6X17275   4.555   4.347   7.551 -0.7490  0.4250 -0.9432
  155SAPE   H6Y17276   4.537   4.170   7.529 -0.9910 -1.4158  0.1817
  155SAPE   C3717277   4.428   4.245   7.707  0.7013 -0.1507  0.2024
  155SAPE   H7X17278   4.338   4.181   7.707 -0.2495  1.1456  0.2584
  155SAPE   H7Y17279   4.384   4.343   7.735 -0.8435 -0.2124 -1.8401
  155SAPE   C3817280   4.529   4.200   7.813 -0.1804  0.0350 -0.2558
  155SAPE   H8X17281   4.601   4.282   7.832  0.5270 -0.7371  0.4982
  155SAPE   H8Y17282   4.584   4.113   7.773 -0.1113  0.4648 -1.1211
  155SAPE   C3917283   4.456   4.181   7.950  0.0608  0.4683  0.7020
  155SAPE   H9X17284   4.375   4.106   7.937  1.5314 -0.9833 -0.4409
  155SAPE   H9Y17285   4.413   4.277   7.986  2.0205  1.1070  1.4610
  155SAPE  C31017286   4.549   4.132   8.063  0.1641  0.2175 -0.2414
  155SAPE  H10X17287   4.644   4.190   8.069  0.4857 -0.3427  0.2822
  155SAPE  H10Y17288   4.583   4.027   8.050 -0.6012 -0.0877  0.1818
  155SAPE  C31117289   4.477   4.152   8.198  0.1632  0.6039  0.4904
  155SAPE  H11X17290   4.372   4.115   8.190 -0.1639  1.7249 -0.9991
  155SAPE  H11Y17291   4.474   4.256   8.236 -0.6698  0.5861  0.4919
  155SAPE  C31217292   4.549   4.062   8.300 -0.3559  0.1570 -0.6614
  155SAPE  H12X17293   4.659   4.062   8.280 -0.4726  1.0779 -1.3614
  155SAPE  H12Y17294   4.510   3.960   8.278  0.2425 -1.0661  3.1955
  155SAPE  C31317295   4.520   4.097   8.450  0.0230 -0.1142  0.2228
  155SAPE  H13X17296   4.555   4.200   8.473  0.5282 -0.2169 -0.0889
  155SAPE  H13Y17297   4.575   4.023   8.512  0.3129  0.8272  1.1103
  155SAPE  C31417298   4.367   4.092   8.481 -0.1382 -0.3073  0.1629
  155SAPE  H14X17299   4.350   3.984   8.463 -0.3659 -0.0394 -1.3308
  155SAPE  H14Y17300   4.295   4.142   8.414  0.0675  3.6040  2.5209
  155SAPE  C31517301   4.336   4.129   8.626 -0.0657  0.3285  0.0809
  155SAPE  H15X17302   4.386   4.227   8.643 -2.0600  1.8970 -2.5035
  155SAPE  H15Y17303   4.389   4.053   8.687 -0.7563  0.5983  1.0399
  155SAPE  C31617304   4.190   4.139   8.660  0.5667 -0.2709 -0.3054
  155SAPE  H16X17305   4.134   4.173   8.570 -0.1190  1.8215  0.8285
  155SAPE  H16Y17306   4.171   4.215   8.739  0.0915 -0.7744  0.0745
  155SAPE  C31717307   4.123   4.006   8.708  0.9622  0.4862  0.2625
  155SAPE  H17X17308   4.169   3.973   8.804 -0.8101 -0.8608  0.7030
  155SAPE  H17Y17309   4.148   3.921   8.642 -0.5451 -0.0076  0.2876
  155SAPE  C31817310   3.966   4.016   8.722  0.4037  0.3342 -0.5878
  155SAPE  H18X17311   3.941   3.923   8.778  1.2025  0.6923  0.3932
  155SAPE  H18Y17312   3.925   4.015   8.619  0.5856 -1.3526 -0.6653
  155SAPE  H18Z17313   3.927   4.098   8.786  1.5091 -0.3770  1.0567
  156SAPE     N17314   1.759   5.592   6.589  0.5161  0.0285 -0.3958
  156SAPE   HN117315   1.818   5.564   6.508  1.4276 -1.3521  0.7146
  156SAPE   HN217316   1.716   5.677   6.547 -0.8908 -1.5903 -2.4726
  156SAPE   HN317317   1.835   5.606   6.659  1.1873  0.4131 -1.1795
  156SAPE   C1217318   1.657   5.478   6.608  0.3098  0.1428  0.0489
  156SAPE  H12A17319   1.582   5.487   6.526 -1.6101 -1.8333  1.4594
  156SAPE  H12B17320   1.614   5.499   6.709  0.5834  1.0265 -0.0126
  156SAPE   C1117321   1.715   5.345   6.601 -0.0976  0.4467 -0.5494
  156SAPE  H11A17322   1.639   5.264   6.609  2.5425 -2.1507  0.2750
  156SAPE  H11B17323   1.782   5.329   6.688 -0.8525 -0.7225 -0.1659
  156SAPE     P17324   1.827   5.204   6.418 -0.0675  0.1492  0.4198
  156SAPE   O1317325   1.702   5.136   6.400 -0.8029  0.0413 -0.5503
  156SAPE   O1417326   1.903   5.224   6.291 -0.7535 -0.0412  0.0127
  156SAPE   O1217327   1.798   5.336   6.486 -0.0810 -0.2190 -0.2723
  156SAPE   O1117328   1.914   5.125   6.520 -0.0787  0.0601  0.3075
  156SAPE    C117329   2.054   5.120   6.538  1.1560  0.0512  0.4707
  156SAPE    HA17330   2.104   5.090   6.443  2.3075 -3.0656  1.9388
  156SAPE    HB17331   2.085   5.217   6.582 -2.1157  0.4728  2.2140
  156SAPE    C217332   2.101   5.026   6.646 -0.0157  0.1170  0.3979
  156SAPE    HS17333   2.212   5.024   6.644  0.0521 -0.2585  2.3109
  156SAPE   O2117334   2.045   4.901   6.607  0.6673 -0.1572  0.1139
  156SAPE   C2117335   2.094   4.790   6.656 -0.5087 -0.2294  0.2642
  156SAPE   O2217336   2.194   4.782   6.725  0.6652  0.0760 -0.4412
  156SAPE   C2217337   2.008   4.676   6.602  0.3098  0.2383 -0.0661
  156SAPE   H2R17338   1.905   4.715   6.594 -0.6115 -1.5027  2.4214
  156SAPE   H2S17339   2.043   4.661   6.497  1.1176  1.2231  0.0395
  156SAPE    C317340   2.044   5.079   6.779  0.8879  1.0067 -0.4167
  156SAPE    HX17341   1.933   5.071   6.782  0.9209 -0.0994 -1.5309
  156SAPE    HY17342   2.073   5.185   6.788  1.8855  0.9326 -2.4504
  156SAPE   O3117343   2.084   4.998   6.892  0.1778  0.3130  0.3266
  156SAPE   C3117344   2.200   5.025   6.942 -0.1359  0.5739 -0.8261
  156SAPE   O3217345   2.281   5.115   6.919 -0.2092  0.6238 -0.4064
  156SAPE   C3217346   2.227   4.923   7.049 -0.2026 -0.0790  0.1044
  156SAPE   H2X17347   2.337   4.932   7.064 -0.1395  2.4580 -1.3898
  156SAPE   H2Y17348   2.217   4.820   7.007  1.0192 -0.0211 -0.3730
  156SAPE   C2317349   2.027   4.552   6.687 -0.0163 -0.4054  0.0076
  156SAPE   H3R17350   2.132   4.531   6.715  0.5350  1.5751 -0.4030
  156SAPE   H3S17351   1.981   4.465   6.635  0.1240 -0.3664 -0.1840
  156SAPE   C2417352   1.950   4.577   6.824 -0.6775  0.1889 -0.7077
  156SAPE   H4R17353   1.840   4.568   6.811 -0.7441 -1.0907  0.5272
  156SAPE   H4S17354   1.969   4.674   6.875  0.5930 -0.7698  0.7183
  156SAPE   C2517355   1.977   4.466   6.928 -0.2820 -0.2096  0.3088
  156SAPE   H5R17356   1.946   4.366   6.894 -0.7859 -0.2002  0.7414
  156SAPE   C2617357   2.018   4.483   7.054 -0.1004 -0.2442 -0.1642
  156SAPE   H6R17358   2.034   4.392   7.114 -0.8539 -1.3140 -1.5427
  156SAPE   C2717359   2.046   4.614   7.131  0.5149  0.0881 -0.0010
  156SAPE   H7R17360   2.029   4.705   7.070  3.1060 -0.9429 -2.4351
  156SAPE   H7S17361   2.156   4.619   7.145  0.2398  0.4906  2.5569
  156SAPE   C2817362   1.966   4.633   7.257  0.7558  0.4065 -0.4864
  156SAPE   H8R17363   1.864   4.668   7.238  1.1916  1.4273 -1.0298
  156SAPE   C2917364   2.003   4.607   7.382 -0.6063 -0.1019 -0.2872
  156SAPE   H9R17365   1.934   4.631   7.465 -0.5281  2.3599 -0.8663
  156SAPE  C21017366   2.137   4.559   7.427  0.9651  0.3737  0.4136
  156SAPE  H10R17367   2.193   4.506   7.347  0.6273  0.5201  0.0818
  156SAPE  H10S17368   2.117   4.488   7.511 -1.6312  1.7890  1.1082
  156SAPE  C21117369   2.225   4.665   7.484 -0.2184 -0.2302  0.7925
  156SAPE  H11R17370   2.293   4.712   7.412  0.3879 -1.0002  0.8405
  156SAPE  C21217371   2.224   4.711   7.607 -0.4737  0.1905 -0.0987
  156SAPE  H12R17372   2.283   4.800   7.635 -0.9343  0.8273 -1.0804
  156SAPE  C21317373   2.133   4.661   7.716 -0.4759  0.0527  0.0491
  156SAPE  H13R17374   2.038   4.625   7.671 -1.6206  1.4565  1.1939
  156SAPE  H13S17375   2.110   4.750   7.780 -2.0464  0.2215 -0.6994
  156SAPE  C21417376   2.202   4.562   7.807  0.6455 -0.4793 -0.2314
  156SAPE  H14R17377   2.312   4.570   7.811  0.6323  0.0759 -0.8901
  156SAPE  C21517378   2.131   4.494   7.902 -0.1480  0.6363 -0.0326
  156SAPE  H15R17379   2.178   4.417   7.964  0.0918  0.5729 -0.2900
  156SAPE  C21617380   1.987   4.487   7.912  0.3394 -0.2318 -0.1598
  156SAPE  H16R17381   1.934   4.545   7.833  2.2553 -0.7633 -1.9265
  156SAPE  H16S17382   1.963   4.528   8.012  0.7079  1.5245 -0.7503
  156SAPE  C21717383   1.916   4.344   7.912 -0.2289 -0.2602 -0.1452
  156SAPE  H17R17384   1.815   4.357   7.957  0.7738 -1.5979  2.7934
  156SAPE  H17S17385   1.975   4.272   7.974  2.5084 -0.8309 -3.1143
  156SAPE  C21817386   1.900   4.303   7.767 -0.6709 -0.0238  0.4297
  156SAPE  H18R17387   2.003   4.293   7.725 -0.8166  1.1764 -0.2359
  156SAPE  H18S17388   1.837   4.376   7.713 -1.4648 -2.4755 -2.1933
  156SAPE  C21917389   1.830   4.170   7.764  0.1573  0.5860  0.1637
  156SAPE  H19R17390   1.725   4.178   7.801 -0.3123 -1.6586 -0.4993
  156SAPE  H19S17391   1.875   4.103   7.841 -1.0046  0.6902  0.9666
  156SAPE  C22017392   1.831   4.113   7.622 -0.6887  0.7610 -0.1435
  156SAPE  H20R17393   1.935   4.118   7.584 -0.9462 -0.5776 -1.0941
  156SAPE  H20S17394   1.762   4.172   7.558 -0.6172  2.2565  1.0946
  156SAPE  H20T17395   1.797   4.007   7.624 -0.4932  0.7107  0.9144
  156SAPE   C3317396   2.153   4.946   7.185  0.7202 -0.3529 -0.5474
  156SAPE   H3X17397   2.144   4.850   7.239 -0.7174 -0.2823 -0.6322
  156SAPE   H3Y17398   2.049   4.964   7.150  0.7222 -1.2680 -1.0491
  156SAPE   C3417399   2.187   5.062   7.273 -0.7799 -0.3587  0.0972
  156SAPE   H4X17400   2.151   5.156   7.228 -1.4167 -0.8450 -0.4233
  156SAPE   H4Y17401   2.298   5.059   7.276 -0.6274  2.1834 -0.7859
  156SAPE   C3517402   2.138   5.049   7.414 -0.0175  0.2370  0.2845
  156SAPE   H5X17403   2.159   5.145   7.466  0.6656  0.8560 -1.0956
  156SAPE   H5Y17404   2.199   4.970   7.462 -1.1975 -2.0407 -1.7214
  156SAPE   C3617405   1.987   5.010   7.430  0.1938 -0.2651 -0.0614
  156SAPE   H6X17406   1.974   4.910   7.383  0.1892 -1.1116  1.6699
  156SAPE   H6Y17407   1.920   5.096   7.410 -2.2517 -1.8126  1.0945
  156SAPE   C3717408   1.969   4.982   7.583  0.0716 -0.4225  0.0025
  156SAPE   H7X17409   1.998   5.075   7.637 -2.0683 -0.3972  1.2243
  156SAPE   H7Y17410   2.044   4.909   7.620  0.4174  0.1805  0.5370
  156SAPE   C3817411   1.827   4.946   7.620  0.2757  0.4340  0.0733
  156SAPE   H8X17412   1.797   4.874   7.541  1.2223 -0.3267  0.3724
  156SAPE   H8Y17413   1.771   5.040   7.605 -0.8656 -0.0102  1.3515
  156SAPE   C3917414   1.790   4.883   7.751  0.3706 -0.0732 -0.5823
  156SAPE   H9X17415   1.835   4.783   7.773 -1.7904 -0.6126  2.0254
  156SAPE   H9Y17416   1.682   4.856   7.754  0.4160 -0.2442 -0.4134
  156SAPE  C31017417   1.807   4.977   7.869  0.1094  1.1557  1.3578
  156SAPE  H10X17418   1.739   5.062   7.850 -0.0872  1.1143  1.8564
  156SAPE  H10Y17419   1.906   5.025   7.884 -0.4445  2.8899 -0.1867
  156SAPE  C31117420   1.758   4.910   7.992  0.4087  0.5435  0.0755
  156SAPE  H11X17421   1.824   4.824   8.020  2.6831  2.8715  2.3983
  156SAPE  H11Y17422   1.658   4.872   7.963  0.8069 -0.9275  0.5227
  156SAPE  C31217423   1.745   5.011   8.109  0.1205  0.3728  0.3759
  156SAPE  H12X17424   1.711   4.953   8.197 -1.8664 -1.5048 -1.4813
  156SAPE  H12Y17425   1.659   5.080   8.094 -1.7549 -2.1279 -1.1917
  156SAPE  C31317426   1.871   5.086   8.142  0.9396  0.3243 -0.2548
  156SAPE  H13X17427   1.891   5.158   8.059  1.0766  0.8191  0.1980
  156SAPE  H13Y17428   1.961   5.021   8.154 -0.4964 -1.5466  0.9888
  156SAPE  C31417429   1.859   5.159   8.274  0.0623 -0.2893  0.2913
  156SAPE  H14X17430   1.840   5.078   8.348  1.2470 -1.2107 -0.3671
  156SAPE  H14Y17431   1.769   5.223   8.264 -0.4983 -0.8303  1.6741
  156SAPE  C31517432   1.986   5.240   8.300  0.1192 -0.1072  0.8755
  156SAPE  H15X17433   2.008   5.305   8.213  0.1809 -0.5136  0.5842
  156SAPE  H15Y17434   2.069   5.167   8.311 -0.3971 -0.6376  1.3354
  156SAPE  C31617435   1.976   5.314   8.435 -0.5357 -0.0739 -0.0455
  156SAPE  H16X17436   1.940   5.237   8.507 -2.5406  1.5299  0.7670
  156SAPE  H16Y17437   1.892   5.385   8.421  0.0889  0.1767 -3.3817
  156SAPE  C31717438   2.108   5.371   8.472  0.0931 -0.4672 -0.6782
  156SAPE  H17X17439   2.184   5.290   8.465  0.0222 -0.5423 -0.5851
  156SAPE  H17Y17440   2.109   5.413   8.575  0.9407 -0.9760 -0.4698
  156SAPE  C31817441   2.151   5.478   8.371  0.4247 -0.0560  0.4365
  156SAPE  H18X17442   2.168   5.424   8.276 -2.5104 -0.7856  0.2299
  156SAPE  H18Y17443   2.241   5.534   8.406  1.8743 -1.7097 -0.4612
  156SAPE  H18Z17444   2.059   5.539   8.370  0.0152 -0.6225  1.3861
  157SAPE     N17445   6.282   0.747   6.280  0.0547  0.6225  0.0432
  157SAPE   HN117446   6.294   0.686   6.363 -1.9866 -0.7134 -0.5572
  157SAPE   HN217447   6.339   0.834   6.272  1.7199 -0.4316 -0.1037
  157SAPE   HN317448   6.184   0.781   6.269 -0.1489 -0.0917 -0.3591
  157SAPE   C1217449   6.317   0.660   6.167 -0.2150 -0.2121 -0.0693
  157SAPE  H12A17450   6.416   0.613   6.183  0.2333  0.7034 -0.1318
  157SAPE  H12B17451   6.325   0.728   6.079  0.3944 -0.3725 -0.1396
  157SAPE   C1117452   6.222   0.542   6.147  0.0320 -0.5134 -0.1105
  157SAPE  H11A17453   6.243   0.498   6.047  1.8363 -0.3811  0.1776
  157SAPE  H11B17454   6.116   0.574   6.141  0.3320  0.3771 -0.7810
  157SAPE     P17455   6.341   0.325   6.224 -0.5722  0.2963  0.0735
  157SAPE   O1317456   6.267   0.238   6.125 -0.1839  0.1894  0.1688
  157SAPE   O1417457   6.471   0.380   6.185 -0.0490  0.1550  0.0787
  157SAPE   O1217458   6.244   0.444   6.254 -0.0261 -0.3516 -0.2250
  157SAPE   O1117459   6.356   0.251   6.361  0.3090  0.0620 -0.7772
  157SAPE    C117460   6.398   0.318   6.485 -0.4550  0.6769 -0.3405
  157SAPE    HA17461   6.474   0.250   6.529 -1.8145 -3.1751 -3.3496
  157SAPE    HB17462   6.449   0.417   6.478  0.3766  0.2131 -0.9332
  157SAPE    C217463   6.297   0.317   6.606  0.1945 -0.1239  0.1297
  157SAPE    HS17464   6.227   0.403   6.608 -0.4657 -0.6380  2.6282
  157SAPE   O2117465   6.361   0.306   6.727 -0.1384  0.1605 -0.8608
  157SAPE   C2117466   6.410   0.409   6.789  0.1679 -0.3593 -0.7442
  157SAPE   O2217467   6.380   0.524   6.758 -0.1001  0.1189 -0.5108
  157SAPE   C2217468   6.496   0.364   6.904 -0.9422 -0.7117 -0.3093
  157SAPE   H2R17469   6.511   0.255   6.917  3.5383  0.0205  4.1965
  157SAPE   H2S17470   6.598   0.406   6.887 -2.4059  4.2242  1.2454
  157SAPE    C317471   6.207   0.188   6.588 -0.4542  0.1226  0.2536
  157SAPE    HX17472   6.272   0.099   6.571 -2.1466 -1.1808  0.3220
  157SAPE    HY17473   6.150   0.212   6.495  0.3287 -0.1615 -0.3031
  157SAPE   O3117474   6.107   0.184   6.693 -0.5434 -0.3207 -0.2161
  157SAPE   C3117475   6.126   0.083   6.777 -0.6032 -0.0920  0.1757
  157SAPE   O3217476   6.190  -0.018   6.758 -0.5067 -0.3068  0.0827
  157SAPE   C3217477   6.047   0.115   6.909  0.5440  0.4025  0.2967
  157SAPE   H2X17478   5.968   0.041   6.931  0.3622  0.9038  1.3998
  157SAPE   H2Y17479   6.004   0.216   6.893 -3.2601 -1.4196 -2.7930
  157SAPE   C2317480   6.442   0.427   7.033 -0.5586  0.1313  0.3170
  157SAPE   H3R17481   6.347   0.375   7.059  0.1444 -0.8046  1.1018
  157SAPE   H3S17482   6.421   0.532   7.003 -1.5799 -0.4658 -1.1279
  157SAPE   C2417483   6.546   0.440   7.154 -0.7643 -0.4441  0.0050
  157SAPE   H4R17484   6.511   0.522   7.221  0.0349 -0.6463  0.6807
  157SAPE   H4S17485   6.650   0.468   7.126  0.0159 -0.8975  2.2895
  157SAPE   C2517486   6.547   0.310   7.230  0.2978 -0.1898 -0.7227
  157SAPE   H5R17487   6.565   0.217   7.173 -0.8715 -0.0337 -1.3753
  157SAPE   C2617488   6.529   0.295   7.366  0.2939  0.0502  0.1030
  157SAPE   H6R17489   6.541   0.193   7.406 -2.5237 -0.5116 -0.2751
  157SAPE   C2717490   6.516   0.402   7.468 -0.0956 -1.2148  0.3212
  157SAPE   H7R17491   6.511   0.505   7.426  0.8945 -0.7441  1.3229
  157SAPE   H7S17492   6.613   0.400   7.521 -0.1763 -2.8364  0.4338
  157SAPE   C2817493   6.397   0.381   7.558 -0.4993  1.0748 -0.2848
  157SAPE   H8R17494   6.304   0.372   7.501 -1.8809  0.2245  1.9737
  157SAPE   C2917495   6.405   0.377   7.688 -0.4495  0.4996  0.5135
  157SAPE   H9R17496   6.316   0.354   7.749 -0.0975 -0.1765  0.7845
  157SAPE  C21017497   6.529   0.390   7.772 -0.0798 -0.9420  0.1822
  157SAPE  H10R17498   6.503   0.413   7.878  1.6656  1.0021  0.2427
  157SAPE  H10S17499   6.594   0.475   7.743 -0.5322 -0.6571 -0.0071
  157SAPE  C21117500   6.609   0.262   7.762  0.0056 -0.3096 -0.6924
  157SAPE  H11R17501   6.632   0.229   7.660  2.3734 -1.6677  0.2186
  157SAPE  C21217502   6.664   0.197   7.869  0.2440  0.1837 -0.1208
  157SAPE  H12R17503   6.707   0.099   7.842 -0.4427 -0.3492  0.6647
  157SAPE  C21317504   6.651   0.226   8.017 -0.8742 -0.1784 -0.5546
  157SAPE  H13R17505   6.634   0.132   8.074  1.3209 -2.2391 -3.0099
  157SAPE  H13S17506   6.567   0.296   8.036  0.1516  0.7160  0.8253
  157SAPE  C21417507   6.775   0.282   8.077 -0.5023  0.0064  0.1496
  157SAPE  H14R17508   6.845   0.308   7.995 -1.3552 -1.4795 -1.1057
  157SAPE  C21517509   6.814   0.303   8.203 -0.5756 -0.2004 -0.2477
  157SAPE  H15R17510   6.919   0.335   8.215  0.5813 -2.6521 -2.8135
  157SAPE  C21617511   6.724   0.271   8.322  0.1972  0.2829 -0.1251
  157SAPE  H16R17512   6.638   0.206   8.294 -0.2141 -0.0382  1.7532
  157SAPE  H16S17513   6.668   0.360   8.359 -1.0274 -0.3809 -0.3169
  157SAPE  C21717514   6.817   0.206   8.420  0.1030 -0.1512 -0.0039
  157SAPE  H17R17515   6.896   0.278   8.450 -0.5225  0.2327  0.7476
  157SAPE  H17S17516   6.868   0.119   8.373 -1.1904  0.0861 -1.9651
  157SAPE  C21817517   6.748   0.161   8.548 -0.0026  0.1066 -0.6086
  157SAPE  H18R17518   6.655   0.111   8.514 -0.8677  1.2844 -0.0379
  157SAPE  H18S17519   6.714   0.249   8.606 -2.6113 -1.0282 -0.2777
  157SAPE  C21917520   6.834   0.054   8.621 -0.2066  0.6722 -0.2549
  157SAPE  H19R17521   6.936   0.095   8.640 -0.5598  1.9895 -1.1208
  157SAPE  H19S17522   6.830  -0.044   8.569  2.2462  0.3529  0.0098
  157SAPE  C22017523   6.783   0.035   8.761 -0.7755  0.0773 -0.1284
  157SAPE  H20R17524   6.868   0.012   8.829  0.5079  1.8192 -1.0455
  157SAPE  H20S17525   6.694  -0.031   8.765 -0.2966 -0.7606 -2.1033
  157SAPE  H20T17526   6.745   0.131   8.803  0.8549  0.9817 -0.6284
  157SAPE   C3317527   6.143   0.131   7.027 -0.8849  0.0543 -0.0556
  157SAPE   H3X17528   6.214   0.215   7.011  0.1035 -0.6865  0.3681
  157SAPE   H3Y17529   6.197   0.035   7.039  0.4404  0.7288 -0.4455
  157SAPE   C3417530   6.060   0.153   7.157  0.1572  0.7193 -0.0877
  157SAPE   H4X17531   6.007   0.055   7.158  1.3887 -0.0406 -2.4129
  157SAPE   H4Y17532   5.985   0.232   7.139 -1.6057 -1.3824 -2.6138
  157SAPE   C3517533   6.147   0.169   7.281  0.0812  0.3707  0.6860
  157SAPE   H5X17534   6.076   0.155   7.366  1.1707 -0.1387  1.5435
  157SAPE   H5Y17535   6.193   0.270   7.282 -0.1343  0.4694  0.6097
  157SAPE   C3617536   6.257   0.055   7.299  0.2086  0.1382 -0.1698
  157SAPE   H6X17537   6.344   0.091   7.241 -0.1535  1.3682  0.0146
  157SAPE   H6Y17538   6.203  -0.030   7.250 -0.5317  0.5872 -0.1551
  157SAPE   C3717539   6.274   0.012   7.450 -0.1814 -0.6196  0.0065
  157SAPE   H7X17540   6.176  -0.026   7.486 -1.3290  1.8051 -0.3340
  157SAPE   H7Y17541   6.287   0.105   7.509 -0.1677  0.3071 -1.4095
  157SAPE   C3817542   6.386  -0.092   7.470  0.2976  0.1589  0.1999
  157SAPE   H8X17543   6.484  -0.082   7.419  0.0594  0.7227 -0.1498
  157SAPE   H8Y17544   6.342  -0.185   7.429  0.0155 -0.2729  1.4292
  157SAPE   C3917545   6.427  -0.110   7.620 -0.0771  0.4536 -0.4694
  157SAPE   H9X17546   6.342  -0.121   7.689  0.4324  0.7699  0.2188
  157SAPE   H9Y17547   6.485  -0.021   7.655  3.3385 -1.0473 -1.8713
  157SAPE  C31017548   6.517  -0.231   7.625  0.4000  0.2555 -0.7636
  157SAPE  H10X17549   6.618  -0.219   7.581  1.1484 -0.1056  0.7678
  157SAPE  H10Y17550   6.471  -0.317   7.572  0.5986 -1.9961  2.3986
  157SAPE  C31117551   6.554  -0.277   7.767  0.0290 -0.9836 -0.3150
  157SAPE  H11X17552   6.470  -0.266   7.839  1.0930  0.3369  0.7908
  157SAPE  H11Y17553   6.628  -0.206   7.809  2.1261 -1.5054 -2.8850
  157SAPE  C31217554   6.621  -0.418   7.775  0.0652  0.2305 -0.0229
  157SAPE  H12X17555   6.719  -0.422   7.722  1.6281  0.9613  2.6128
  157SAPE  H12Y17556   6.555  -0.494   7.728  0.2342 -1.4675  2.3559
  157SAPE  C31317557   6.654  -0.455   7.919  0.0326 -0.7529 -0.1697
  157SAPE  H13X17558   6.569  -0.436   7.989 -1.2202  0.3024 -1.9047
  157SAPE  H13Y17559   6.746  -0.401   7.950 -0.3897 -0.0778 -0.0563
  157SAPE  C31417560   6.664  -0.609   7.944 -0.5717  0.1132 -0.1012
  157SAPE  H14X17561   6.717  -0.656   7.858 -0.4059  0.7947 -0.3828
  157SAPE  H14Y17562   6.564  -0.656   7.937  0.5254 -2.1894 -1.5655
  157SAPE  C31517563   6.733  -0.640   8.079 -0.2353 -0.1531  0.4636
  157SAPE  H15X17564   6.668  -0.607   8.163 -2.2267  0.7731 -1.3640
  157SAPE  H15Y17565   6.829  -0.584   8.091 -0.7300  0.2892  2.8069
  157SAPE  C31617566   6.760  -0.789   8.091  0.2665  0.0160 -0.2685
  157SAPE  H16X17567   6.820  -0.814   8.000  0.5705  2.4828 -0.8133
  157SAPE  H16Y17568   6.667  -0.850   8.094  0.5164 -0.3599  0.0122
  157SAPE  C31717569   6.835  -0.815   8.219 -0.1501 -0.5257  0.0827
  157SAPE  H17X17570   6.782  -0.789   8.313  2.1437  2.1529  0.7502
  157SAPE  H17Y17571   6.927  -0.753   8.226 -0.5615  0.1195 -0.2158
  157SAPE  C31817572   6.873  -0.963   8.231  0.2780 -0.2325  0.1828
  157SAPE  H18X17573   6.806  -1.022   8.296  0.6881  1.7958  2.5922
  157SAPE  H18Y17574   6.976  -0.968   8.274  2.2925  0.9597 -3.9414
  157SAPE  H18Z17575   6.883  -1.015   8.133  0.5032  0.2176 -0.0365
  158SAPE     N17576   1.035   0.003   6.135  0.1877  0.1049 -0.2170
  158SAPE   HN117577   0.959  -0.018   6.202 -0.7777  0.3806 -1.2088
  158SAPE   HN217578   1.067   0.100   6.154  1.3824 -0.1791 -0.6731
  158SAPE   HN317579   0.993   0.000   6.040 -1.8648  1.1114  0.5949
  158SAPE   C1217580   1.149  -0.090   6.133 -0.3887  0.3501 -0.7364
  158SAPE  H12A17581   1.095  -0.183   6.103 -1.6821  0.7902  0.1132
  158SAPE  H12B17582   1.187  -0.097   6.237 -0.6548  0.3754 -0.6373
  158SAPE   C1117583   1.254  -0.035   6.039  0.2486  0.1257 -0.0409
  158SAPE  H11A17584   1.203  -0.028   5.940  0.7968  0.0869 -0.3260
  158SAPE  H11B17585   1.334  -0.112   6.039 -0.5249 -0.7058 -0.0207
  158SAPE     P17586   1.386   0.125   6.207  0.0672  0.1184 -0.1569
  158SAPE   O1317587   1.452  -0.003   6.239 -0.1986 -0.7797 -0.4447
  158SAPE   O1417588   1.465   0.248   6.188 -0.0755  0.1162 -0.7210
  158SAPE   O1217589   1.304   0.096   6.074  0.3568  0.1544  0.1499
  158SAPE   O1117590   1.279   0.155   6.314 -0.2251  0.2183  0.3996
  158SAPE    C117591   1.266   0.284   6.381  0.1371 -0.0707 -0.4790
  158SAPE    HA17592   1.289   0.371   6.316 -2.9241 -0.5110 -2.3500
  158SAPE    HB17593   1.158   0.309   6.386  0.3553  0.5969  1.6882
  158SAPE    C217594   1.348   0.295   6.515 -0.0285 -0.8835  0.6950
  158SAPE    HS17595   1.454   0.308   6.485 -1.2282  2.1989 -3.0797
  158SAPE   O2117596   1.336   0.178   6.597 -0.0125  0.1523 -0.0652
  158SAPE   C2117597   1.219   0.163   6.656  0.2142  0.0627 -0.4578
  158SAPE   O2217598   1.124   0.234   6.660 -0.1664  0.2811 -0.2452
  158SAPE   C2217599   1.222   0.037   6.733 -0.1029 -0.4798  0.5068
  158SAPE   H2R17600   1.142  -0.026   6.688 -0.4995  0.1414  0.3365
  158SAPE   H2S17601   1.324  -0.008   6.728  1.2736  1.3417  5.6498
  158SAPE    C317602   1.314   0.437   6.583 -0.8566  0.3771  0.2334
  158SAPE    HX17603   1.205   0.449   6.568 -1.0406  0.1862  1.2963
  158SAPE    HY17604   1.362   0.519   6.527 -0.5425 -1.1265 -1.8369
  158SAPE   O3117605   1.347   0.437   6.725  0.3152  0.5529 -0.9242
  158SAPE   C3117606   1.468   0.492   6.751  1.0439  1.0706  0.2310
  158SAPE   O3217607   1.548   0.527   6.667  0.0785  0.0137  0.6425
  158SAPE   C3217608   1.482   0.483   6.906  0.0047 -0.5534 -0.2568
  158SAPE   H2X17609   1.477   0.374   6.927 -0.1574 -0.4219  0.4089
  158SAPE   H2Y17610   1.395   0.530   6.955  0.8845  1.8650 -0.8806
  158SAPE   C2317611   1.189   0.063   6.886  0.2194  0.4484 -0.7694
  158SAPE   H3R17612   1.201  -0.029   6.948  0.2283  1.6707  1.1453
  158SAPE   H3S17613   1.088   0.102   6.912  0.1998 -0.6114  0.9831
  158SAPE   C2417614   1.302   0.146   6.945  0.0905  0.5171 -0.3068
  158SAPE   H4R17615   1.306   0.229   6.871  1.2533 -1.0592 -2.1275
  158SAPE   H4S17616   1.399   0.092   6.936  0.3917  0.8640  0.7535
  158SAPE   C2517617   1.307   0.193   7.087 -0.1415  0.0739 -0.9075
  158SAPE   H5R17618   1.374   0.279   7.100 -2.5729  1.7033  2.0810
  158SAPE   C2617619   1.241   0.150   7.196 -0.1084  0.2079  0.0235
  158SAPE   H6R17620   1.246   0.214   7.285 -0.5695  0.8525 -0.4090
  158SAPE   C2717621   1.137   0.039   7.219 -0.4534 -0.2240 -0.1054
  158SAPE   H7R17622   1.199  -0.042   7.262  2.0368  0.4249 -2.1655
  158SAPE   H7S17623   1.094   0.013   7.120 -1.4084  1.4868 -0.1914
  158SAPE   C2817624   1.025   0.080   7.309 -0.0313  0.5272  0.5016
  158SAPE   H8R17625   1.002   0.186   7.294  1.6275  0.8575  0.0955
  158SAPE   C2917626   0.952  -0.002   7.389 -0.5018  0.3848 -0.6981
  158SAPE   H9R17627   0.870   0.040   7.449 -0.1055  2.4304 -1.4967
  158SAPE  C21017628   0.967  -0.152   7.406 -0.0010 -0.0858  0.2481
  158SAPE  H10R17629   0.955  -0.193   7.304  1.7462 -3.4549  1.2336
  158SAPE  H10S17630   0.876  -0.194   7.454 -0.4480 -0.2819 -0.7500
  158SAPE  C21117631   1.079  -0.222   7.470 -0.1517 -0.1271 -0.0389
  158SAPE  H11R17632   1.139  -0.269   7.390  0.7450  0.1056  0.4886
  158SAPE  C21217633   1.123  -0.210   7.595  0.3622  0.0438 -0.4692
  158SAPE  H12R17634   1.220  -0.258   7.611  1.3735  1.9155 -0.6392
  158SAPE  C21317635   1.061  -0.125   7.703  0.3915 -0.2277  0.0336
  158SAPE  H13R17636   1.046  -0.188   7.793 -1.6978  0.4984  0.2324
  158SAPE  H13S17637   0.955  -0.098   7.685 -0.2871 -1.4616  1.9069
  158SAPE  C21417638   1.140  -0.001   7.731 -0.2786 -0.2402  0.3633
  158SAPE  H14R17639   1.142   0.074   7.650 -1.0380 -0.1841  0.3888
  158SAPE  C21517640   1.203   0.015   7.853 -1.1710  0.1398  0.3100
  158SAPE  H15R17641   1.252   0.109   7.886  0.4043  0.0137 -1.5034
  158SAPE  C21617642   1.208  -0.091   7.965 -0.5304  0.2240  0.6953
  158SAPE  H16R17643   1.240  -0.190   7.925 -0.9234  0.2176  0.3919
  158SAPE  H16S17644   1.105  -0.099   8.006 -0.3008  0.2359  1.2696
  158SAPE  C21717645   1.310  -0.051   8.079  0.3221  0.1838 -0.3080
  158SAPE  H17R17646   1.404  -0.041   8.021  0.7376 -1.0673  0.1108
  158SAPE  H17S17647   1.318  -0.144   8.139 -1.5885  1.1292  1.5722
  158SAPE  C21817648   1.271   0.067   8.168  0.6311 -0.7531  0.4491
  158SAPE  H18R17649   1.179   0.035   8.222  1.0915 -1.0171  1.0870
  158SAPE  H18S17650   1.256   0.164   8.115  0.4453 -0.7737  0.4609
  158SAPE  C21917651   1.384   0.095   8.275  0.3221 -0.1639  0.0379
  158SAPE  H19R17652   1.462   0.156   8.224  2.1226 -1.4377  1.1155
  158SAPE  H19S17653   1.427  -0.004   8.302  1.5001 -0.1747 -1.6729
  158SAPE  C22017654   1.334   0.159   8.408  0.0846 -0.0104 -0.7242
  158SAPE  H20R17655   1.254   0.235   8.394 -0.4427 -0.9133 -3.1309
  158SAPE  H20S17656   1.419   0.196   8.470 -1.1379  0.5958  0.6315
  158SAPE  H20T17657   1.295   0.074   8.466  0.4750  0.5227  0.3383
  158SAPE   C3317658   1.620   0.538   6.953 -0.4672 -0.1106 -0.0834
  158SAPE   H3X17659   1.632   0.648   6.942  4.1944 -0.5150 -0.9589
  158SAPE   H3Y17660   1.689   0.493   6.878 -0.6345  2.6464 -2.0455
  158SAPE   C3417661   1.664   0.488   7.084  0.1530 -0.8348  0.0820
  158SAPE   H4X17662   1.664   0.377   7.096 -0.4503 -0.6959  1.5868
  158SAPE   H4Y17663   1.588   0.519   7.158 -0.9917  0.7274 -1.6441
  158SAPE   C3517664   1.811   0.535   7.118 -0.0412  0.2748 -0.2921
  158SAPE   H5X17665   1.805   0.646   7.113  0.3317  0.3778  1.1339
  158SAPE   H5Y17666   1.882   0.516   7.035  0.2362  0.9946 -0.2265
  158SAPE   C3617667   1.858   0.480   7.248 -0.3312  0.5109  0.2146
  158SAPE   H6X17668   1.955   0.531   7.267 -0.2259 -0.4816  2.7714
  158SAPE   H6Y17669   1.870   0.372   7.229 -3.1493  0.3573 -1.2898
  158SAPE   C3717670   1.764   0.506   7.369  0.9104  0.7593  0.0680
  158SAPE   H7X17671   1.752   0.616   7.378  1.9267  0.7252  3.0162
  158SAPE   H7Y17672   1.668   0.451   7.357 -0.1299  2.1035  1.8248
  158SAPE   C3817673   1.801   0.445   7.503  0.5333 -0.2540 -0.1349
  158SAPE   H8X17674   1.880   0.499   7.559 -2.0546  2.4739  1.2164
  158SAPE   H8Y17675   1.836   0.342   7.482 -0.5081 -0.7154  0.3417
  158SAPE   C3917676   1.669   0.437   7.591  0.1434  0.2178  0.8728
  158SAPE   H9X17677   1.586   0.373   7.553 -1.4165  2.5279  0.1883
  158SAPE   H9Y17678   1.625   0.538   7.606 -0.7418  0.0178 -0.2826
  158SAPE  C31017679   1.708   0.374   7.727 -0.9005 -0.1603 -0.1107
  158SAPE  H10X17680   1.786   0.434   7.779 -0.7070 -1.3800  1.0983
  158SAPE  H10Y17681   1.754   0.275   7.705 -0.9037 -1.0257  3.1426
  158SAPE  C31117682   1.591   0.335   7.814  0.1009  0.1495 -0.1928
  158SAPE  H11X17683   1.635   0.280   7.901  0.8281  0.5764 -0.2850
  158SAPE  H11Y17684   1.532   0.259   7.758  0.6112 -1.2088  1.0234
  158SAPE  C31217685   1.505   0.451   7.848 -0.0918  0.0456  0.4378
  158SAPE  H12X17686   1.435   0.473   7.764 -1.3005 -2.1554  0.7846
  158SAPE  H12Y17687   1.570   0.537   7.873  0.5868 -0.2597 -0.2536
  158SAPE  C31317688   1.422   0.429   7.977 -0.0263  0.5421  0.4400
  158SAPE  H13X17689   1.492   0.428   8.064 -0.4589  0.5425  0.7919
  158SAPE  H13Y17690   1.374   0.329   7.982 -1.8411  1.3017 -0.8537
  158SAPE  C31417691   1.314   0.533   7.995 -1.1490 -0.4503 -0.0627
  158SAPE  H14X17692   1.260   0.546   7.899  1.7118  1.7594 -1.5034
  158SAPE  H14Y17693   1.364   0.631   8.009 -0.4299 -0.9723  1.2321
  158SAPE  C31517694   1.227   0.517   8.123 -0.2686 -0.2777  0.2994
  158SAPE  H15X17695   1.297   0.498   8.208  0.0697 -0.2567  0.0312
  158SAPE  H15Y17696   1.161   0.428   8.111 -0.6913  0.2403 -1.4451
  158SAPE  C31617697   1.131   0.632   8.155 -0.4934  0.0140 -0.6215
  158SAPE  H16X17698   1.053   0.649   8.078  0.1552  2.7944 -0.7902
  158SAPE  H16Y17699   1.195   0.722   8.168 -0.2916 -0.4077  1.7940
  158SAPE  C31717700   1.055   0.628   8.286 -0.0284  0.0557 -0.6575
  158SAPE  H17X17701   1.133   0.642   8.364 -1.2876  2.8243  0.2370
  158SAPE  H17Y17702   1.005   0.530   8.301 -0.5795 -0.0467 -2.8416
  158SAPE  C31817703   0.950   0.745   8.304 -0.3226  0.4792  0.4285
  158SAPE  H18X17704   0.865   0.726   8.235  0.2555  0.1409 -0.2142
  158SAPE  H18Y17705   0.998   0.842   8.277 -2.0450  0.7870 -1.9053
  158SAPE  H18Z17706   0.919   0.750   8.410  2.3483 -0.4981  1.3325
  159SAPE     N17707   0.011   0.887   5.867  0.1328  0.3156 -0.2703
  159SAPE   HN117708   0.017   0.991   5.870  0.4140  0.3516 -1.4479
  159SAPE   HN217709   0.051   0.862   5.960 -1.5211  0.2758  0.4586
  159SAPE   HN317710   0.074   0.861   5.789  1.8379  1.9355  0.4962
  159SAPE   C1217711  -0.127   0.834   5.848  0.3811  0.2492  0.1786
  159SAPE  H12A17712  -0.110   0.730   5.812 -0.8628  0.5895 -1.5337
  159SAPE  H12B17713  -0.186   0.897   5.778 -2.1438 -0.6893  1.3317
  159SAPE   C1117714  -0.202   0.839   5.983  0.7912 -0.0251  0.2264
  159SAPE  H11A17715  -0.153   0.764   6.049 -1.5420 -0.9666  0.9781
  159SAPE  H11B17716  -0.304   0.799   5.965  0.7337 -0.5333  1.5852
  159SAPE     P17717  -0.248   0.986   6.191 -0.3178  0.1884  0.3404
  159SAPE   O1317718  -0.390   0.947   6.210 -0.1407  0.0035 -0.0766
  159SAPE   O1417719  -0.148   0.896   6.263  0.3265 -0.1556 -0.1349
  159SAPE   O1217720  -0.213   0.976   6.033  0.2158 -0.0314 -0.2263
  159SAPE   O1117721  -0.225   1.136   6.221  0.3663  0.0683  0.3477
  159SAPE    C117722  -0.106   1.203   6.178 -0.3654 -0.2819 -0.2861
  159SAPE    HA17723  -0.022   1.133   6.156 -1.0723 -2.4796  3.3249
  159SAPE    HB17724  -0.134   1.260   6.086 -1.4403 -0.3014  0.0146
  159SAPE    C217725  -0.059   1.293   6.294  0.3626 -0.4620  0.0789
  159SAPE    HS17726   0.042   1.331   6.268  0.7192 -1.1610  0.4052
  159SAPE   O2117727  -0.057   1.203   6.413 -0.9245  0.1340  0.4467
  159SAPE   C2117728   0.055   1.132   6.414  0.1038  0.0913 -0.6797
  159SAPE   O2217729   0.148   1.137   6.338  0.1798  0.0266 -0.1959
  159SAPE   C2217730   0.045   1.035   6.532  1.3916 -0.0759  0.3261
  159SAPE   H2R17731  -0.064   1.017   6.541  1.0145 -0.1786 -2.9777
  159SAPE   H2S17732   0.090   0.938   6.503 -0.3232 -1.0379  0.7449
  159SAPE    C317733  -0.168   1.405   6.325  0.9062 -0.0184  0.0889
  159SAPE    HX17734  -0.272   1.374   6.302  0.9789  0.5647 -1.1136
  159SAPE    HY17735  -0.152   1.490   6.256  2.1920  0.3747  0.8306
  159SAPE   O3117736  -0.162   1.455   6.460  0.0353  0.1123 -0.0254
  159SAPE   C3117737  -0.270   1.478   6.527  1.5165  0.4202 -1.0733
  159SAPE   O3217738  -0.386   1.450   6.493  0.3086 -0.1341  0.1936
  159SAPE   C3217739  -0.228   1.552   6.647  0.0409  0.0804  0.5056
  159SAPE   H2X17740  -0.149   1.626   6.621 -0.2763  0.4305  0.5238
  159SAPE   H2Y17741  -0.176   1.479   6.713 -0.4406  1.1667  2.1586
  159SAPE   C2317742   0.105   1.097   6.655 -0.0507 -0.6360 -0.1372
  159SAPE   H3R17743   0.075   1.040   6.746 -1.9548 -2.9042 -2.0353
  159SAPE   H3S17744   0.062   1.197   6.677 -0.4446 -0.7367 -0.4420
  159SAPE   C2417745   0.262   1.116   6.648  0.1961 -0.8002  0.1869
  159SAPE   H4R17746   0.291   1.165   6.744 -0.7429 -0.4546  0.3039
  159SAPE   H4S17747   0.300   1.185   6.570 -0.4194 -0.5932  0.0683
  159SAPE   C2517748   0.333   0.987   6.642 -0.3554  0.1037 -0.8269
  159SAPE   H5R17749   0.362   0.964   6.538 -1.1397  3.3727 -1.8893
  159SAPE   C2617750   0.352   0.895   6.739  0.2129 -0.5214 -0.6633
  159SAPE   H6R17751   0.420   0.811   6.716  0.2307 -0.0934 -2.3025
  159SAPE   C2717752   0.315   0.907   6.889 -0.1833 -0.4081 -0.0736
  159SAPE   H7R17753   0.221   0.849   6.903 -0.7831  0.7022  0.6533
  159SAPE   H7S17754   0.290   1.015   6.898 -1.0348 -0.4936 -1.2188
  159SAPE   C2817755   0.406   0.856   6.992  0.0542 -0.3815 -0.0195
  159SAPE   H8R17756   0.499   0.805   6.960 -1.3638 -1.8950 -1.9963
  159SAPE   C2917757   0.390   0.872   7.122  0.5713 -0.1207  0.3305
  159SAPE   H9R17758   0.457   0.828   7.197 -0.1612 -0.7497  0.6257
  159SAPE  C21017759   0.261   0.919   7.186  0.4980 -0.7442 -0.1909
  159SAPE  H10R17760   0.179   0.933   7.112  0.5152  0.7469  0.0404
  159SAPE  H10S17761   0.280   1.022   7.223 -0.7473 -1.1253  1.6012
  159SAPE  C21117762   0.203   0.840   7.304  0.4287 -0.0067  0.2654
  159SAPE  H11R17763   0.122   0.774   7.270 -1.1040  1.7992  0.2068
  159SAPE  C21217764   0.243   0.840   7.429  0.3810  0.5497 -0.7438
  159SAPE  H12R17765   0.186   0.777   7.498  0.2218 -0.1019 -1.4520
  159SAPE  C21317766   0.355   0.915   7.493  0.7774 -0.9625  0.7865
  159SAPE  H13R17767   0.322   1.013   7.535  0.3052 -0.3386 -0.9438
  159SAPE  H13S17768   0.427   0.943   7.413 -0.5719  0.3223 -0.0546
  159SAPE  C21417769   0.433   0.844   7.601 -0.0241 -0.2515  0.0448
  159SAPE  H14R17770   0.501   0.765   7.567  0.2265 -1.2125  2.5888
  159SAPE  C21517771   0.444   0.881   7.734  0.0096 -0.0909 -0.6816
  159SAPE  H15R17772   0.500   0.815   7.802 -0.5812  0.4145  0.3101
  159SAPE  C21617773   0.372   1.001   7.797  1.0751 -0.7607  0.1419
  159SAPE  H16R17774   0.276   1.030   7.749 -0.4643 -0.9289  2.8939
  159SAPE  H16S17775   0.438   1.090   7.808  0.7977 -0.7527  2.1976
  159SAPE  C21717776   0.331   0.976   7.945  0.1558  0.2509  0.2223
  159SAPE  H17R17777   0.424   0.961   8.003  0.0062  0.7012  0.5856
  159SAPE  H17S17778   0.266   0.886   7.951 -0.2813  0.6268  1.4296
  159SAPE  C21817779   0.249   1.093   8.009  0.3509 -0.3496 -0.3434
  159SAPE  H18R17780   0.156   1.113   7.952 -0.4579 -0.6052  0.8448
  159SAPE  H18S17781   0.319   1.179   8.017  0.9483 -0.8971  0.4765
  159SAPE  C21917782   0.212   1.045   8.154  0.4896 -0.0882 -0.6874
  159SAPE  H19R17783   0.276   0.967   8.200  2.3391  3.0907  2.6394
  159SAPE  H19S17784   0.113   0.995   8.147 -0.6514  1.9567 -0.0180
  159SAPE  C22017785   0.176   1.151   8.257 -0.4529  0.6550 -0.2986
  159SAPE  H20R17786   0.099   1.223   8.221 -1.3431  0.5856  1.3524
  159SAPE  H20S17787   0.254   1.225   8.288 -0.7727  0.9792 -0.2632
  159SAPE  H20T17788   0.141   1.104   8.352 -0.2038  0.2088 -0.4239
  159SAPE   C3317789  -0.338   1.607   6.732  0.0624  0.0219  0.1851
  159SAPE   H3X17790  -0.436   1.608   6.679 -0.1812 -2.2693  0.5188
  159SAPE   H3Y17791  -0.309   1.709   6.765 -0.1945 -0.7785  3.1298
  159SAPE   C3417792  -0.372   1.522   6.857 -0.4764 -0.4226  0.2848
  159SAPE   H4X17793  -0.384   1.417   6.824 -0.5398 -0.4734  0.4678
  159SAPE   H4Y17794  -0.470   1.568   6.882  1.6037  4.8491  0.0260
  159SAPE   C3517795  -0.282   1.525   6.987 -0.1988  0.2664  0.4482
  159SAPE   H5X17796  -0.187   1.581   6.980 -0.0811  0.3956  2.4196
  159SAPE   H5Y17797  -0.248   1.421   7.005 -0.8922 -0.6818 -2.9276
  159SAPE   C3617798  -0.343   1.589   7.113  0.5504  0.2283  0.5233
  159SAPE   H6X17799  -0.438   1.536   7.135 -0.1986  1.5486  0.5562
  159SAPE   H6Y17800  -0.368   1.694   7.087 -0.1758 -0.2417 -0.7354
  159SAPE   C3717801  -0.262   1.583   7.239 -0.4013 -0.3187 -0.7019
  159SAPE   H7X17802  -0.183   1.660   7.224 -1.5042  1.2194  0.9664
  159SAPE   H7Y17803  -0.213   1.483   7.237  1.6098  0.5158  1.7468
  159SAPE   C3817804  -0.347   1.633   7.356 -0.8023  0.4634  0.2613
  159SAPE   H8X17805  -0.427   1.555   7.359 -0.1391 -0.3800 -1.9492
  159SAPE   H8Y17806  -0.404   1.727   7.341 -2.3594 -0.5967 -0.9012
  159SAPE   C3917807  -0.279   1.619   7.492 -0.9669  0.4221  0.5520
  159SAPE   H9X17808  -0.186   1.680   7.503  0.1965 -1.3877  1.1126
  159SAPE   H9Y17809  -0.244   1.514   7.497  1.1440  1.0643  0.5154
  159SAPE  C31017810  -0.360   1.636   7.622 -0.1014 -0.2136  0.6658
  159SAPE  H10X17811  -0.313   1.584   7.709 -0.7958 -1.9904  0.0237
  159SAPE  H10Y17812  -0.456   1.583   7.603  0.0897 -1.2001  2.2100
  159SAPE  C31117813  -0.382   1.778   7.678  0.4112 -0.5434  0.2778
  159SAPE  H11X17814  -0.479   1.772   7.731  0.0888  4.2498  0.6776
  159SAPE  H11Y17815  -0.398   1.851   7.596 -0.5779 -1.4049 -0.3123
  159SAPE  C31217816  -0.273   1.825   7.779 -0.1785  0.3084  0.5466
  159SAPE  H12X17817  -0.174   1.789   7.743 -0.8678 -1.8363  0.6554
  159SAPE  H12Y17818  -0.291   1.775   7.877  0.3941  0.3397  0.6731
  159SAPE  C31317819  -0.280   1.971   7.811  0.6374 -0.3787 -0.5146
  159SAPE  H13X17820  -0.385   2.007   7.814  0.7079 -0.2221  0.2009
  159SAPE  H13Y17821  -0.238   2.024   7.723  1.9904 -0.5667 -0.0016
  159SAPE  C31417822  -0.198   2.023   7.928  0.7422 -0.6944  0.1346
  159SAPE  H14X17823  -0.096   2.053   7.894  0.7517 -2.8027 -2.0052
  159SAPE  H14Y17824  -0.179   1.933   7.991 -1.0412 -3.2267 -2.6833
  159SAPE  C31517825  -0.274   2.132   8.002 -0.6592 -0.6271 -0.1336
  159SAPE  H15X17826  -0.373   2.098   8.040 -0.2583 -2.1993 -0.4187
  159SAPE  H15Y17827  -0.286   2.215   7.930  0.2874  0.2576  0.6999
  159SAPE  C31617828  -0.194   2.199   8.117 -0.0961  0.5902 -1.0351
  159SAPE  H16X17829  -0.114   2.260   8.069 -0.2846  0.8172 -1.0621
  159SAPE  H16Y17830  -0.152   2.113   8.173  0.5178 -0.5886 -3.1699
  159SAPE  C31717831  -0.269   2.298   8.204 -0.0201 -0.0511  0.3583
  159SAPE  H17X17832  -0.355   2.240   8.244 -0.5176  0.4439  0.0214
  159SAPE  H17Y17833  -0.307   2.377   8.136 -0.0263  0.5473  1.0495
  159SAPE  C31817834  -0.194   2.374   8.313 -0.2133 -0.2041  0.1876
  159SAPE  H18X17835  -0.131   2.311   8.379 -0.0465  0.4732  0.6949
  159SAPE  H18Y17836  -0.277   2.422   8.369  0.3800 -0.6950  1.5293
  159SAPE  H18Z17837  -0.126   2.458   8.289 -0.2100 -0.6669 -1.5415
  160SAPE     N17838   3.386   0.039   6.568  0.2139  0.0951  0.2361
  160SAPE   HN117839   3.475   0.008   6.524 -0.4075 -0.8985 -0.3514
  160SAPE   HN217840   3.389   0.142   6.582 -1.9001  0.1008  1.0024
  160SAPE   HN317841   3.373  -0.006   6.661 -2.0071  0.8158  0.3339
  160SAPE   C1217842   3.269   0.002   6.483  0.8802 -0.2672 -0.3147
  160SAPE  H12A17843   3.182   0.015   6.551  0.1546 -0.6294 -1.1489
  160SAPE  H12B17844   3.259  -0.107   6.463  1.0193 -0.5273  0.9551
  160SAPE   C1117845   3.259   0.096   6.361 -0.1209  0.7814 -0.0860
  160SAPE  H11A17846   3.163   0.096   6.306  0.5117  2.3473 -1.2947
  160SAPE  H11B17847   3.331   0.056   6.287  0.9197  0.0759  1.2606
  160SAPE     P17848   3.183   0.309   6.485 -0.1721  0.1609 -0.0704
  160SAPE   O1317849   3.198   0.457   6.476  0.0067 -0.0349 -0.8054
  160SAPE   O1417850   3.046   0.256   6.467 -0.1823 -0.4279 -0.6230
  160SAPE   O1217851   3.290   0.230   6.404 -0.5462  1.3528  0.5901
  160SAPE   O1117852   3.228   0.266   6.634  0.5513  0.1495  0.1561
  160SAPE    C117853   3.130   0.272   6.741  0.0665 -0.2144 -0.6505
  160SAPE    HA17854   3.039   0.212   6.721  0.3090 -0.9447  0.3458
  160SAPE    HB17855   3.178   0.230   6.832  0.2869  0.8941 -0.2358
  160SAPE    C217856   3.092   0.414   6.783  0.4379 -0.2352  0.0901
  160SAPE    HS17857   3.070   0.467   6.688  2.2596 -3.8574 -2.6126
  160SAPE   O2117858   3.210   0.469   6.852 -0.4615  0.4580  0.0856
  160SAPE   C2117859   3.209   0.598   6.876 -0.1283  0.0471  0.1179
  160SAPE   O2217860   3.136   0.679   6.828  0.2172 -0.7859  0.1741
  160SAPE   C2217861   3.330   0.628   6.964  0.5831  0.3731  0.2982
  160SAPE   H2R17862   3.351   0.536   7.023  0.3035 -1.5448 -2.4216
  160SAPE   H2S17863   3.419   0.660   6.906 -0.6881 -0.7583 -2.4648
  160SAPE    C317864   2.966   0.399   6.877 -0.0093 -0.2567 -0.3004
  160SAPE    HX17865   3.001   0.345   6.967  1.5777 -1.3492 -1.5237
  160SAPE    HY17866   2.885   0.346   6.822  0.5025  0.9404 -2.3267
  160SAPE   O3117867   2.912   0.532   6.918  0.1190  0.2216  0.4266
  160SAPE   C3117868   2.831   0.590   6.832 -0.1768 -0.3884  0.3721
  160SAPE   O3217869   2.778   0.536   6.738  0.5450 -0.4878  0.1114
  160SAPE   C3217870   2.812   0.737   6.861 -0.0255  0.0179  0.0231
  160SAPE   H2X17871   2.894   0.779   6.800 -0.2213  1.0202  0.4243
  160SAPE   H2Y17872   2.853   0.765   6.961 -1.6072 -1.0598  1.0092
  160SAPE   C2317873   3.317   0.742   7.063  0.3173  0.3789  0.6511
  160SAPE   H3R17874   3.292   0.840   7.018  2.3263  0.8307  0.4166
  160SAPE   H3S17875   3.422   0.749   7.100  1.9398  0.0152 -3.3792
  160SAPE   C2417876   3.218   0.690   7.173 -0.3105  0.0336  0.0993
  160SAPE   H4R17877   3.234   0.746   7.267 -0.2233 -1.4694  1.0180
  160SAPE   H4S17878   3.247   0.584   7.191  2.3924  0.6525 -0.1942
  160SAPE   C2517879   3.070   0.693   7.147  0.3418  0.0393  0.4933
  160SAPE   H5R17880   3.045   0.737   7.049  0.6307 -0.8671 -0.0011
  160SAPE   C2617881   2.970   0.652   7.225  0.2475  0.8281 -0.4704
  160SAPE   H6R17882   2.864   0.663   7.199  0.1192 -0.4354 -0.5557
  160SAPE   C2717883   2.992   0.607   7.369 -0.5424 -0.0704 -0.3494
  160SAPE   H7R17884   3.055   0.516   7.372  1.4766  1.2510 -0.0475
  160SAPE   H7S17885   2.893   0.577   7.409 -1.1783  0.5434 -1.4063
  160SAPE   C2817886   3.068   0.698   7.463  0.2467 -0.4175 -1.2731
  160SAPE   H8R17887   3.064   0.807   7.443  3.6334  0.8262  3.1616
  160SAPE   C2917888   3.128   0.654   7.577  0.0934  0.3784  0.3034
  160SAPE   H9R17889   3.184   0.721   7.643  2.0973  0.7211 -1.6281
  160SAPE  C21017890   3.138   0.507   7.632 -0.3073  0.2198  0.2024
  160SAPE  H10R17891   3.240   0.465   7.616 -0.9324 -2.0559  1.6668
  160SAPE  H10S17892   3.069   0.437   7.580 -0.5484  0.8399 -0.3226
  160SAPE  C21117893   3.095   0.503   7.780 -0.1310 -0.2293 -0.1446
  160SAPE  H11R17894   2.986   0.492   7.794  0.0682 -1.7134  0.4316
  160SAPE  C21217895   3.184   0.503   7.887  0.8203 -0.0054  1.0544
  160SAPE  H12R17896   3.154   0.502   7.993 -0.5184  0.9897  0.7086
  160SAPE  C21317897   3.341   0.516   7.871  0.0714 -0.5973 -0.4319
  160SAPE  H13R17898   3.373   0.536   7.767 -1.2723  1.0584 -0.5803
  160SAPE  H13S17899   3.391   0.430   7.921  3.5511  2.2827  1.5017
  160SAPE  C21417900   3.361   0.638   7.955 -0.3165 -0.4871 -0.0681
  160SAPE  H14R17901   3.290   0.721   7.940  1.4179  1.0536 -0.1051
  160SAPE  C21517902   3.455   0.661   8.050  0.5074 -0.2094 -0.1742
  160SAPE  H15R17903   3.445   0.760   8.098 -1.1519  0.7624 -2.3696
  160SAPE  C21617904   3.560   0.571   8.104 -0.3518 -0.4094 -0.4299
  160SAPE  H16R17905   3.657   0.624   8.117 -1.0152  1.2086 -1.6969
  160SAPE  H16S17906   3.576   0.490   8.031 -0.3168 -0.8441  0.0543
  160SAPE  C21717907   3.528   0.508   8.240 -0.2986  0.1865  0.5683
  160SAPE  H17R17908   3.621   0.449   8.257 -1.2525 -1.9379 -1.1840
  160SAPE  H17S17909   3.442   0.439   8.230 -0.2794  0.1073  0.9144
  160SAPE  C21817910   3.504   0.616   8.349 -0.3378  0.1339  0.4515
  160SAPE  H18R17911   3.407   0.668   8.331  0.8020  2.5504  1.0079
  160SAPE  H18S17912   3.573   0.703   8.355 -2.1537  1.7760 -0.9100
  160SAPE  C21917913   3.493   0.557   8.488 -0.3245  0.9132  0.0980
  160SAPE  H19R17914   3.579   0.493   8.516 -0.8338  0.7303  1.3333
  160SAPE  H19S17915   3.395   0.505   8.482 -0.1841  0.8120 -1.8376
  160SAPE  C22017916   3.479   0.676   8.587 -0.2838  0.5410 -0.4026
  160SAPE  H20R17917   3.393   0.741   8.561 -0.7827 -0.3148 -0.9606
  160SAPE  H20S17918   3.570   0.740   8.584  0.2384 -0.2235 -1.6010
  160SAPE  H20T17919   3.444   0.638   8.685  0.5206 -0.3697 -0.4544
  160SAPE   C3317920   2.680   0.811   6.825  0.0887  0.5776  0.1329
  160SAPE   H3X17921   2.660   0.776   6.721 -2.5474 -0.6711  0.9720
  160SAPE   H3Y17922   2.693   0.921   6.819  0.3458  0.6048  1.1390
  160SAPE   C3417923   2.558   0.768   6.917 -0.7420 -0.9332  0.5184
  160SAPE   H4X17924   2.550   0.658   6.904  0.7592 -0.8937 -1.1817
  160SAPE   H4Y17925   2.467   0.804   6.865  0.6894  1.4950 -0.5013
  160SAPE   C3517926   2.554   0.816   7.062  0.4262 -0.3879 -0.2285
  160SAPE   H5X17927   2.559   0.926   7.073  1.0710 -0.1612 -2.3517
  160SAPE   H5Y17928   2.637   0.762   7.112  0.5748 -1.9543 -2.0274
  160SAPE   C3617929   2.421   0.771   7.132  0.1761 -0.2729 -0.4415
  160SAPE   H6X17930   2.393   0.676   7.083  0.8361 -0.2126 -0.9556
  160SAPE   H6Y17931   2.348   0.853   7.111  0.7140  0.1702 -0.6377
  160SAPE   C3717932   2.443   0.769   7.285  0.7990 -0.0502 -0.9408
  160SAPE   H7X17933   2.484   0.870   7.305  2.6803 -0.7512 -1.0596
  160SAPE   H7Y17934   2.507   0.691   7.330 -0.6451 -0.2136  0.9697
  160SAPE   C3817935   2.309   0.774   7.363 -0.0068 -0.2736  0.2620
  160SAPE   H8X17936   2.234   0.700   7.328  0.3622 -0.6337  0.2285
  160SAPE   H8Y17937   2.258   0.872   7.349  0.2631 -0.2056 -0.2624
  160SAPE   C3917938   2.319   0.754   7.516 -0.5046 -0.7237  0.1918
  160SAPE   H9X17939   2.402   0.814   7.560 -0.0768 -0.2232 -1.2455
  160SAPE   H9Y17940   2.346   0.646   7.524 -2.9729 -1.4460 -0.4113
  160SAPE  C31017941   2.186   0.763   7.592  0.3165  1.0091  0.0852
  160SAPE  H10X17942   2.117   0.685   7.553  2.9633 -0.1482 -2.7433
  160SAPE  H10Y17943   2.135   0.861   7.580 -2.3626 -0.1558  1.2333
  160SAPE  C31117944   2.211   0.743   7.744  0.1065 -0.8486 -0.3288
  160SAPE  H11X17945   2.299   0.803   7.776  0.6748 -0.9506 -1.6134
  160SAPE  H11Y17946   2.256   0.642   7.742  2.6062  0.1833 -1.5016
  160SAPE  C31217947   2.099   0.753   7.845  0.4745 -0.0274 -0.3967
  160SAPE  H12X17948   2.069   0.652   7.882  0.5753  0.0913  0.0117
  160SAPE  H12Y17949   2.002   0.790   7.807  0.3721 -0.7335 -0.8437
  160SAPE  C31317950   2.140   0.827   7.978 -0.4384  0.2966  0.2293
  160SAPE  H13X17951   2.130   0.933   7.947  0.8391  0.7207  1.2076
  160SAPE  H13Y17952   2.247   0.803   7.997 -0.7225 -0.2309  1.3008
  160SAPE  C31417953   2.056   0.796   8.095  0.2889  0.1292 -0.0903
  160SAPE  H14X17954   2.118   0.827   8.182 -0.6274  0.7893  0.3365
  160SAPE  H14Y17955   2.037   0.687   8.095 -1.6183  0.4273 -1.0578
  160SAPE  C31517956   1.923   0.872   8.085  0.5897  0.2481 -0.2986
  160SAPE  H15X17957   1.869   0.825   8.000 -0.1132  1.8096 -0.7488
  160SAPE  H15Y17958   1.932   0.981   8.067  0.7300 -0.0227 -2.1635
  160SAPE  C31617959   1.834   0.848   8.211 -0.3491 -0.4037  0.2944
  160SAPE  H16X17960   1.866   0.915   8.294 -2.1765  1.0198 -0.0801
  160SAPE  H16Y17961   1.845   0.740   8.234 -1.8181 -1.3735 -2.9460
  160SAPE  C31717962   1.686   0.880   8.188  0.5651 -0.2519 -0.4311
  160SAPE  H17X17963   1.635   0.818   8.112  1.7160 -1.2417 -0.4370
  160SAPE  H17Y17964   1.694   0.987   8.158  0.4305  0.3552  1.5604
  160SAPE  C31817965   1.599   0.882   8.321  0.2482  0.2985  0.7574
  160SAPE  H18X17966   1.607   0.779   8.361 -1.1539 -0.7456 -1.4369
  160SAPE  H18Y17967   1.494   0.911   8.295  0.1482 -0.0881  0.7283
  160SAPE  H18Z17968   1.640   0.954   8.395  1.9135  1.0541 -0.8033
  161SOPE     N17969   6.718   2.426  10.870  0.4511 -0.1060 -0.2523
  161SOPE   HN117970   6.704   2.335  10.823 -1.2010 -0.9027  1.6399
  161SOPE   HN217971   6.784   2.415  10.950 -0.9655 -0.7537  0.8783
  161SOPE   HN317972   6.625   2.447  10.912  0.2533 -0.1420 -0.6688
  161SOPE   C1217973   6.768   2.533  10.783 -1.2328  0.2086 -0.4375
  161SOPE  H12A17974   6.799   2.617  10.849 -0.2129 -0.9518  0.5949
  161SOPE  H12B17975   6.685   2.574  10.721 -1.6373 -1.5812 -1.1275
  161SOPE   C1117976   6.891   2.496  10.700  0.0453  0.9332 -0.0612
  161SOPE  H11A17977   6.972   2.472  10.772 -1.4134 -0.0324  1.3331
  161SOPE  H11B17978   6.927   2.587  10.648  0.5159  2.0668  2.1105
  161SOPE     P17979   6.982   2.303  10.564  0.1458 -0.3417 -0.0665
  161SOPE   O1317980   6.979   2.165  10.612  0.1580 -0.2960  0.2057
  161SOPE   O1417981   7.103   2.384  10.596  0.3962  0.4768 -0.0924
  161SOPE   O1217982   6.856   2.384  10.615  0.3407 -0.1819 -0.2801
  161SOPE   O1117983   6.964   2.311  10.407 -0.0607 -0.2089 -0.5178
  161SOPE    C117984   6.838   2.313  10.342  0.5434 -0.2565  0.4668
  161SOPE    HA17985   6.790   2.413  10.339 -0.4371 -0.7329 -0.2022
  161SOPE    HB17986   6.761   2.250  10.393 -2.2699  3.0536  0.7236
  161SOPE    C217987   6.860   2.276  10.191 -0.1057 -0.0420  0.1928
  161SOPE    HS17988   6.922   2.184  10.196  1.6598  0.8639 -2.6481
  161SOPE   O2117989   6.940   2.371  10.125  0.3730 -0.5721 -0.0664
  161SOPE   C2117990   7.041   2.346  10.052 -0.0135  0.7561 -0.1358
  161SOPE   O2217991   7.083   2.235  10.033 -0.0318  0.5437  0.4659
  161SOPE   C2217992   7.101   2.473   9.992 -0.1365 -0.0711 -0.7887
  161SOPE   H2R17993   7.210   2.458   9.978 -0.2457 -3.1666  0.8605
  161SOPE   H2S17994   7.091   2.544  10.078  1.6080 -2.1732  1.2840
  161SOPE    C317995   6.735   2.245  10.105 -0.3681 -0.6418 -0.7650
  161SOPE    HX17996   6.674   2.338  10.095 -0.4801 -0.9040 -3.0388
  161SOPE    HY17997   6.683   2.166  10.163 -3.0417  1.4214 -0.1365
  161SOPE   O3117998   6.771   2.211   9.976  0.0752  0.4060 -0.0462
  161SOPE   C3117999   6.809   2.084   9.951 -0.0906 -0.6551  0.2847
  161SOPE   O3218000   6.788   1.989  10.018 -0.3045 -0.3201 -0.2660
  161SOPE   C3218001   6.862   2.072   9.808 -0.3030  0.0192 -0.0981
  161SOPE   H2X18002   6.864   1.963   9.787 -0.1386 -0.5768  2.6657
  161SOPE   H2Y18003   6.961   2.123   9.810 -0.6645  0.7336  1.7910
  161SOPE   C2318004   7.028   2.525   9.873  0.6666 -0.3853 -0.0746
  161SOPE   H3R18005   7.072   2.627   9.862  0.1831 -0.2130 -0.4538
  161SOPE   H3S18006   6.919   2.524   9.896  0.8435  0.4322  0.9040
  161SOPE   C2418007   7.057   2.450   9.744 -0.3815 -0.1434  0.1254
  161SOPE   H4R18008   7.162   2.421   9.720 -0.0908 -0.7219  1.9507
  161SOPE   H4S18009   7.009   2.350   9.753 -1.0984  0.3404  2.5996
  161SOPE   C2518010   7.010   2.513   9.611 -0.2007  0.6129 -0.7612
  161SOPE   H5R18011   7.071   2.605   9.596 -0.4095  1.0425  0.8151
  161SOPE   H5S18012   7.022   2.448   9.522 -2.5790 -1.1679  0.1077
  161SOPE   C2618013   6.866   2.558   9.609  0.0512 -0.5418  0.6307
  161SOPE   H6R18014   6.800   2.469   9.620  0.4841 -0.9414  0.0755
  161SOPE   H6S18015   6.852   2.619   9.701 -1.5194 -0.5897  0.4395
  161SOPE   C2718016   6.839   2.644   9.485 -0.6389 -0.0976  0.7702
  161SOPE   H7R18017   6.911   2.727   9.476 -1.1582  0.2834  0.0195
  161SOPE   H7S18018   6.855   2.584   9.393  0.2938  0.3227  0.6462
  161SOPE   C2818019   6.693   2.710   9.481 -1.3511 -0.7242 -0.0203
  161SOPE   H8R18020   6.681   2.775   9.571  1.8337 -0.4437  0.2972
  161SOPE   H8S18021   6.694   2.781   9.396 -0.1301  0.1835  0.7266
  161SOPE   C2918022   6.588   2.610   9.473  0.4113  0.8886  0.0107
  161SOPE   H9118023   6.533   2.598   9.568  0.9346  1.4976  0.3933
  161SOPE  C21018024   6.567   2.522   9.367 -0.4995 -0.2998 -0.9208
  161SOPE  H10118025   6.495   2.441   9.384  0.9076 -1.2678  0.7032
  161SOPE  C21118026   6.629   2.512   9.233 -0.6098  0.5841 -0.6592
  161SOPE  H11R18027   6.639   2.404   9.208  0.5765  0.5676 -0.1815
  161SOPE  H11S18028   6.733   2.549   9.234 -0.8402  1.3578 -2.1329
  161SOPE  C21218029   6.563   2.602   9.119 -0.2380 -0.6568  0.1380
  161SOPE  H12R18030   6.543   2.706   9.152 -2.4149 -0.4048 -1.6911
  161SOPE  H12S18031   6.463   2.556   9.100 -0.3403 -0.3447 -0.0888
  161SOPE  C21318032   6.635   2.594   8.985 -0.9346  0.5268 -0.0074
  161SOPE  H13R18033   6.641   2.486   8.959  2.0931  1.3171 -3.3338
  161SOPE  H13S18034   6.739   2.627   9.005 -1.5867  1.8870  1.3544
  161SOPE  C21418035   6.586   2.687   8.879  0.0729 -0.2398 -0.0363
  161SOPE  H14R18036   6.568   2.778   8.939 -0.4793  0.0187 -0.5730
  161SOPE  H14S18037   6.483   2.653   8.850 -0.2108  1.3311 -0.9658
  161SOPE  C21518038   6.663   2.712   8.746  0.1121 -0.1359 -0.3123
  161SOPE  H15R18039   6.654   2.617   8.688 -0.4059 -0.5063  0.3533
  161SOPE  H15S18040   6.770   2.741   8.751  0.8531 -2.8025  1.0523
  161SOPE  C21618041   6.593   2.812   8.648  0.3411  0.0079 -0.2900
  161SOPE  H16R18042   6.595   2.910   8.700 -0.4731 -0.6027  0.9586
  161SOPE  H16S18043   6.483   2.796   8.649  0.1171  1.3522  1.5283
  161SOPE  C21718044   6.668   2.827   8.514 -0.6164  0.8788 -0.5386
  161SOPE  H17R18045   6.736   2.740   8.500 -0.3255  1.0190 -0.0124
  161SOPE  H17S18046   6.721   2.924   8.513  0.0937  0.5103  0.2268
  161SOPE  C21818047   6.568   2.824   8.396 -0.2384 -0.1882 -0.6639
  161SOPE  H18R18048   6.497   2.739   8.402  0.4387 -0.9567 -2.6893
  161SOPE  H18S18049   6.629   2.810   8.305 -0.7780  1.4758 -1.3174
  161SOPE  H18T18050   6.508   2.918   8.394  0.5606  0.5757  3.0246
  161SOPE   C3318051   6.785   2.153   9.709  0.1187  0.5006  0.6992
  161SOPE   H3X18052   6.814   2.259   9.727  3.4992 -0.2122  0.2023
  161SOPE   H3Y18053   6.676   2.139   9.724 -0.3742  1.5568 -1.5202
  161SOPE   C3418054   6.829   2.119   9.562  0.3736  0.0769  0.2418
  161SOPE   H4X18055   6.939   2.130   9.560  0.3473  0.4802 -1.6617
  161SOPE   H4Y18056   6.775   2.189   9.494 -1.6964 -0.3095  1.4083
  161SOPE   C3518057   6.808   1.979   9.507 -0.2067 -0.1459 -0.6107
  161SOPE   H5X18058   6.702   1.947   9.514 -0.5550  1.0445 -0.1874
  161SOPE   H5Y18059   6.866   1.904   9.565  1.2905  0.8375 -0.7829
  161SOPE   C3618060   6.861   1.961   9.368  1.0888  0.5211  0.1254
  161SOPE   H6X18061   6.832   1.857   9.339  0.4553  0.7977 -0.2487
  161SOPE   H6Y18062   6.969   1.985   9.370  0.9868  0.9888  0.1511
  161SOPE   C3718063   6.798   2.046   9.265  0.3555 -0.2482  0.0261
  161SOPE   H7X18064   6.843   2.146   9.284 -2.4261  1.1591 -0.1545
  161SOPE   H7Y18065   6.689   2.050   9.289  0.3763  0.4853  0.0376
  161SOPE   C3818066   6.806   1.977   9.123  0.1237 -0.6590  0.0751
  161SOPE   H8X18067   6.739   2.038   9.059  2.3113  1.6431 -0.1899
  161SOPE   H8Y18068   6.767   1.873   9.126 -0.0731 -0.5863  0.0442
  161SOPE   C3918069   6.953   1.968   9.072  0.3393  0.7489  0.2777
  161SOPE   H9X18070   7.003   1.905   9.149  0.4860  1.2335  0.5835
  161SOPE   H9Y18071   7.001   2.068   9.060  3.6790 -0.5610  1.4810
  161SOPE  C31018072   6.953   1.901   8.934  0.5531  0.0849  0.2760
  161SOPE  H10X18073   6.872   1.953   8.879 -1.2143 -2.9601 -0.2270
  161SOPE  H10Y18074   6.923   1.794   8.940 -0.6554  0.4675  1.5547
  161SOPE  C31118075   7.085   1.909   8.861  0.1380 -0.2579 -0.1579
  161SOPE  H11X18076   7.162   1.855   8.921 -0.5005  1.5211  2.4246
  161SOPE  H11Y18077   7.108   2.015   8.886 -0.6641  0.5905 -2.7240
  161SOPE  C31218078   7.082   1.888   8.714  0.2777 -0.2376  0.2286
  161SOPE  H12X18079   6.991   1.928   8.666 -0.7218 -1.7266  0.8265
  161SOPE  H12Y18080   7.090   1.782   8.682  1.5494  0.5861 -2.5071
  161SOPE  C31318081   7.211   1.964   8.652 -0.0855 -0.4351  0.3327
  161SOPE  H13X18082   7.301   1.934   8.710  0.8828  0.3566 -0.7024
  161SOPE  H13Y18083   7.196   2.073   8.665 -0.6330 -0.4531 -0.0784
  161SOPE  C31418084   7.237   1.952   8.507 -0.0130 -0.0148  0.0931
  161SOPE  H14X18085   7.145   1.974   8.449 -0.2275  1.0459  0.7999
  161SOPE  H14Y18086   7.260   1.843   8.502 -3.6536 -0.8328 -2.4256
  161SOPE  C31518087   7.355   2.033   8.447  0.2034 -0.2489  0.1387
  161SOPE  H15X18088   7.452   2.013   8.498  1.0954 -0.6038 -1.5757
  161SOPE  H15Y18089   7.330   2.141   8.445 -3.0584 -0.8706  1.1950
  161SOPE  C31618090   7.375   1.978   8.304  0.3857  0.3298  0.2729
  161SOPE  H16X18091   7.278   1.978   8.250  1.6939  0.2489 -2.2436
  161SOPE  H16Y18092   7.406   1.872   8.297  1.0305  0.4493  1.2372
  161SOPE  C31718093   7.461   2.058   8.206 -0.4217 -0.2209 -0.6876
  161SOPE  H17X18094   7.441   2.030   8.101  0.9609 -0.1659 -0.9894
  161SOPE  H17Y18095   7.566   2.021   8.217 -0.0979  0.9346  0.3247
  161SOPE  C31818096   7.457   2.217   8.218  0.6949  0.1409  0.4472
  161SOPE  H18X18097   7.487   2.251   8.320 -1.0415 -0.2009  1.1033
  161SOPE  H18Y18098   7.353   2.256   8.220  0.5300 -0.2053  3.5480
  161SOPE  H18Z18099   7.507   2.276   8.139  0.8654  1.1319  1.2716
  162SOPE     N18100   0.506   2.256  10.622 -0.0766 -0.4450 -0.1158
  162SOPE   HN118101   0.464   2.185  10.685  0.1649  0.6103  1.2780
  162SOPE   HN218102   0.567   2.324  10.672  0.6513 -0.9035 -0.3544
  162SOPE   HN318103   0.429   2.307  10.575 -1.7418 -2.7664 -0.0667
  162SOPE   C1218104   0.602   2.199  10.520  0.5236 -0.5243 -0.3235
  162SOPE  H12A18105   0.709   2.210  10.550  0.8569 -1.3121 -1.1796
  162SOPE  H12B18106   0.588   2.253  10.424  0.2439  0.2867  0.1613
  162SOPE   C1118107   0.569   2.049  10.495  0.1507  0.2131  0.2973
  162SOPE  H11A18108   0.638   2.003  10.421 -0.4744  0.7028 -0.6181
  162SOPE  H11B18109   0.467   2.042  10.450  0.5797  1.8091 -1.0112
  162SOPE     P18110   0.686   1.887  10.666  0.1877  0.0346  0.1820
  162SOPE   O1318111   0.630   1.788  10.758  0.2561 -0.3726 -0.1538
  162SOPE   O1418112   0.790   1.974  10.718 -0.3104 -0.5245  0.2570
  162SOPE   O1218113   0.562   1.971  10.611 -0.4201  0.2748  0.2014
  162SOPE   O1118114   0.736   1.812  10.541 -0.1066 -0.1150 -0.1429
  162SOPE    C118115   0.699   1.683  10.504 -0.3797  0.0316  0.1476
  162SOPE    HA18116   0.591   1.668  10.480 -0.5773  1.1100  0.3333
  162SOPE    HB18117   0.716   1.610  10.586 -0.9678  0.8258  1.0002
  162SOPE    C218118   0.789   1.633  10.377  0.8404 -0.3136 -0.0142
  162SOPE    HS18119   0.895   1.645  10.408  0.2695  2.4179  1.1420
  162SOPE   O2118120   0.751   1.713  10.266  0.2596 -0.4631  0.2811
  162SOPE   C2118121   0.855   1.754  10.193  0.3416 -0.1232 -0.5943
  162SOPE   O2218122   0.975   1.721  10.211  0.0346  0.2741  0.0808
  162SOPE   C2218123   0.799   1.852  10.090 -0.9314  1.0852 -0.3160
  162SOPE   H2R18124   0.872   1.935  10.075  1.1954 -1.1365 -3.5332
  162SOPE   H2S18125   0.705   1.899  10.127 -1.7518 -0.8051  0.0811
  162SOPE    C318126   0.785   1.478  10.355  0.6803  0.0014 -0.3647
  162SOPE    HX18127   0.694   1.442  10.408 -0.1311  0.2375 -1.5754
  162SOPE    HY18128   0.876   1.440  10.407 -1.3365 -2.0330  1.9184
  162SOPE   O3118129   0.785   1.440  10.224  0.4732  0.5923 -0.4706
  162SOPE   C3118130   0.682   1.383  10.160  0.0173 -0.3148 -0.1933
  162SOPE   O3218131   0.568   1.363  10.205 -0.0688 -0.0346  0.3315
  162SOPE   C3218132   0.732   1.344  10.018  0.3873  0.5674  0.3319
  162SOPE   H2X18133   0.703   1.238  10.004  0.4192  0.8356 -2.4999
  162SOPE   H2Y18134   0.843   1.338  10.012  0.2639 -1.2144 -2.4500
  162SOPE   C2318135   0.773   1.780   9.958  0.4556 -0.0155 -0.6661
  162SOPE   H3R18136   0.665   1.756   9.960  0.5955 -0.6063  0.8640
  162SOPE   H3S18137   0.832   1.686   9.951 -0.8715 -0.9855  0.7231
  162SOPE   C2418138   0.819   1.870   9.844  0.1833  0.2861  1.0377
  162SOPE   H4R18139   0.927   1.894   9.834 -0.4411  2.3974 -2.2686
  162SOPE   H4S18140   0.793   1.799   9.763 -0.9774 -1.6565  2.9935
  162SOPE   C2518141   0.744   2.000   9.818 -0.2225 -1.0800 -0.5178
  162SOPE   H5R18142   0.636   1.993   9.843 -0.4418 -1.0314 -1.4326
  162SOPE   H5S18143   0.785   2.083   9.879 -1.6541  0.0448 -1.0363
  162SOPE   C2618144   0.772   2.057   9.679  0.5135  0.3396  0.2758
  162SOPE   H6R18145   0.883   2.061   9.672  0.9389 -1.8732  3.5565
  162SOPE   H6S18146   0.720   2.000   9.598  1.7935  3.5217 -3.0742
  162SOPE   C2718147   0.714   2.196   9.661  0.2240 -0.4003  0.1072
  162SOPE   H7R18148   0.604   2.192   9.659  0.1879 -1.5675  1.7415
  162SOPE   H7S18149   0.748   2.266   9.741 -1.5361  0.7850 -0.1298
  162SOPE   C2818150   0.779   2.257   9.534  0.2865  0.4989 -0.2145
  162SOPE   H8R18151   0.755   2.365   9.531 -0.2710  0.3540 -2.4485
  162SOPE   H8S18152   0.890   2.256   9.540  0.2490 -0.1547  0.5426
  162SOPE   C2918153   0.723   2.180   9.417 -0.5540 -0.2052 -0.4806
  162SOPE   H9118154   0.806   2.122   9.374  0.8185 -1.0160  2.9602
  162SOPE  C21018155   0.602   2.190   9.356 -0.3181 -0.0999  0.3931
  162SOPE  H10118156   0.577   2.119   9.276  0.6844 -0.7314  0.6346
  162SOPE  C21118157   0.487   2.275   9.399 -0.1043 -0.3597 -0.3159
  162SOPE  H11R18158   0.490   2.286   9.510 -0.6623  3.1459 -0.5331
  162SOPE  H11S18159   0.392   2.225   9.367 -0.3284  0.0559 -0.3053
  162SOPE  C21218160   0.472   2.415   9.344  0.9010 -0.9935  0.2245
  162SOPE  H12R18161   0.573   2.458   9.354  1.1658 -1.8324  1.4544
  162SOPE  H12S18162   0.398   2.479   9.397  0.3427 -0.3721 -1.2503
  162SOPE  C21318163   0.437   2.418   9.194  0.3736  0.6622  0.0362
  162SOPE  H13R18164   0.511   2.347   9.151 -0.4596 -1.2725  1.6115
  162SOPE  H13S18165   0.467   2.517   9.155  1.0842 -0.0603 -1.3092
  162SOPE  C21418166   0.292   2.398   9.161 -0.2065 -0.1266  0.4805
  162SOPE  H14R18167   0.237   2.480   9.212  0.5611  0.1651  0.8631
  162SOPE  H14S18168   0.256   2.298   9.196  0.6379 -0.7358 -0.3305
  162SOPE  C21518169   0.266   2.405   9.007 -0.5899 -0.1428 -0.6105
  162SOPE  H15R18170   0.332   2.326   8.964  0.3983  1.1824 -1.5970
  162SOPE  H15S18171   0.304   2.502   8.968  0.3462  0.4895  1.7348
  162SOPE  C21618172   0.122   2.391   8.971  0.1499 -0.5292 -0.8663
  162SOPE  H16R18173   0.066   2.470   9.025  3.5206  2.4850 -1.3448
  162SOPE  H16S18174   0.080   2.296   9.011  1.5349 -0.6853  0.3030
  162SOPE  C21718175   0.089   2.381   8.820  0.1763 -0.8367  0.1138
  162SOPE  H17R18176   0.147   2.457   8.763  0.8762  1.5730  3.6360
  162SOPE  H17S18177  -0.020   2.399   8.812  0.5159  1.1616 -0.6294
  162SOPE  C21818178   0.116   2.247   8.750  0.0838  0.0009  0.5175
  162SOPE  H18R18179   0.225   2.237   8.737 -0.0879  0.2210 -1.2605
  162SOPE  H18S18180   0.069   2.262   8.651  0.8765  2.8427  0.4699
  162SOPE  H18T18181   0.068   2.163   8.805 -2.0680 -0.2418 -1.5657
  162SOPE   C3318182   0.660   1.429   9.910 -0.2056  0.0802  0.3438
  162SOPE   H3X18183   0.673   1.537   9.934 -1.3745 -0.2187  2.5466
  162SOPE   H3Y18184   0.552   1.410   9.926 -0.2342  0.5880  0.8039
  162SOPE   C3418185   0.709   1.400   9.771 -0.3928  1.1345 -0.4324
  162SOPE   H4X18186   0.694   1.292   9.750 -0.7651  0.7807  1.4492
  162SOPE   H4Y18187   0.819   1.406   9.756  0.0581 -1.9839  0.8108
  162SOPE   C3518188   0.634   1.485   9.672 -1.0175  0.4550 -0.7638
  162SOPE   H5X18189   0.622   1.590   9.707 -3.1506  0.5146 -1.5263
  162SOPE   H5Y18190   0.534   1.435   9.680 -0.7612 -0.4492 -2.6019
  162SOPE   C3618191   0.683   1.477   9.536 -0.2628 -0.1876  0.2887
  162SOPE   H6X18192   0.620   1.536   9.466 -0.5387  0.7696  1.3093
  162SOPE   H6Y18193   0.695   1.372   9.502 -1.6996 -0.3084  0.0848
  162SOPE   C3718194   0.820   1.545   9.519  0.7778  0.5434 -0.2111
  162SOPE   H7X18195   0.895   1.495   9.585  0.5104 -0.9133 -0.9762
  162SOPE   H7Y18196   0.820   1.642   9.573  1.0492 -0.1989  1.1662
  162SOPE   C3818197   0.862   1.587   9.378  0.5677  1.0487 -0.0168
  162SOPE   H8X18198   0.928   1.677   9.375  0.1749  1.4005  1.1305
  162SOPE   H8Y18199   0.771   1.634   9.335  0.6890  1.0107 -0.3163
  162SOPE   C3918200   0.906   1.471   9.287 -0.0600 -0.4475 -0.7933
  162SOPE   H9X18201   0.845   1.382   9.315 -0.8881  0.5686  0.8041
  162SOPE   H9Y18202   1.006   1.438   9.322 -0.3622  0.7575  1.3600
  162SOPE  C31018203   0.896   1.512   9.139 -0.1706  0.0919 -0.3910
  162SOPE  H10X18204   0.916   1.621   9.133  1.1559 -0.1983 -2.3654
  162SOPE  H10Y18205   0.794   1.508   9.094 -0.2635  1.6385 -0.3720
  162SOPE  C31118206   0.979   1.433   9.052  0.3499  0.5709  0.3978
  162SOPE  H11X18207   0.942   1.328   9.063  1.4388  0.3127  1.8311
  162SOPE  H11Y18208   1.085   1.426   9.084 -0.4310  0.5251  3.2604
  162SOPE  C31218209   0.960   1.470   8.908 -0.2022 -0.2374  0.8540
  162SOPE  H12X18210   0.852   1.490   8.885  0.1894 -0.7773 -1.8731
  162SOPE  H12Y18211   1.000   1.381   8.855 -0.0352  0.5456 -0.3863
  162SOPE  C31318212   1.052   1.586   8.875 -0.5675 -1.3036 -0.2066
  162SOPE  H13X18213   1.145   1.570   8.933  0.3477  0.4978 -1.0582
  162SOPE  H13Y18214   1.006   1.680   8.913  1.5496 -0.0340 -0.6538
  162SOPE  C31418215   1.076   1.604   8.723 -0.4003 -0.3019  0.1380
  162SOPE  H14X18216   1.119   1.507   8.689  1.3421 -0.0557  1.5078
  162SOPE  H14Y18217   1.160   1.674   8.704  1.0058 -1.9693 -0.0249
  162SOPE  C31518218   0.951   1.643   8.641  1.0518 -0.2200 -0.6105
  162SOPE  H15X18219   0.922   1.738   8.689  0.0720 -1.2371  0.9091
  162SOPE  H15Y18220   0.867   1.571   8.654  1.6752 -0.6201  1.4860
  162SOPE  C31618221   0.969   1.659   8.496  0.5577 -0.4316  0.6323
  162SOPE  H16X18222   0.871   1.660   8.445  1.2321 -0.7112 -0.7158
  162SOPE  H16Y18223   1.023   1.573   8.452  0.7807 -0.4430  0.9239
  162SOPE  C31718224   1.042   1.788   8.454 -0.3046 -0.5204  0.2059
  162SOPE  H17X18225   1.069   1.759   8.350 -1.1673 -1.0639  0.1244
  162SOPE  H17Y18226   1.143   1.806   8.497  0.6796  0.7340 -2.4046
  162SOPE  C31818227   0.965   1.910   8.463 -0.1492 -0.0241  0.1486
  162SOPE  H18X18228   1.002   2.004   8.418 -0.1822  0.5809  1.3416
  162SOPE  H18Y18229   0.951   1.939   8.569  1.6598  0.7953  0.2016
  162SOPE  H18Z18230   0.870   1.893   8.408  1.5473 -0.4001 -2.9268
  163SOPE     N18231   1.223   5.332  10.925  0.1751 -0.2735 -0.2045
  163SOPE   HN118232   1.200   5.393  11.005  1.0043  1.3291 -1.1290
  163SOPE   HN218233   1.285   5.260  10.967  2.2687 -1.0053 -4.0929
  163SOPE   HN318234   1.271   5.387  10.850  0.8333  1.1498  1.2124
  163SOPE   C1218235   1.105   5.265  10.870 -0.4144  0.5593  0.0141
  163SOPE  H12A18236   1.046   5.212  10.949 -2.0018  0.9325 -0.8777
  163SOPE  H12B18237   1.141   5.191  10.796 -0.0633 -1.4290  2.0458
  163SOPE   C1118238   1.001   5.356  10.807 -0.0189  0.3282  0.2691
  163SOPE  H11A18239   0.919   5.284  10.789  0.5544 -0.6602  1.4706
  163SOPE  H11B18240   1.039   5.398  10.711  4.5198  0.0108  1.6783
  163SOPE     P18241   0.897   5.596  10.865  0.1798 -0.1763 -0.2528
  163SOPE   O1318242   1.001   5.705  10.875  0.3915 -0.4017 -0.0664
  163SOPE   O1418243   0.773   5.612  10.948 -0.2311 -0.7693  0.9743
  163SOPE   O1218244   0.955   5.451  10.902  0.3818  0.3342  0.2570
  163SOPE   O1118245   0.852   5.575  10.713 -0.6235  0.3936 -0.0560
  163SOPE    C118246   0.754   5.485  10.672  0.4839  0.0906  0.4964
  163SOPE    HA18247   0.700   5.439  10.758 -0.1449  1.4708  0.8679
  163SOPE    HB18248   0.806   5.405  10.616 -1.8166 -0.2233 -1.3304
  163SOPE    C218249   0.656   5.550  10.562 -0.4511 -0.1998  1.0698
  163SOPE    HS18250   0.566   5.486  10.557 -0.8135  0.3085  0.9583
  163SOPE   O2118251   0.723   5.568  10.437  0.6747 -0.2511  0.5698
  163SOPE   C2118252   0.730   5.453  10.374  0.2967 -0.0653  0.6810
  163SOPE   O2218253   0.697   5.343  10.412 -0.4939  0.4175  0.4855
  163SOPE   C2218254   0.795   5.477  10.238 -0.4963  0.6703 -0.8024
  163SOPE   H2R18255   0.894   5.521  10.263  0.1249 -0.9359 -0.3024
  163SOPE   H2S18256   0.737   5.560  10.193 -1.8512  0.4969  0.5231
  163SOPE    C318257   0.602   5.689  10.600  0.0535 -0.5083 -0.0039
  163SOPE    HX18258   0.689   5.754  10.621 -0.9309  0.4139  1.4014
  163SOPE    HY18259   0.544   5.671  10.693  0.5987  0.8411  0.6159
  163SOPE   O3118260   0.520   5.743  10.492 -0.1087 -0.1611  0.0622
  163SOPE   C3118261   0.509   5.881  10.489 -0.3181  0.0908  0.3679
  163SOPE   O3218262   0.555   5.955  10.574 -0.0467 -0.6075  0.2973
  163SOPE   C3218263   0.433   5.919  10.360  0.3322  0.4974  0.3593
  163SOPE   H2X18264   0.362   5.836  10.341 -0.7614  1.9511 -2.3729
  163SOPE   H2Y18265   0.505   5.929  10.276  2.3382  0.5931  1.9950
  163SOPE   C2318266   0.806   5.362  10.133 -0.3565 -0.7631  0.0069
  163SOPE   H3R18267   0.704   5.318  10.140 -1.1812  1.2373  1.4539
  163SOPE   H3S18268   0.878   5.285  10.167  0.2589 -0.4249 -0.5019
  163SOPE   C2418269   0.856   5.403   9.996 -0.7368 -0.9270  0.8126
  163SOPE   H4R18270   0.788   5.482   9.956  1.6532  1.3650  1.0071
  163SOPE   H4S18271   0.961   5.439  10.001 -1.4089  1.1157  1.3419
  163SOPE   C2518272   0.852   5.281   9.908 -0.7109 -0.0115  0.0775
  163SOPE   H5R18273   0.949   5.228   9.921 -0.0018  0.3364 -3.0650
  163SOPE   H5S18274   0.769   5.214   9.940  0.2812 -1.6578 -0.6286
  163SOPE   C2618275   0.838   5.327   9.760 -0.2070  0.2255 -0.7529
  163SOPE   H6R18276   0.817   5.237   9.698 -1.7342 -0.0610  0.1288
  163SOPE   H6S18277   0.746   5.389   9.747 -0.4758  0.5855  2.1682
  163SOPE   C2718278   0.958   5.406   9.707 -0.1767  0.0151  0.5883
  163SOPE   H7R18279   0.971   5.494   9.774  0.2971 -0.3675  1.0066
  163SOPE   H7S18280   1.050   5.344   9.705  0.7147  1.2663 -1.4204
  163SOPE   C2818281   0.943   5.451   9.565  0.1144  0.2902  0.2081
  163SOPE   H8R18282   0.905   5.365   9.506  0.5747 -0.1659  0.5564
  163SOPE   H8S18283   0.865   5.529   9.562  1.9384  2.2027 -0.4690
  163SOPE   C2918284   1.070   5.508   9.506 -0.1001 -0.1133  0.1683
  163SOPE   H9118285   1.084   5.617   9.510  1.4900 -0.2036 -1.4432
  163SOPE  C21018286   1.174   5.444   9.447 -0.8763  0.2660  0.6294
  163SOPE  H10118287   1.258   5.502   9.404  0.9613 -1.7803  1.3125
  163SOPE  C21118288   1.185   5.293   9.425 -0.7390  0.0226  0.2336
  163SOPE  H11R18289   1.141   5.270   9.325 -1.2837  0.9343  0.2548
  163SOPE  H11S18290   1.120   5.237   9.496 -3.5689  0.6167 -1.7466
  163SOPE  C21218291   1.325   5.212   9.409  0.8504  0.6901 -0.1580
  163SOPE  H12R18292   1.378   5.265   9.328  0.3176  2.5107  0.6214
  163SOPE  H12S18293   1.295   5.113   9.368 -0.8800  0.6770  0.9866
  163SOPE  C21318294   1.413   5.195   9.530 -0.2749  0.7637 -0.4136
  163SOPE  H13R18295   1.487   5.116   9.505  0.6378  1.2134  0.7693
  163SOPE  H13S18296   1.366   5.159   9.625  1.6223  1.4332  0.8333
  163SOPE  C21418297   1.486   5.316   9.573 -0.2213 -0.4075  0.0490
  163SOPE  H14R18298   1.420   5.404   9.563  2.5259  1.6057 -2.3269
  163SOPE  H14S18299   1.575   5.338   9.510  0.6238 -2.8055  0.2982
  163SOPE  C21518300   1.547   5.311   9.715 -0.1605 -0.1828 -0.0063
  163SOPE  H15R18301   1.630   5.384   9.719  0.5164 -0.9619  1.0974
  163SOPE  H15S18302   1.586   5.211   9.746  0.5753  0.5263  1.4501
  163SOPE  C21618303   1.455   5.360   9.822  0.5809  0.2297 -0.2023
  163SOPE  H16R18304   1.427   5.465   9.800  1.2723  0.1457 -1.5391
  163SOPE  H16S18305   1.512   5.361   9.917  0.4953  2.3837 -0.1352
  163SOPE  C21718306   1.330   5.274   9.838 -0.6946  1.7759  0.1334
  163SOPE  H17R18307   1.355   5.166   9.851 -1.4301  1.5447 -0.3691
  163SOPE  H17S18308   1.255   5.285   9.758  1.1403  0.7671 -1.8422
  163SOPE  C21818309   1.251   5.308   9.964  0.7396 -0.1796 -0.0272
  163SOPE  H18R18310   1.152   5.258   9.962 -0.8770  2.7824 -0.6682
  163SOPE  H18S18311   1.234   5.418   9.956  2.9666  0.1530 -1.0524
  163SOPE  H18T18312   1.304   5.282  10.058 -2.1518 -3.3429  0.9249
  163SOPE   C3318313   0.341   6.038  10.390  0.9236  0.8867  0.4412
  163SOPE   H3X18314   0.400   6.128  10.419  1.1464  0.2455  2.0632
  163SOPE   H3Y18315   0.288   6.014  10.484  0.2671 -0.3121 -0.2132
  163SOPE   C3418316   0.222   6.076  10.290 -0.2838 -0.6421  0.0404
  163SOPE   H4X18317   0.150   6.146  10.336  3.2716  1.9158  2.2804
  163SOPE   H4Y18318   0.170   5.980  10.271  3.1230 -2.3250 -1.9120
  163SOPE   C3518319   0.271   6.135  10.164  0.0150  0.4164 -0.5556
  163SOPE   H5X18320   0.304   6.054  10.096  0.0497  1.1563 -1.4362
  163SOPE   H5Y18321   0.357   6.203  10.188 -0.4469  1.0308 -0.6195
  163SOPE   C3618322   0.157   6.202  10.090  0.3951  0.8067 -0.5245
  163SOPE   H6X18323   0.122   6.290  10.148  0.4732  0.3896  0.1744
  163SOPE   H6Y18324   0.070   6.133  10.082  1.2540 -0.3224 -0.4798
  163SOPE   C3718325   0.190   6.242   9.947  0.5462 -0.1645  0.7103
  163SOPE   H7X18326   0.102   6.287   9.897 -0.2805 -0.7079  1.6435
  163SOPE   H7Y18327   0.214   6.149   9.891 -0.2759 -0.5128  0.9223
  163SOPE   C3818328   0.297   6.346   9.928 -0.1008 -0.6369 -0.7914
  163SOPE   H8X18329   0.401   6.306   9.926  0.7648  1.1717  1.8739
  163SOPE   H8Y18330   0.284   6.421  10.009 -2.2623 -2.1439  0.3445
  163SOPE   C3918331   0.272   6.417   9.794 -0.0631  0.3315  0.5346
  163SOPE   H9X18332   0.176   6.474   9.802 -1.7753 -1.8905 -2.1446
  163SOPE   H9Y18333   0.252   6.343   9.714 -2.7598  2.3963 -0.8870
  163SOPE  C31018334   0.392   6.505   9.756 -1.0051  0.0433  0.0628
  163SOPE  H10X18335   0.472   6.432   9.733  0.0107  0.9626  0.5878
  163SOPE  H10Y18336   0.421   6.552   9.852  0.5968 -2.8331  1.1086
  163SOPE  C31118337   0.365   6.587   9.632  0.0342 -0.0005  0.1764
  163SOPE  H11X18338   0.454   6.644   9.598 -1.5478  1.7278 -1.2696
  163SOPE  H11Y18339   0.288   6.662   9.662  0.6113 -0.2210  2.4100
  163SOPE  C31218340   0.310   6.504   9.511  0.0459  0.8259 -0.3971
  163SOPE  H12X18341   0.205   6.496   9.546  0.6776  2.9467  2.3362
  163SOPE  H12Y18342   0.364   6.408   9.505 -0.0387  0.7431  0.1032
  163SOPE  C31318343   0.320   6.572   9.377  0.0772 -0.7250 -0.5335
  163SOPE  H13X18344   0.426   6.580   9.343 -0.3770  0.7514 -1.7662
  163SOPE  H13Y18345   0.299   6.680   9.397 -0.0649 -0.8535  0.0147
  163SOPE  C31418346   0.229   6.515   9.264  0.4213 -0.6602  0.4671
  163SOPE  H14X18347   0.126   6.531   9.302  0.3102 -1.2968  0.4454
  163SOPE  H14Y18348   0.235   6.405   9.257 -0.8546 -0.7762  0.8284
  163SOPE  C31518349   0.259   6.580   9.134  0.1802 -0.0036 -0.0868
  163SOPE  H15X18350   0.364   6.562   9.104 -0.2733 -1.4550 -0.9007
  163SOPE  H15Y18351   0.241   6.689   9.135 -1.9653 -0.3201 -0.2587
  163SOPE  C31618352   0.185   6.522   9.015  0.6827 -0.4696 -0.1589
  163SOPE  H16X18353   0.079   6.556   9.023  0.8719 -0.2478  1.8351
  163SOPE  H16Y18354   0.168   6.412   9.011 -1.0573 -0.2073 -1.1877
  163SOPE  C31718355   0.245   6.564   8.881 -0.5593  0.1151  0.3443
  163SOPE  H17X18356   0.349   6.526   8.865 -2.2099 -4.7384 -0.5373
  163SOPE  H17Y18357   0.252   6.675   8.879  1.3682  0.0436 -1.4847
  163SOPE  C31818358   0.158   6.522   8.761 -0.5557  0.1487  0.1115
  163SOPE  H18X18359   0.052   6.556   8.771 -0.9192 -0.8044 -0.4042
  163SOPE  H18Y18360   0.158   6.411   8.760  1.9704  0.0693  1.0266
  163SOPE  H18Z18361   0.197   6.560   8.664  1.1110  0.9596  1.0599
  164SOPE     N18362   3.835   3.543  10.718 -0.0919 -0.0136  0.7603
  164SOPE   HN118363   3.814   3.587  10.810  1.0729  2.5268 -0.0865
  164SOPE   HN218364   3.894   3.607  10.662 -0.1378  0.6378  1.4404
  164SOPE   HN318365   3.746   3.517  10.671  0.4196 -2.1417  0.8766
  164SOPE   C1218366   3.903   3.409  10.741  0.6849  0.2055 -0.6667
  164SOPE  H12A18367   3.837   3.356  10.813  1.1082  1.4992  0.7437
  164SOPE  H12B18368   3.999   3.429  10.793 -0.6925  2.3894  1.2809
  164SOPE   C1118369   3.933   3.344  10.604  0.3448  0.0951  0.8391
  164SOPE  H11A18370   3.995   3.255  10.629 -0.3198 -1.1535 -1.6770
  164SOPE  H11B18371   3.984   3.413  10.534 -0.8992  0.3502  0.1519
  164SOPE     P18372   3.731   3.185  10.580  0.0064  0.2098  0.0614
  164SOPE   O1318373   3.612   3.174  10.493 -0.1588 -0.5640  0.5089
  164SOPE   O1418374   3.711   3.187  10.727 -0.5113 -0.0478  0.1899
  164SOPE   O1218375   3.806   3.311  10.537 -0.3910 -0.5333 -0.5756
  164SOPE   O1118376   3.836   3.076  10.541 -0.6760 -0.7257 -0.5122
  164SOPE    C118377   3.882   3.072  10.398  0.0565  0.2950 -1.0399
  164SOPE    HA18378   3.887   3.169  10.345 -2.1668  1.0877  0.0922
  164SOPE    HB18379   3.807   3.014  10.340  0.3068  0.2512 -1.3222
  164SOPE    C218380   4.019   2.990  10.382 -0.3785 -0.0153 -0.0702
  164SOPE    HS18381   4.088   3.054  10.441 -2.4587  1.8233  0.5232
  164SOPE   O2118382   4.062   2.990  10.240 -0.1013 -0.3122 -0.3925
  164SOPE   C2118383   4.194   2.997  10.226  0.5418  0.2345  0.2832
  164SOPE   O2218384   4.267   2.991  10.320 -0.1490  0.4548 -0.2008
  164SOPE   C2218385   4.226   3.009  10.076  0.2247 -0.0438  0.5911
  164SOPE   H2R18386   4.186   2.917  10.027 -0.5183  1.0946 -1.0546
  164SOPE   H2S18387   4.336   3.016  10.068  0.4280 -0.3403  2.6091
  164SOPE    C318388   4.013   2.836  10.434 -0.0600 -0.2039 -0.2228
  164SOPE    HX18389   3.983   2.842  10.541 -1.3549 -0.2415 -0.5617
  164SOPE    HY18390   4.117   2.796  10.430  0.7393  1.8272 -1.0398
  164SOPE   O3118391   3.907   2.764  10.354  0.0575 -0.8548  0.1152
  164SOPE   C3118392   3.961   2.699  10.254  0.8813 -0.5552  0.7085
  164SOPE   O3218393   4.079   2.683  10.238  0.1305  0.0108 -0.1764
  164SOPE   C3218394   3.854   2.624  10.167 -0.4365  0.7598 -0.4792
  164SOPE   H2X18395   3.759   2.681  10.164 -0.3627  1.0030  1.0215
  164SOPE   H2Y18396   3.831   2.535  10.229 -0.0922  0.4556 -0.7772
  164SOPE   C2318397   4.160   3.141  10.010 -0.4824 -0.2151 -0.1052
  164SOPE   H3R18398   4.195   3.236  10.056 -2.0427  0.5702 -0.4510
  164SOPE   H3S18399   4.050   3.132  10.018 -0.7736  0.0218 -2.7423
  164SOPE   C2418400   4.187   3.155   9.860 -0.2103 -0.0221 -0.6504
  164SOPE   H4R18401   4.276   3.220   9.842  0.0145 -0.2987 -0.5440
  164SOPE   H4S18402   4.201   3.051   9.825  1.0622  0.9000 -3.1379
  164SOPE   C2518403   4.073   3.229   9.786  0.3394  0.1506 -0.3139
  164SOPE   H5R18404   3.981   3.167   9.792 -0.7126  1.6880  0.0584
  164SOPE   H5S18405   4.047   3.324   9.836  0.7096 -0.2549  0.6646
  164SOPE   C2618406   4.090   3.258   9.639 -0.5906 -0.4379 -0.7144
  164SOPE   H6R18407   4.003   3.319   9.607 -1.3227  0.2302  2.2240
  164SOPE   H6S18408   4.182   3.319   9.628 -1.4262  0.5980 -2.3063
  164SOPE   C2718409   4.095   3.134   9.546  0.5548 -0.1685 -0.0748
  164SOPE   H7R18410   4.164   3.055   9.584  0.1161  0.1695  1.4555
  164SOPE   H7S18411   3.990   3.099   9.552 -0.2518  2.0845 -0.2828
  164SOPE   C2818412   4.140   3.162   9.405  0.8183  0.2395  0.4189
  164SOPE   H8R18413   4.051   3.207   9.355 -0.5041 -0.3393  2.1747
  164SOPE   H8S18414   4.208   3.248   9.424  1.5311 -0.3044  0.3712
  164SOPE   C2918415   4.198   3.049   9.328 -0.1983 -0.3405 -0.6649
  164SOPE   H9118416   4.142   2.955   9.335 -0.1587 -0.3090  0.3116
  164SOPE  C21018417   4.313   3.043   9.265 -0.1711  0.0328  0.4529
  164SOPE  H10118418   4.342   2.952   9.211 -0.7716  0.3810 -0.4728
  164SOPE  C21118419   4.409   3.158   9.251  0.0636 -0.1540 -0.2649
  164SOPE  H11R18420   4.475   3.182   9.337 -0.4624  2.4332 -0.5170
  164SOPE  H11S18421   4.348   3.250   9.242 -1.1786 -1.0862 -2.1838
  164SOPE  C21218422   4.499   3.162   9.123  0.4563 -0.5105 -0.5453
  164SOPE  H12R18423   4.543   3.060   9.122 -0.4598 -0.9217 -0.5032
  164SOPE  H12S18424   4.573   3.242   9.143 -1.4663  1.1679  0.1027
  164SOPE  C21318425   4.438   3.177   8.985 -0.4528 -0.8518 -0.3477
  164SOPE  H13R18426   4.514   3.157   8.908  1.5410  0.9677  1.0223
  164SOPE  H13S18427   4.424   3.287   8.978  2.1535 -0.2401  2.0694
  164SOPE  C21418428   4.313   3.103   8.950 -0.5848  0.5002 -0.2786
  164SOPE  H14R18429   4.267   3.162   8.868 -0.3288  0.4269 -0.4760
  164SOPE  H14S18430   4.243   3.091   9.036  0.9849 -2.3253  0.7590
  164SOPE  C21518431   4.346   2.959   8.909  0.0851 -0.1422 -0.2777
  164SOPE  H15R18432   4.382   2.902   8.997 -0.9616  0.9900  0.9165
  164SOPE  H15S18433   4.423   2.952   8.829  1.1305 -0.9963  0.7795
  164SOPE  C21618434   4.227   2.886   8.840  0.0660 -0.1996  0.1628
  164SOPE  H16R18435   4.200   2.936   8.744  1.3022 -0.0671 -0.1398
  164SOPE  H16S18436   4.139   2.864   8.903 -0.3437 -1.7572 -0.8619
  164SOPE  C21718437   4.277   2.751   8.780 -0.1492 -0.1328  0.5457
  164SOPE  H17R18438   4.331   2.693   8.858  0.1314  0.7418  1.0158
  164SOPE  H17S18439   4.340   2.788   8.697 -1.5969 -1.2404 -1.1148
  164SOPE  C21818440   4.173   2.664   8.723  0.7283  0.0565  0.3238
  164SOPE  H18R18441   4.108   2.602   8.789  0.7532 -0.6463 -0.2877
  164SOPE  H18S18442   4.225   2.588   8.661  0.3617 -0.7030  0.9248
  164SOPE  H18T18443   4.111   2.708   8.641 -0.4844  1.0636  1.7335
  164SOPE   C3318444   3.920   2.576  10.037  0.4716 -0.5496 -0.4153
  164SOPE   H3X18445   3.843   2.515   9.985 -0.0113  0.2027 -0.6062
  164SOPE   H3Y18446   4.003   2.506  10.060  0.1086 -1.0199 -0.5204
  164SOPE   C3418447   3.946   2.699   9.947  0.3454 -0.6317  0.0749
  164SOPE   H4X18448   4.025   2.761   9.994  0.6047 -0.7079 -0.2594
  164SOPE   H4Y18449   3.857   2.764   9.938  1.8706  1.2605 -3.1202
  164SOPE   C3518450   4.007   2.662   9.814  0.0288 -0.8998  0.7297
  164SOPE   H5X18451   3.924   2.611   9.760 -0.7848 -0.7161  1.7812
  164SOPE   H5Y18452   4.090   2.593   9.839 -0.0804 -1.3845 -0.1777
  164SOPE   C3618453   4.085   2.767   9.739  0.2124 -0.3736 -0.5382
  164SOPE   H6X18454   4.186   2.784   9.783 -0.4555  1.0527  0.5365
  164SOPE   H6Y18455   4.021   2.858   9.742  2.1675  1.0691 -0.1975
  164SOPE   C3718456   4.108   2.714   9.600  0.3295  1.0627 -0.5648
  164SOPE   H7X18457   4.094   2.792   9.522  2.2549  0.1668 -1.8782
  164SOPE   H7Y18458   4.028   2.640   9.580  0.7819  0.4800 -0.2539
  164SOPE   C3818459   4.247   2.648   9.571  0.7223 -0.0275  0.2102
  164SOPE   H8X18460   4.252   2.539   9.595  0.1558 -0.4242 -1.3805
  164SOPE   H8Y18461   4.320   2.689   9.644  0.6287  1.2157 -0.3706
  164SOPE   C3918462   4.295   2.672   9.433  0.3249 -0.4764  0.2383
  164SOPE   H9X18463   4.396   2.628   9.419  1.1049  1.2734  0.0326
  164SOPE   H9Y18464   4.306   2.780   9.409  2.5760 -0.7617 -0.2544
  164SOPE  C31018465   4.189   2.619   9.331 -1.0067  0.0695 -0.1582
  164SOPE  H10X18466   4.101   2.685   9.314 -1.8768 -1.6999 -3.3130
  164SOPE  H10Y18467   4.150   2.522   9.370 -0.9265 -0.0108 -0.2779
  164SOPE  C31118468   4.256   2.585   9.198 -0.3434 -0.1634 -0.2801
  164SOPE  H11X18469   4.324   2.670   9.175 -1.5274  1.5860  2.2551
  164SOPE  H11Y18470   4.178   2.601   9.120  1.0825 -0.7654 -1.9053
  164SOPE  C31218471   4.321   2.445   9.185  0.4464 -0.5052  0.4435
  164SOPE  H12X18472   4.261   2.368   9.238 -1.7627 -0.1489 -1.3885
  164SOPE  H12Y18473   4.419   2.447   9.237 -0.3375 -2.1169  2.1049
  164SOPE  C31318474   4.326   2.397   9.039  0.1983  0.3525  0.0615
  164SOPE  H13X18475   4.395   2.310   9.042 -2.0987 -1.5905 -0.5775
  164SOPE  H13Y18476   4.365   2.474   8.969  1.5941 -1.7479 -1.5938
  164SOPE  C31418477   4.196   2.337   8.972  0.4513  0.8075  0.5405
  164SOPE  H14X18478   4.204   2.359   8.863  0.7960  1.0264  0.6082
  164SOPE  H14Y18479   4.111   2.394   9.014  1.0275  0.4608  2.2208
  164SOPE  C31518480   4.168   2.188   8.982 -0.7187 -0.0075  0.3128
  164SOPE  H15X18481   4.190   2.159   9.087  2.7986  1.5095  0.1557
  164SOPE  H15Y18482   4.247   2.143   8.918  0.6337  1.2862  1.0032
  164SOPE  C31618483   4.029   2.149   8.929  0.9008 -0.5125 -0.4955
  164SOPE  H16X18484   3.946   2.189   8.992  0.9638  2.6727 -2.2527
  164SOPE  H16Y18485   4.012   2.039   8.940  0.1427 -0.2472  1.3336
  164SOPE  C31718486   4.003   2.188   8.784 -0.0575 -0.2737  0.5459
  164SOPE  H17X18487   4.089   2.160   8.720  0.3150  0.5301  0.6854
  164SOPE  H17Y18488   4.003   2.298   8.772 -0.6881 -0.1301  1.7227
  164SOPE  C31818489   3.866   2.132   8.739 -0.3497  0.2576 -0.2231
  164SOPE  H18X18490   3.867   2.023   8.759  0.1972 -0.2300 -2.6403
  164SOPE  H18Y18491   3.847   2.123   8.630 -0.6013 -3.5008 -0.0098
  164SOPE  H18Z18492   3.788   2.175   8.805  0.9925 -0.7138  2.0910
  165SOPE     N18493   3.518   4.641  10.794  0.0554 -0.2440  0.5577
  165SOPE   HN118494   3.609   4.592  10.779  1.1204  1.7374  0.1307
  165SOPE   HN218495   3.524   4.693  10.884  0.1115 -0.8065  0.8879
  165SOPE   HN318496   3.436   4.582  10.816 -2.8099  3.2166 -0.0458
  165SOPE   C1218497   3.487   4.733  10.684 -0.0364 -0.3151 -0.1124
  165SOPE  H12A18498   3.525   4.674  10.598  2.8598 -0.4268  1.1083
  165SOPE  H12B18499   3.550   4.825  10.679 -1.4568  0.7505  1.0510
  165SOPE   C1118500   3.332   4.758  10.670 -0.2200 -0.5316  0.4812
  165SOPE  H11A18501   3.285   4.661  10.642  0.6319 -0.7881 -0.1410
  165SOPE  H11B18502   3.321   4.829  10.585 -1.2261  1.2372  2.0362
  165SOPE     P18503   3.148   4.889  10.811 -0.5408  0.4066  0.3359
  165SOPE   O1318504   3.152   4.971  10.932  0.1534 -0.1480 -0.0979
  165SOPE   O1418505   3.030   4.806  10.790  0.4770 -0.4197  0.3591
  165SOPE   O1218506   3.277   4.801  10.801 -0.5479 -0.1084  0.2412
  165SOPE   O1118507   3.166   4.985  10.695 -0.3380  0.3827  0.0429
  165SOPE    C118508   3.062   5.060  10.638 -0.1342 -0.0796 -1.0391
  165SOPE    HA18509   3.118   5.138  10.582  2.6035 -1.7438 -0.7956
  165SOPE    HB18510   2.997   5.117  10.708 -0.3188  1.2557 -2.2587
  165SOPE    C218511   2.966   4.978  10.553  0.1145  0.1077  0.5812
  165SOPE    HS18512   2.905   4.910  10.616 -0.4569 -0.1250 -0.1988
  165SOPE   O2118513   3.042   4.898  10.455  0.7198  0.6250 -0.0801
  165SOPE   C2118514   2.974   4.798  10.397  0.0870 -0.1981  0.3262
  165SOPE   O2218515   2.860   4.760  10.426  0.1890  0.3369 -0.2125
  165SOPE   C2218516   3.060   4.742  10.279  0.5146  0.3975 -0.0309
  165SOPE   H2R18517   3.161   4.727  10.323  0.4041 -2.4459 -0.5891
  165SOPE   H2S18518   3.078   4.828  10.212  0.4469  0.7393  0.3834
  165SOPE    C318519   2.867   5.074  10.490 -0.2265  0.8704  0.1067
  165SOPE    HX18520   2.802   5.119  10.567  0.3703  0.3895  0.9112
  165SOPE    HY18521   2.798   5.029  10.415 -2.2569 -0.3201  2.5279
  165SOPE   O3118522   2.941   5.173  10.429 -0.4457 -0.4139  0.0475
  165SOPE   C3118523   2.977   5.162  10.302 -0.2591 -0.0651 -0.3862
  165SOPE   O3218524   2.950   5.067  10.230  0.7617  0.5053 -0.0860
  165SOPE   C3218525   3.049   5.291  10.255 -0.2247  0.0310 -0.2528
  165SOPE   H2X18526   3.154   5.265  10.279  0.5668  2.1312 -1.2060
  165SOPE   H2Y18527   3.020   5.367  10.332 -1.2983 -2.5546  2.0663
  165SOPE   C2318528   2.997   4.609  10.230 -0.3306  0.5036  0.1279
  165SOPE   H3R18529   2.899   4.624  10.180 -1.2482 -0.2787  1.6030
  165SOPE   H3S18530   2.985   4.554  10.326 -1.8023  1.6888  0.6630
  165SOPE   C2418531   3.086   4.502  10.157  0.2610  0.7542 -0.3813
  165SOPE   H4R18532   3.173   4.486  10.224 -3.0041 -3.0708  3.5605
  165SOPE   H4S18533   3.042   4.400  10.154  1.5463  0.1762 -0.1037
  165SOPE   C2518534   3.125   4.549  10.019  0.8079 -0.1785 -0.2363
  165SOPE   H5R18535   3.031   4.579   9.968 -0.5984 -3.0067  0.4712
  165SOPE   H5S18536   3.196   4.635  10.019  0.0585  0.4542 -0.2647
  165SOPE   C2618537   3.187   4.441   9.928 -0.4315  0.2416 -0.1658
  165SOPE   H6R18538   3.281   4.408   9.977 -0.3970 -0.4703 -0.7046
  165SOPE   H6S18539   3.121   4.351   9.925 -0.3140  0.1278  0.5556
  165SOPE   C2718540   3.207   4.475   9.784  0.7558 -0.1286 -0.1472
  165SOPE   H7R18541   3.114   4.514   9.739  0.4718 -2.9423 -2.2838
  165SOPE   H7S18542   3.288   4.551   9.778 -1.1161  1.9952  0.4032
  165SOPE   C2818543   3.243   4.358   9.690  0.6652  0.5740 -0.5444
  165SOPE   H8R18544   3.268   4.417   9.599  1.1176  0.7995 -0.2760
  165SOPE   H8S18545   3.340   4.315   9.721  1.6046 -0.2292 -4.1159
  165SOPE   C2918546   3.141   4.255   9.651 -0.1058  0.5117  0.2702
  165SOPE   H9118547   3.132   4.176   9.727 -0.0958  0.9042  0.6841
  165SOPE  C21018548   3.069   4.249   9.536 -0.0476  0.0656 -0.2452
  165SOPE  H10118549   3.011   4.158   9.512  2.5145 -1.8009  0.2511
  165SOPE  C21118550   3.078   4.350   9.421 -0.0608  0.6400 -0.1190
  165SOPE  H11R18551   3.118   4.448   9.456  0.5369 -0.0284  1.1508
  165SOPE  H11S18552   2.979   4.367   9.373 -0.0763 -0.5495 -0.5324
  165SOPE  C21218553   3.178   4.292   9.320 -0.5402  0.3783  0.0661
  165SOPE  H12R18554   3.133   4.205   9.267 -1.7405  1.8437 -1.4434
  165SOPE  H12S18555   3.270   4.256   9.371 -2.3649 -0.3505  3.1072
  165SOPE  C21318556   3.218   4.408   9.217 -0.1789  0.9065 -0.5631
  165SOPE  H13R18557   3.301   4.462   9.266 -0.6631 -0.9174  2.5317
  165SOPE  H13S18558   3.129   4.472   9.199 -1.1180  0.4654  2.1131
  165SOPE  C21418559   3.268   4.358   9.083 -0.3782 -0.6217  0.0557
  165SOPE  H14R18560   3.191   4.292   9.038  0.7798 -1.1723 -1.1999
  165SOPE  H14S18561   3.354   4.288   9.095 -0.0132  0.0568  1.7074
  165SOPE  C21518562   3.308   4.475   8.997  0.3710  0.0665  0.2287
  165SOPE  H15R18563   3.378   4.539   9.056  0.5936 -0.0018  0.0425
  165SOPE  H15S18564   3.224   4.541   8.969  0.3438  0.2343  0.6980
  165SOPE  C21618565   3.386   4.438   8.870 -0.5441  0.0816 -0.2925
  165SOPE  H16R18566   3.336   4.354   8.817  1.3315 -0.2078 -1.7119
  165SOPE  H16S18567   3.482   4.396   8.907 -1.1892  0.3321  1.7686
  165SOPE  C21718568   3.419   4.559   8.780  0.1927 -0.9435  0.4491
  165SOPE  H17R18569   3.506   4.542   8.714  0.7703  2.9903 -0.0342
  165SOPE  H17S18570   3.452   4.639   8.850  1.6490 -1.0174 -0.1138
  165SOPE  C21818571   3.294   4.602   8.698 -0.8111  0.1484 -0.1961
  165SOPE  H18R18572   3.322   4.690   8.636 -1.4700 -0.6785 -1.7080
  165SOPE  H18S18573   3.213   4.635   8.767 -0.3456 -1.9768  1.4758
  165SOPE  H18T18574   3.254   4.526   8.628 -2.1106  0.8183 -0.2160
  165SOPE   C3318575   3.044   5.328  10.114  0.9816 -0.4882 -0.4323
  165SOPE   H3X18576   3.048   5.236  10.051  1.4339 -0.2951 -0.6898
  165SOPE   H3Y18577   3.137   5.383  10.091 -0.3486  2.0360 -0.1350
  165SOPE   C3418578   2.931   5.430  10.073 -0.7653 -0.0910 -0.6281
  165SOPE   H4X18579   2.953   5.514  10.142  0.9321 -0.3954 -0.7642
  165SOPE   H4Y18580   2.837   5.376  10.098  0.5948 -2.4296 -0.3016
  165SOPE   C3518581   2.946   5.475   9.924 -0.2794 -0.6109  0.2204
  165SOPE   H5X18582   2.935   5.390   9.854 -1.8424  2.6112 -3.8376
  165SOPE   H5Y18583   3.050   5.512   9.912  0.4999 -1.4052  3.4352
  165SOPE   C3618584   2.843   5.578   9.890 -0.6305  0.5054  0.3592
  165SOPE   H6X18585   2.846   5.670   9.952 -1.8473  0.3496  0.6748
  165SOPE   H6Y18586   2.750   5.519   9.910  0.1486 -0.1062  2.3636
  165SOPE   C3718587   2.848   5.631   9.744  0.0573  0.4248  0.1765
  165SOPE   H7X18588   2.946   5.682   9.730 -0.0269  0.4863 -0.1991
  165SOPE   H7Y18589   2.774   5.714   9.736 -0.6587 -0.0522  1.5882
  165SOPE   C3818590   2.834   5.525   9.635 -0.0533  0.8285 -0.2746
  165SOPE   H8X18591   2.737   5.474   9.648  0.9807 -0.7528  1.7637
  165SOPE   H8Y18592   2.916   5.452   9.651  1.3294  2.8027  2.8633
  165SOPE   C3918593   2.852   5.583   9.494  0.1994 -0.1063  0.2561
  165SOPE   H9X18594   2.945   5.639   9.476 -0.0175  0.1340 -0.1118
  165SOPE   H9Y18595   2.769   5.655   9.481  0.0151 -0.2111  0.8092
  165SOPE  C31018596   2.842   5.471   9.389  0.1162 -0.0737  0.5927
  165SOPE  H10X18597   2.748   5.414   9.405  0.7212 -1.6250 -1.0774
  165SOPE  H10Y18598   2.928   5.401   9.392 -1.6424 -2.3393  0.9902
  165SOPE  C31118599   2.813   5.541   9.256 -1.1022 -0.1024 -0.3343
  165SOPE  H11X18600   2.906   5.587   9.216  0.5468 -3.0666 -0.2313
  165SOPE  H11Y18601   2.755   5.634   9.271  2.0366  1.8716  0.5974
  165SOPE  C31218602   2.753   5.452   9.141 -0.1303  0.3910  0.7292
  165SOPE  H12X18603   2.655   5.421   9.182  0.1838 -1.2851  0.2731
  165SOPE  H12Y18604   2.820   5.364   9.134 -1.0235 -0.2027 -1.2134
  165SOPE  C31318605   2.738   5.526   9.006 -0.2447 -0.5281 -0.0408
  165SOPE  H13X18606   2.841   5.558   8.981 -0.6649  1.2265  0.3537
  165SOPE  H13Y18607   2.682   5.620   9.026  1.2796  0.2170  0.9241
  165SOPE  C31418608   2.678   5.434   8.900  0.5117  0.1414  0.4491
  165SOPE  H14X18609   2.572   5.409   8.923  0.1950  0.4946 -0.5845
  165SOPE  H14Y18610   2.730   5.336   8.887 -0.2783  0.0357 -2.7297
  165SOPE  C31518611   2.671   5.515   8.770  0.4587  0.4494 -0.1935
  165SOPE  H15X18612   2.638   5.619   8.788 -0.1581  0.5111 -1.5687
  165SOPE  H15Y18613   2.601   5.471   8.696  2.0317 -1.1003 -0.8302
  165SOPE  C31618614   2.808   5.522   8.702 -0.9794  0.6214  0.7756
  165SOPE  H16X18615   2.826   5.417   8.671  0.9584  0.8223  1.0671
  165SOPE  H16Y18616   2.882   5.558   8.776 -0.1113  0.6303 -0.0690
  165SOPE  C31718617   2.806   5.610   8.571 -0.2186 -0.0701 -0.1331
  165SOPE  H17X18618   2.778   5.713   8.601 -2.7320 -0.6624 -0.1745
  165SOPE  H17Y18619   2.727   5.576   8.501  1.0035 -1.7687 -0.7593
  165SOPE  C31818620   2.934   5.605   8.484  0.4825 -0.8562  0.1173
  165SOPE  H18X18621   3.026   5.610   8.546 -0.0591  1.8412  0.8142
  165SOPE  H18Y18622   2.929   5.674   8.397  1.4495  0.0361  0.7500
  165SOPE  H18Z18623   2.932   5.504   8.438  1.3450 -1.2894  1.0114
  166SOPE     N18624   5.409   5.542  11.213  0.4287  0.0844 -0.3559
  166SOPE   HN118625   5.464   5.607  11.152  0.3690  1.4840  1.0246
  166SOPE   HN218626   5.451   5.563  11.305  2.0316  0.0154 -1.0344
  166SOPE   HN318627   5.417   5.440  11.195 -1.1717  0.0798 -1.2269
  166SOPE   C1218628   5.266   5.584  11.208 -0.1278  0.4824 -0.5259
  166SOPE  H12A18629   5.258   5.694  11.218 -1.9046  0.4446 -1.1707
  166SOPE  H12B18630   5.211   5.535  11.292 -0.8366 -0.6477 -1.6094
  166SOPE   C1118631   5.209   5.551  11.074  0.1485  0.5355 -0.2710
  166SOPE  H11A18632   5.269   5.597  10.993  1.8170  2.1983  1.7811
  166SOPE  H11B18633   5.111   5.601  11.058  0.2010 -0.0402 -2.9592
  166SOPE     P18634   5.165   5.329  10.928 -0.4030  0.3825  0.0793
  166SOPE   O1318635   5.029   5.260  10.927 -0.4235  0.3392 -1.0402
  166SOPE   O1418636   5.280   5.238  10.924 -0.7103  0.2095 -0.4017
  166SOPE   O1218637   5.172   5.408  11.060 -0.3207 -0.0184  0.5275
  166SOPE   O1118638   5.172   5.440  10.814 -0.3491  0.3764 -0.0315
  166SOPE    C118639   5.289   5.467  10.742  0.6387  0.1034 -0.6874
  166SOPE    HA18640   5.373   5.476  10.814 -0.2929 -0.4655  0.5028
  166SOPE    HB18641   5.278   5.565  10.690 -0.8719  0.5951  0.4877
  166SOPE    C218642   5.315   5.362  10.634  0.2669 -0.7685  0.4309
  166SOPE    HS18643   5.301   5.265  10.686 -1.0102 -0.9519 -0.2253
  166SOPE   O2118644   5.449   5.384  10.593  0.3767 -0.0790  0.1329
  166SOPE   C2118645   5.516   5.269  10.572 -0.6998 -0.0837  0.6484
  166SOPE   O2218646   5.470   5.154  10.585 -0.1496  0.5632  0.1204
  166SOPE   C2218647   5.659   5.308  10.527 -0.4323  0.1904  0.1260
  166SOPE   H2R18648   5.720   5.320  10.619  0.7321  0.5934 -0.6783
  166SOPE   H2S18649   5.646   5.406  10.476 -1.8981 -0.5040 -0.9191
  166SOPE    C318650   5.222   5.375  10.514 -0.0111 -0.1824  0.0771
  166SOPE    HX18651   5.243   5.474  10.469 -0.5527  1.1131  2.4980
  166SOPE    HY18652   5.116   5.390  10.542  0.3411  0.6587  1.0127
  166SOPE   O3118653   5.240   5.266  10.423 -1.3154  0.4738 -0.1490
  166SOPE   C3118654   5.168   5.154  10.452  0.4722  0.2961 -0.0668
  166SOPE   O3218655   5.095   5.139  10.549  0.1336  0.4271  0.0767
  166SOPE   C3218656   5.195   5.055  10.337  0.0738 -0.3977  0.5749
  166SOPE   H2X18657   5.120   4.973  10.337 -1.4149  0.8889 -0.7722
  166SOPE   H2Y18658   5.297   5.016  10.360  0.1136  0.6438  2.3776
  166SOPE   C2318659   5.717   5.189  10.435  0.4672 -0.4154  0.4214
  166SOPE   H3R18660   5.701   5.095  10.493 -1.2042  1.0031  2.4091
  166SOPE   H3S18661   5.825   5.216  10.428  0.6153 -1.0567  0.2149
  166SOPE   C2418662   5.658   5.188  10.294  0.5443 -0.2063  0.4027
  166SOPE   H4R18663   5.551   5.159  10.294  0.5913 -0.8871 -3.4184
  166SOPE   H4S18664   5.659   5.296  10.272 -1.9978  0.4643  2.9730
  166SOPE   C2518665   5.730   5.109  10.184 -0.7226  0.3551  0.1342
  166SOPE   H5R18666   5.831   5.150  10.164 -0.5187 -1.4116 -3.1313
  166SOPE   H5S18667   5.750   5.006  10.221  2.6631  1.5946  2.2209
  166SOPE   C2618668   5.669   5.108  10.041  0.1509 -0.0243  0.5541
  166SOPE   H6R18669   5.728   5.041   9.975 -1.2989 -1.6014  0.7822
  166SOPE   H6S18670   5.575   5.048  10.036 -0.5514  1.0466  0.6693
  166SOPE   C2718671   5.638   5.245   9.973 -0.2259 -0.4257  0.3885
  166SOPE   H7R18672   5.542   5.288  10.008 -0.7618  0.0666 -1.5611
  166SOPE   H7S18673   5.709   5.327   9.998 -0.0564  0.1831 -1.8647
  166SOPE   C2818674   5.629   5.220   9.820 -0.5054 -0.3058  0.5744
  166SOPE   H8R18675   5.585   5.119   9.806 -2.2558 -0.2073  4.1573
  166SOPE   H8S18676   5.568   5.298   9.771 -0.4147  0.1672  1.2046
  166SOPE   C2918677   5.765   5.237   9.754  0.4220  0.4291 -0.3619
  166SOPE   H9118678   5.848   5.235   9.826 -1.7508 -2.9984  2.3729
  166SOPE  C21018679   5.790   5.235   9.621 -0.2730  0.4061  0.2249
  166SOPE  H10118680   5.895   5.234   9.589 -0.1169 -0.7906  0.7206
  166SOPE  C21118681   5.686   5.224   9.512 -0.0662 -0.0718  0.3272
  166SOPE  H11R18682   5.594   5.277   9.545 -0.4062  0.2081 -1.0129
  166SOPE  H11S18683   5.663   5.123   9.472  0.5456  0.1419 -0.6090
  166SOPE  C21218684   5.728   5.297   9.387 -0.5287  0.3667  0.2040
  166SOPE  H12R18685   5.806   5.230   9.345 -1.0524 -1.6472  2.2549
  166SOPE  H12S18686   5.762   5.403   9.393 -0.2792  0.3453 -0.6827
  166SOPE  C21318687   5.615   5.307   9.279  0.0764 -0.9862  0.4228
  166SOPE  H13R18688   5.532   5.354   9.336  1.8060 -0.3280  2.5442
  166SOPE  H13S18689   5.585   5.206   9.244  2.6051 -1.1920 -1.4376
  166SOPE  C21418690   5.652   5.376   9.147 -0.1224 -0.3180  0.4460
  166SOPE  H14R18691   5.743   5.325   9.110  0.4923  1.4193 -0.5776
  166SOPE  H14S18692   5.673   5.484   9.163 -2.0080 -0.0773  1.6751
  166SOPE  C21518693   5.546   5.368   9.044 -0.6636  0.0652 -0.2298
  166SOPE  H15R18694   5.458   5.433   9.061 -1.0848 -0.7949  1.0217
  166SOPE  H15S18695   5.513   5.262   9.047  0.7959 -0.4571 -1.2677
  166SOPE  C21618696   5.608   5.399   8.901 -0.5078  0.1799 -0.8461
  166SOPE  H16R18697   5.681   5.317   8.883 -0.3799  0.4252 -1.4499
  166SOPE  H16S18698   5.648   5.502   8.902  1.9365 -0.6808  0.5081
  166SOPE  C21718699   5.509   5.392   8.790  0.1329 -0.1691  0.5932
  166SOPE  H17R18700   5.452   5.296   8.795 -2.2558  1.2366  2.6014
  166SOPE  H17S18701   5.560   5.401   8.692 -0.1605  1.2859  0.5510
  166SOPE  C21818702   5.415   5.511   8.791 -0.7149 -0.2286  0.5125
  166SOPE  H18R18703   5.318   5.476   8.833 -0.8480 -1.0660 -0.4483
  166SOPE  H18S18704   5.391   5.540   8.687 -2.0451  0.9213  1.1125
  166SOPE  H18T18705   5.448   5.597   8.853  1.0369  0.6314 -1.5042
  166SOPE   C3318706   5.185   5.113  10.192  0.4949 -0.7378 -0.4516
  166SOPE   H3X18707   5.235   5.213  10.186 -1.0160  0.1999  1.4322
  166SOPE   H3Y18708   5.078   5.130  10.168  0.6192 -0.0013 -0.5274
  166SOPE   C3418709   5.254   5.022  10.092  0.4627 -0.2362  0.1096
  166SOPE   H4X18710   5.221   4.919  10.119 -0.9247  0.7545  2.4462
  166SOPE   H4Y18711   5.365   5.022  10.089  0.6349 -4.3861  0.4414
  166SOPE   C3518712   5.216   5.073   9.949 -0.6192  0.9273 -0.0160
  166SOPE   H5X18713   5.260   5.174   9.949 -2.0396  1.5686  0.3441
  166SOPE   H5Y18714   5.108   5.078   9.923 -0.3303  0.2229 -1.4522
  166SOPE   C3618715   5.281   4.982   9.844 -0.1332  0.0853  0.0289
  166SOPE   H6X18716   5.245   4.878   9.859  1.8531 -0.6093  0.1944
  166SOPE   H6Y18717   5.387   4.972   9.876  0.0179  1.8165  0.1642
  166SOPE   C3718718   5.267   5.027   9.695 -0.0219 -0.4863 -0.2872
  166SOPE   H7X18719   5.295   5.135   9.697  0.6760 -0.6661  0.1159
  166SOPE   H7Y18720   5.163   5.022   9.657  0.2041  0.0073 -1.0014
  166SOPE   C3818721   5.358   4.959   9.592 -0.1267  0.2069  0.7272
  166SOPE   H8X18722   5.317   4.856   9.597 -1.7444  0.8804  2.4543
  166SOPE   H8Y18723   5.462   4.958   9.630  1.0024 -1.0719 -2.0738
  166SOPE   C3918724   5.356   5.022   9.451 -0.0901  0.4391  0.2713
  166SOPE   H9X18725   5.424   4.962   9.387 -0.1617 -2.7723  2.9467
  166SOPE   H9Y18726   5.390   5.127   9.451  3.3706 -0.5194 -1.6854
  166SOPE  C31018727   5.215   5.031   9.387 -0.0846  0.4722 -0.0156
  166SOPE  H10X18728   5.167   5.104   9.455  1.0369  0.9410  0.2996
  166SOPE  H10Y18729   5.156   4.938   9.403  1.0990 -0.2554  0.1992
  166SOPE  C31118730   5.212   5.064   9.242  0.3244 -0.0571  0.2389
  166SOPE  H11X18731   5.287   5.143   9.217 -0.1489  0.5953  0.8186
  166SOPE  H11Y18732   5.110   5.103   9.219  0.7388  0.2964 -1.0973
  166SOPE  C31218733   5.233   4.945   9.156  0.1732 -0.0417  0.0980
  166SOPE  H12X18734   5.162   4.868   9.192 -0.1258  0.5857  0.8757
  166SOPE  H12Y18735   5.334   4.902   9.172  0.1073  0.2583  1.4374
  166SOPE  C31318736   5.215   4.982   9.008 -0.1260  0.2759  0.1569
  166SOPE  H13X18737   5.297   5.050   8.974 -1.4897  2.0986  0.3871
  166SOPE  H13Y18738   5.115   5.030   8.998 -0.8664 -1.3677 -0.5776
  166SOPE  C31418739   5.237   4.862   8.909 -0.3829  0.3458 -0.2880
  166SOPE  H14X18740   5.145   4.802   8.921 -0.1039  0.3247  2.2323
  166SOPE  H14Y18741   5.321   4.803   8.952 -0.7092  0.4836  0.5459
  166SOPE  C31518742   5.243   4.905   8.755  0.2428 -0.1165 -0.9693
  166SOPE  H15X18743   5.151   4.967   8.746 -0.5530 -1.0575  0.2827
  166SOPE  H15Y18744   5.212   4.812   8.703 -0.1064 -1.0205  0.7637
  166SOPE  C31618745   5.376   4.974   8.718 -0.8655  0.1474  0.4597
  166SOPE  H16X18746   5.449   4.899   8.756 -0.4590  0.3624  0.1157
  166SOPE  H16Y18747   5.389   5.070   8.772 -2.3651 -1.0274  3.0894
  166SOPE  C31718748   5.385   4.991   8.568  0.2454  0.0233  0.2782
  166SOPE  H17X18749   5.379   4.887   8.529  1.0135 -0.4102  1.2627
  166SOPE  H17Y18750   5.491   5.021   8.554  0.8245 -1.3676  1.4309
  166SOPE  C31818751   5.283   5.085   8.517  0.7333 -0.0401 -0.3101
  166SOPE  H18X18752   5.265   5.083   8.407  0.4731 -1.5530 -0.2639
  166SOPE  H18Y18753   5.294   5.189   8.553  0.6011 -0.6214  1.5252
  166SOPE  H18Z18754   5.182   5.063   8.557 -0.6273  2.1646 -2.3002
  167SOPE     N18755   6.674   2.057   6.253 -0.3980  0.3395 -0.3236
  167SOPE   HN118756   6.726   1.969   6.273  0.7081  1.1279  0.4265
  167SOPE   HN218757   6.586   2.047   6.199 -0.6955 -0.1838  0.2413
  167SOPE   HN318758   6.733   2.113   6.188  0.5137  0.1136  0.2847
  167SOPE   C1218759   6.649   2.142   6.375 -0.6496  0.2751 -0.2154
  167SOPE  H12A18760   6.738   2.142   6.440 -0.4601  0.2407 -0.4737
  167SOPE  H12B18761   6.564   2.099   6.432 -0.2844  0.0548  0.1644
  167SOPE   C1118762   6.602   2.286   6.341  0.1748 -0.8354 -0.2304
  167SOPE  H11A18763   6.679   2.351   6.296 -2.1182  1.9326 -0.4473
  167SOPE  H11B18764   6.568   2.331   6.437 -1.5362 -2.0609 -0.2144
  167SOPE     P18765   6.460   2.389   6.138  0.1116 -0.2933  0.0256
  167SOPE   O1318766   6.324   2.353   6.085 -0.1987  0.4405 -0.0230
  167SOPE   O1418767   6.573   2.405   6.044 -0.1569 -0.2978  0.1132
  167SOPE   O1218768   6.489   2.285   6.244  0.2998  0.3903 -0.8505
  167SOPE   O1118769   6.447   2.514   6.226 -0.0778 -0.1136 -0.3749
  167SOPE    C118770   6.350   2.510   6.332  0.0018 -0.2874  0.1160
  167SOPE    HA18771   6.331   2.407   6.369 -1.7043  0.2512  0.8253
  167SOPE    HB18772   6.256   2.561   6.302 -0.2101  0.2115  1.5179
  167SOPE    C218773   6.399   2.604   6.450 -0.7900  0.5584  0.1172
  167SOPE    HS18774   6.494   2.558   6.486 -2.1109 -0.9176  1.8745
  167SOPE   O2118775   6.293   2.611   6.550 -0.5980 -0.0370  0.3006
  167SOPE   C2118776   6.294   2.502   6.624 -1.1436  0.3176  0.5998
  167SOPE   O2218777   6.371   2.409   6.608  0.0314 -0.2520 -0.7496
  167SOPE   C2218778   6.172   2.493   6.719 -0.2265  0.4974  0.1868
  167SOPE   H2R18779   6.129   2.392   6.710 -0.9583  0.6806  1.4238
  167SOPE   H2S18780   6.102   2.565   6.671  0.5052 -0.7175 -2.9587
  167SOPE    C318781   6.438   2.749   6.396  0.1077 -0.2495 -0.7786
  167SOPE    HX18782   6.346   2.790   6.349 -1.6819 -2.0559  0.9015
  167SOPE    HY18783   6.513   2.755   6.315  0.9397 -0.3811 -0.0295
  167SOPE   O3118784   6.486   2.828   6.508  0.3555 -0.4766 -0.0839
  167SOPE   C3118785   6.609   2.880   6.504 -0.4465  0.0344 -0.6116
  167SOPE   O3218786   6.694   2.853   6.423 -0.2679  0.4483  0.1135
  167SOPE   C3218787   6.631   2.984   6.618  0.0021 -0.5024 -0.2408
  167SOPE   H2X18788   6.588   2.946   6.713  0.2470  1.2018  0.6018
  167SOPE   H2Y18789   6.583   3.077   6.582  3.5152  1.2552 -0.8807
  167SOPE   C2318790   6.221   2.528   6.865  0.3331  0.4334 -0.0572
  167SOPE   H3R18791   6.303   2.463   6.903  0.3476  0.4049 -0.1371
  167SOPE   H3S18792   6.146   2.510   6.945  0.2066  0.3617 -0.1899
  167SOPE   C2418793   6.272   2.670   6.866 -0.1031  0.5213  0.6512
  167SOPE   H4R18794   6.331   2.689   6.774  0.2987 -0.6774  0.6501
  167SOPE   H4S18795   6.192   2.745   6.846  0.1840  0.1071 -2.5804
  167SOPE   C2518796   6.358   2.707   6.990  0.3095  0.6905 -0.0233
  167SOPE   H5R18797   6.424   2.623   7.022 -0.1509 -0.5169 -2.1004
  167SOPE   H5S18798   6.425   2.794   6.968  1.4739 -0.5246 -1.4811
  167SOPE   C2618799   6.279   2.761   7.111  0.3472  0.1394 -0.2270
  167SOPE   H6R18800   6.189   2.811   7.068 -1.0102 -1.6054  0.4679
  167SOPE   H6S18801   6.243   2.679   7.177  1.8692  1.2094  2.0650
  167SOPE   C2718802   6.354   2.867   7.200 -0.2376  0.7511 -0.0691
  167SOPE   H7R18803   6.452   2.823   7.227 -0.3284  1.9444  2.4053
  167SOPE   H7S18804   6.383   2.957   7.143  1.9530  1.7041  2.3977
  167SOPE   C2818805   6.287   2.928   7.331 -0.3543 -0.4204  0.0254
  167SOPE   H8R18806   6.354   3.013   7.354  1.9544 -1.0942 -3.4482
  167SOPE   H8S18807   6.182   2.962   7.316 -1.0926 -2.0129  1.2204
  167SOPE   C2918808   6.288   2.829   7.442 -0.0870  0.7241  0.2592
  167SOPE   H9118809   6.235   2.740   7.408 -0.9351  1.7038 -1.0727
  167SOPE  C21018810   6.326   2.840   7.568  0.1133  0.0747  0.2547
  167SOPE  H10118811   6.326   2.746   7.626 -0.9525 -2.9735 -4.1566
  167SOPE  C21118812   6.400   2.954   7.629 -0.3031 -0.3689 -0.1287
  167SOPE  H11R18813   6.343   3.049   7.629  0.3758  0.0541 -1.1618
  167SOPE  H11S18814   6.496   2.968   7.575  0.3247 -0.2387  0.9978
  167SOPE  C21218815   6.443   2.920   7.771 -0.1160 -0.1250 -0.2010
  167SOPE  H12R18816   6.493   2.821   7.772  1.7545  0.7811 -0.4744
  167SOPE  H12S18817   6.361   2.920   7.845  0.6705 -0.1979  0.6877
  167SOPE  C21318818   6.552   3.020   7.813 -0.1054  0.0338  0.2210
  167SOPE  H13R18819   6.530   3.124   7.782 -1.3334  0.3957  2.1498
  167SOPE  H13S18820   6.646   3.000   7.757 -0.0443  0.6385  0.1013
  167SOPE  C21418821   6.580   3.015   7.971  0.2448  0.3672  0.3435
  167SOPE  H14R18822   6.637   2.921   7.987  0.8534  0.8258  0.9414
  167SOPE  H14S18823   6.478   3.011   8.015  0.3926 -1.4216  0.5972
  167SOPE  C21518824   6.667   3.125   8.020 -0.3037 -0.4156  0.4550
  167SOPE  H15R18825   6.629   3.228   8.006  1.3448  0.1464 -0.0460
  167SOPE  H15S18826   6.761   3.117   7.963 -0.8107 -2.8773 -0.1521
  167SOPE  C21618827   6.693   3.117   8.173  0.2085  0.7628  0.8215
  167SOPE  H16R18828   6.736   3.020   8.204 -2.5234 -0.5393  0.8028
  167SOPE  H16S18829   6.594   3.114   8.223  0.5254 -0.3004  1.4169
  167SOPE  C21718830   6.780   3.228   8.232  0.0635  0.7230  0.9931
  167SOPE  H17R18831   6.721   3.319   8.258  1.2072  1.5476  0.7615
  167SOPE  H17S18832   6.867   3.253   8.168 -0.2350  1.5836  0.9110
  167SOPE  C21818833   6.837   3.181   8.369  0.5461 -0.1819  0.0558
  167SOPE  H18R18834   6.874   3.271   8.423 -0.5507 -0.6508  1.6863
  167SOPE  H18S18835   6.920   3.107   8.372 -0.7103 -1.6844 -0.7854
  167SOPE  H18T18836   6.754   3.138   8.429 -1.5081  1.9057 -1.1144
  167SOPE   C3318837   6.781   3.008   6.629 -0.2252  0.2825  0.0817
  167SOPE   H3X18838   6.812   3.043   6.528 -2.2830  1.2415 -0.2742
  167SOPE   H3Y18839   6.836   2.915   6.655  0.4890  0.2739 -1.3512
  167SOPE   C3418840   6.827   3.120   6.735 -0.1905  0.4105  0.1504
  167SOPE   H4X18841   6.772   3.216   6.729 -0.8979  0.0875  1.1919
  167SOPE   H4Y18842   6.935   3.139   6.714 -0.7507  2.5212 -1.0958
  167SOPE   C3518843   6.812   3.101   6.889 -0.7108  0.4037  0.4059
  167SOPE   H5X18844   6.876   3.177   6.938 -1.0082  0.5037  0.6477
  167SOPE   H5Y18845   6.860   3.003   6.909 -0.7725 -1.0346 -4.8657
  167SOPE   C3618846   6.666   3.096   6.940  0.7253 -0.2176 -0.9551
  167SOPE   H6X18847   6.674   3.083   7.050 -1.9908  3.9611 -0.0192
  167SOPE   H6Y18848   6.611   3.007   6.903  2.0919 -0.9880 -1.2262
  167SOPE   C3718849   6.581   3.226   6.922 -1.0204  0.5707 -0.1318
  167SOPE   H7X18850   6.485   3.209   6.975 -0.4697  1.4647  1.1987
  167SOPE   H7Y18851   6.564   3.236   6.812  2.8155 -1.2015 -1.0381
  167SOPE   C3818852   6.651   3.358   6.964 -0.9528 -0.1568 -0.0553
  167SOPE   H8X18853   6.582   3.441   6.939  0.6601  1.8790  1.8478
  167SOPE   H8Y18854   6.740   3.368   6.898  0.2133  0.9762  1.6131
  167SOPE   C3918855   6.705   3.379   7.113 -1.0419 -0.1734 -0.0062
  167SOPE   H9X18856   6.754   3.478   7.124 -1.1954  0.2381 -2.5048
  167SOPE   H9Y18857   6.798   3.321   7.123  1.6179  3.8971  1.4700
  167SOPE  C31018858   6.605   3.350   7.218 -0.2487 -0.2802  0.0454
  167SOPE  H10X18859   6.611   3.245   7.252  0.8173  0.0484  0.9069
  167SOPE  H10Y18860   6.504   3.360   7.171 -0.2448  1.8898  0.3852
  167SOPE  C31118861   6.587   3.441   7.331 -0.6510  0.4701 -0.2924
  167SOPE  H11X18862   6.567   3.544   7.297  1.9013  0.9799 -0.4316
  167SOPE  H11Y18863   6.689   3.458   7.373 -1.4329  1.6057  1.2530
  167SOPE  C31218864   6.480   3.396   7.425  0.4565  0.2647 -0.1653
  167SOPE  H12X18865   6.488   3.288   7.451 -1.1160 -0.2498 -1.5557
  167SOPE  H12Y18866   6.379   3.391   7.378 -0.6171  2.8265  1.6631
  167SOPE  C31318867   6.487   3.458   7.558 -0.7036 -0.7604 -0.2714
  167SOPE  H13X18868   6.444   3.560   7.548  2.6560  1.2001  2.6540
  167SOPE  H13Y18869   6.590   3.473   7.599 -0.2984 -1.5464 -0.9872
  167SOPE  C31418870   6.399   3.394   7.657  0.1503  0.3601  0.1749
  167SOPE  H14X18871   6.444   3.295   7.678  1.6814  1.2336  1.2677
  167SOPE  H14Y18872   6.301   3.370   7.609  1.3444  2.1093 -3.6118
  167SOPE  C31518873   6.359   3.477   7.781 -0.3638 -0.1149  0.6610
  167SOPE  H15X18874   6.290   3.557   7.746 -1.5129 -1.0247  0.7972
  167SOPE  H15Y18875   6.456   3.511   7.823 -0.1527  1.2266 -0.8350
  167SOPE  C31618876   6.288   3.384   7.879  0.1481  0.6748 -0.2061
  167SOPE  H16X18877   6.318   3.278   7.866 -1.3431  0.3100 -1.0229
  167SOPE  H16Y18878   6.178   3.390   7.862 -0.0185  1.2412  0.9326
  167SOPE  C31718879   6.304   3.428   8.024 -0.1505 -0.4090  0.6708
  167SOPE  H17X18880   6.257   3.528   8.025  1.3386  0.4581 -2.4622
  167SOPE  H17Y18881   6.413   3.438   8.040  0.4151 -1.5254 -1.9371
  167SOPE  C31818882   6.237   3.334   8.127  0.3686 -0.0643 -0.0952
  167SOPE  H18X18883   6.219   3.363   8.233 -3.4535  0.8956 -0.8333
  167SOPE  H18Y18884   6.295   3.239   8.127 -1.9058 -1.5850  1.7161
  167SOPE  H18Z18885   6.139   3.301   8.084  0.8796 -2.6346  0.5256
  168SOPE     N18886   5.698   6.675   6.243  0.1001  0.2879  0.1325
  168SOPE   HN118887   5.799   6.677   6.217 -0.1718 -0.2426 -1.0628
  168SOPE   HN218888   5.656   6.770   6.232 -0.3399  0.1657  0.7365
  168SOPE   HN318889   5.695   6.638   6.340 -1.6687 -0.3501 -0.1304
  168SOPE   C1218890   5.614   6.574   6.170  0.0157  0.9357  0.2582
  168SOPE  H12A18891   5.634   6.471   6.208 -1.3640 -0.0213 -1.4782
  168SOPE  H12B18892   5.640   6.588   6.063  1.6470 -0.9191  0.3368
  168SOPE   C1118893   5.467   6.609   6.192 -0.1391 -0.7209  0.3551
  168SOPE  H11A18894   5.401   6.547   6.128 -0.1548  0.5384 -0.8951
  168SOPE  H11B18895   5.457   6.717   6.167  0.5104 -0.3545  1.5972
  168SOPE     P18896   5.378   6.471   6.397 -0.2223 -0.1525 -0.1780
  168SOPE   O1318897   5.474   6.440   6.512  0.6404  0.0046  0.2324
  168SOPE   O1418898   5.351   6.365   6.296 -0.6744  0.0430  0.1671
  168SOPE   O1218899   5.433   6.606   6.333  1.1797  0.5579  0.2786
  168SOPE   O1118900   5.231   6.516   6.446 -0.0314  0.1977 -0.1292
  168SOPE    C118901   5.204   6.610   6.551 -0.3645 -0.1038  0.7069
  168SOPE    HA18902   5.132   6.684   6.510  1.6863  0.7165 -1.7243
  168SOPE    HB18903   5.292   6.672   6.579 -0.3232  0.3422 -0.3576
  168SOPE    C218904   5.132   6.551   6.675  0.0967  0.1637  0.7052
  168SOPE    HS18905   5.085   6.629   6.740 -0.8123 -0.5222  0.8910
  168SOPE   O2118906   5.221   6.485   6.767  0.4456 -0.0928 -0.3517
  168SOPE   C2118907   5.339   6.540   6.805  0.0874 -0.1679  0.3154
  168SOPE   O2218908   5.360   6.658   6.809 -0.1554 -0.6294 -0.8176
  168SOPE   C2218909   5.438   6.426   6.850 -0.1058  0.3093  0.7952
  168SOPE   H2R18910   5.529   6.486   6.867 -0.4210  0.9701  0.1843
  168SOPE   H2S18911   5.451   6.354   6.766  0.8278  1.4117 -0.0239
  168SOPE    C318912   5.018   6.443   6.636 -0.2352  0.5970 -0.7209
  168SOPE    HX18913   5.051   6.347   6.593  2.5030  0.5486  1.2236
  168SOPE    HY18914   4.956   6.494   6.558  1.0578  1.6279 -1.1098
  168SOPE   O3118915   4.936   6.419   6.754 -0.5122  0.0566 -0.2274
  168SOPE   C3118916   4.976   6.311   6.816  0.3017 -0.1867  0.3706
  168SOPE   O3218917   5.070   6.237   6.789  0.3787  0.9176  0.1933
  168SOPE   C3218918   4.885   6.304   6.944 -0.1506 -0.2729 -0.6634
  168SOPE   H2X18919   4.960   6.290   7.025  2.9375  2.4147 -2.7927
  168SOPE   H2Y18920   4.815   6.219   6.936 -0.4922 -0.0830  0.2147
  168SOPE   C2318921   5.392   6.358   6.977  0.3623 -0.0940  0.3133
  168SOPE   H3R18922   5.461   6.273   7.001 -0.7114 -0.7893  1.0104
  168SOPE   H3S18923   5.290   6.317   6.964 -0.1972  1.8699 -2.3230
  168SOPE   C2418924   5.389   6.456   7.092  0.0023  0.2047 -0.5442
  168SOPE   H4R18925   5.487   6.507   7.100 -0.3043  0.9886 -1.6005
  168SOPE   H4S18926   5.309   6.533   7.086 -1.0243 -0.6803  0.8563
  168SOPE   C2518927   5.367   6.386   7.222  0.7538 -1.0616 -0.2684
  168SOPE   H5R18928   5.260   6.354   7.224  0.0720  1.0703  1.2428
  168SOPE   H5S18929   5.430   6.295   7.228  0.4434 -1.2896 -0.4363
  168SOPE   C2618930   5.396   6.476   7.350 -0.9449 -0.1959  0.5809
  168SOPE   H6R18931   5.504   6.502   7.343 -0.8557 -0.3308  1.3658
  168SOPE   H6S18932   5.341   6.573   7.353  0.9343  1.1117 -2.3032
  168SOPE   C2718933   5.377   6.393   7.475 -0.0080 -0.0521  0.7400
  168SOPE   H7R18934   5.271   6.369   7.497 -0.2744  0.7669  0.4171
  168SOPE   H7S18935   5.436   6.299   7.469  0.4915  0.3016 -0.0409
  168SOPE   C2818936   5.441   6.468   7.593  0.5943 -0.5099  0.9923
  168SOPE   H8R18937   5.548   6.495   7.581  0.7356 -1.8743 -1.3851
  168SOPE   H8S18938   5.381   6.561   7.608 -2.2881 -2.2193  0.9324
  168SOPE   C2918939   5.431   6.379   7.719  0.7294  0.3159  0.5253
  168SOPE   H9118940   5.378   6.284   7.702 -1.3415  1.5171 -0.1224
  168SOPE  C21018941   5.479   6.405   7.845  0.3503  0.8670  0.1090
  168SOPE  H10118942   5.451   6.327   7.917  1.2747 -1.0706 -1.5278
  168SOPE  C21118943   5.553   6.527   7.896  0.3007 -0.4190  0.3256
  168SOPE  H11R18944   5.561   6.594   7.808 -0.0061 -2.0336 -0.9862
  168SOPE  H11S18945   5.659   6.501   7.920  0.9184  0.8121 -0.9051
  168SOPE  C21218946   5.500   6.606   8.014  0.1714 -0.2344  0.1502
  168SOPE  H12R18947   5.456   6.546   8.097  0.5307 -1.7081 -0.6876
  168SOPE  H12S18948   5.423   6.677   7.977 -0.2654 -0.7556  0.0455
  168SOPE  C21318949   5.611   6.699   8.074  0.4401 -0.8278 -0.7575
  168SOPE  H13R18950   5.629   6.776   7.996 -3.3652  0.8520 -0.2427
  168SOPE  H13S18951   5.705   6.650   8.105 -0.4749 -2.1088  0.0971
  168SOPE  C21418952   5.566   6.776   8.203  0.5711  0.0033 -0.0941
  168SOPE  H14R18953   5.556   6.705   8.287  0.7190 -2.6893 -2.2096
  168SOPE  H14S18954   5.469   6.821   8.172 -0.2394 -0.8381  1.1369
  168SOPE  C21518955   5.672   6.880   8.249 -0.0680 -0.6829  0.8083
  168SOPE  H15R18956   5.770   6.827   8.254  0.2277 -0.9063 -3.5194
  168SOPE  H15S18957   5.640   6.918   8.348 -0.7112 -0.6876  0.6025
  168SOPE  C21618958   5.691   6.994   8.150 -1.2220 -1.1063  0.5537
  168SOPE  H16R18959   5.605   7.063   8.133 -0.9737 -1.3131 -2.0328
  168SOPE  H16S18960   5.694   6.957   8.045 -1.7016  0.4850 -0.0441
  168SOPE  C21718961   5.821   7.083   8.177 -0.5756 -0.1767 -0.4278
  168SOPE  H17R18962   5.843   7.159   8.099  0.7905 -0.4490 -0.3344
  168SOPE  H17S18963   5.912   7.018   8.178  1.0452  1.8169 -3.2537
  168SOPE  C21818964   5.823   7.161   8.310 -0.0481 -0.2000  0.1759
  168SOPE  H18R18965   5.811   7.098   8.401 -1.0073 -1.5254 -0.8332
  168SOPE  H18S18966   5.743   7.236   8.322  0.9961  0.8286  0.9643
  168SOPE  H18T18967   5.915   7.224   8.317  0.7575 -1.3172  0.0071
  168SOPE   C3318968   4.809   6.435   6.980 -0.2857  0.4398  0.4889
  168SOPE   H3X18969   4.745   6.410   7.068  0.7589  1.1393  1.4833
  168SOPE   H3Y18970   4.744   6.456   6.893  0.5459 -2.6023 -0.9966
  168SOPE   C3418971   4.896   6.557   7.015  0.1905 -0.5023 -0.5280
  168SOPE   H4X18972   4.834   6.649   7.017  2.5674  1.2124 -0.5988
  168SOPE   H4Y18973   4.958   6.567   6.923  0.0150 -2.0289 -0.8400
  168SOPE   C3518974   4.979   6.545   7.140  0.1670  0.3667  0.5208
  168SOPE   H5X18975   5.048   6.632   7.150 -1.0930  1.2095  2.5699
  168SOPE   H5Y18976   5.046   6.457   7.137  0.1263  0.3542 -0.7215
  168SOPE   C3618977   4.897   6.538   7.270 -0.5643  0.0260  0.3718
  168SOPE   H6X18978   4.832   6.448   7.265  0.6576 -0.8450 -0.8971
  168SOPE   H6Y18979   4.843   6.635   7.271  0.3595  0.5718  2.5542
  168SOPE   C3718980   4.988   6.537   7.395  0.6044 -0.7431 -0.1397
  168SOPE   H7X18981   5.035   6.636   7.413 -0.8182  0.0066 -0.3949
  168SOPE   H7Y18982   5.074   6.467   7.392  3.0635  2.0201  0.9636
  168SOPE   C3818983   4.907   6.510   7.526  0.1877 -0.1905  0.0269
  168SOPE   H8X18984   4.884   6.401   7.532 -1.0688  0.1196  1.7392
  168SOPE   H8Y18985   4.809   6.562   7.521 -0.7175 -1.8819 -0.8833
  168SOPE   C3918986   4.995   6.546   7.651  0.8917 -0.3719  0.3048
  168SOPE   H9X18987   5.005   6.656   7.668  0.9276 -0.2092 -0.6761
  168SOPE   H9Y18988   5.094   6.504   7.621  0.6231 -0.0731 -1.1027
  168SOPE  C31018989   4.937   6.470   7.775  0.1778  0.0656 -0.4504
  168SOPE  H10X18990   4.945   6.360   7.765  1.3561 -0.1304  2.0240
  168SOPE  H10Y18991   4.833   6.502   7.796  0.4113 -0.0961  1.0530
  168SOPE  C31118992   5.026   6.497   7.899 -0.4382 -0.4442  0.0866
  168SOPE  H11X18993   5.030   6.603   7.931 -1.0380 -0.4748  0.2824
  168SOPE  H11Y18994   5.129   6.458   7.882  0.0595  0.3686  1.1663
  168SOPE  C31218995   4.972   6.426   8.020 -1.0211 -0.3860  0.2398
  168SOPE  H12X18996   4.997   6.319   8.006  1.9296  0.1608  0.6716
  168SOPE  H12Y18997   4.861   6.434   8.017 -1.0108  0.3546  1.2263
  168SOPE  C31318998   5.025   6.477   8.157  0.0968 -0.0764 -0.2578
  168SOPE  H13X18999   4.955   6.429   8.229  0.0907 -0.2877 -0.4037
  168SOPE  H13Y19000   5.002   6.585   8.164  0.1521 -0.1242  0.8635
  168SOPE  C31419001   5.172   6.455   8.178  0.0257 -0.5057  0.2074
  168SOPE  H14X19002   5.235   6.537   8.138 -0.2611  0.1835  1.1256
  168SOPE  H14Y19003   5.205   6.360   8.130  1.7360  0.7710 -1.2665
  168SOPE  C31519004   5.207   6.463   8.332 -0.8110  0.0788  0.6563
  168SOPE  H15X19005   5.131   6.389   8.365 -1.0600 -0.1521 -0.3892
  168SOPE  H15Y19006   5.199   6.566   8.373 -1.1200  0.2734  0.1214
  168SOPE  C31619007   5.344   6.409   8.362  0.6081  0.8922 -0.2224
  168SOPE  H16X19008   5.410   6.487   8.318  0.3128 -0.2051 -2.8437
  168SOPE  H16Y19009   5.353   6.305   8.323  0.4642 -0.0722  2.1946
  168SOPE  C31719010   5.369   6.392   8.513  0.2345 -0.2014  0.7946
  168SOPE  H17X19011   5.297   6.324   8.564 -0.0876  1.1031  2.1617
  168SOPE  H17Y19012   5.357   6.483   8.574 -0.2908  2.0258 -2.3709
  168SOPE  C31819013   5.509   6.336   8.545 -0.0729  0.1426  0.5065
  168SOPE  H18X19014   5.591   6.369   8.477  1.7784 -0.4735  2.3250
  168SOPE  H18Y19015   5.506   6.225   8.553 -1.7199 -0.0592 -1.7671
  168SOPE  H18Z19016   5.529   6.369   8.649  0.7958  1.1336  0.0405
  169SOPE     N19017   0.898   2.200   6.076  0.2311  0.2042 -0.3863
  169SOPE   HN119018   0.858   2.278   6.131 -1.5693 -1.4629  0.8229
  169SOPE   HN219019   0.841   2.192   5.989 -1.0530 -0.9475  0.5199
  169SOPE   HN319020   0.881   2.111   6.128 -0.4143 -0.5023 -1.7609
  169SOPE   C1219021   1.042   2.217   6.042 -0.6601  0.5484  0.1948
  169SOPE  H12A19022   1.055   2.250   5.937 -0.8365 -0.1521 -0.0474
  169SOPE  H12B19023   1.080   2.113   6.052 -1.2682  0.2624 -0.4067
  169SOPE   C1119024   1.119   2.305   6.140 -0.5665  0.1620 -1.0292
  169SOPE  H11A19025   1.092   2.412   6.148 -1.3455 -0.1165  0.6619
  169SOPE  H11B19026   1.215   2.302   6.084  0.7578 -2.3374  1.1098
  169SOPE     P19027   1.252   2.167   6.313 -0.2554  0.5014  0.0118
  169SOPE   O1319028   1.357   2.272   6.328 -0.2159 -0.6918 -0.4635
  169SOPE   O1419029   1.286   2.059   6.215  0.4481  0.1426 -0.2112
  169SOPE   O1219030   1.120   2.239   6.268 -0.0352 -0.8010 -0.1959
  169SOPE   O1119031   1.211   2.096   6.450 -0.2193 -0.0363  0.0529
  169SOPE    C119032   1.116   2.148   6.543  0.0364 -0.2427  0.5924
  169SOPE    HA19033   1.069   2.061   6.595  0.9245 -0.7461  0.5739
  169SOPE    HB19034   1.041   2.208   6.489  1.8276  1.4258 -0.1404
  169SOPE    C219035   1.169   2.240   6.658  0.1180  0.0026 -0.9251
  169SOPE    HS19036   1.203   2.336   6.613 -0.7171  0.5651 -0.3774
  169SOPE   O2119037   1.275   2.164   6.725  0.0396 -0.4248  0.1937
  169SOPE   C2119038   1.362   2.237   6.787  0.2832 -0.3724  0.4191
  169SOPE   O2219039   1.390   2.352   6.753 -0.9322  0.0316 -0.4883
  169SOPE   C2219040   1.439   2.153   6.885  0.1412 -0.0425  0.1375
  169SOPE   H2R19041   1.528   2.209   6.922  1.6864 -0.5568 -2.5166
  169SOPE   H2S19042   1.470   2.057   6.840  1.3508  0.6556 -0.5834
  169SOPE    C319043   1.052   2.272   6.752 -0.4129  0.0710 -0.1505
  169SOPE    HX19044   1.028   2.170   6.788  0.7743  0.1965  1.0719
  169SOPE    HY19045   0.983   2.333   6.691 -1.0411 -0.4830 -0.0075
  169SOPE   O3119046   1.112   2.340   6.865  0.5115 -0.0903 -0.6366
  169SOPE   C3119047   1.095   2.470   6.882 -0.7726  0.3413  0.5545
  169SOPE   O3219048   1.032   2.540   6.804 -0.2444  0.5928 -0.3180
  169SOPE   C3219049   1.189   2.527   6.998  0.1584 -0.0788  0.0444
  169SOPE   H2X19050   1.214   2.628   6.959  0.3469  0.3419  1.2260
  169SOPE   H2Y19051   1.273   2.455   7.004 -1.4293 -1.9898  0.4868
  169SOPE   C2319052   1.355   2.131   7.012  0.4445 -1.0008 -0.2979
  169SOPE   H3R19053   1.280   2.050   7.001  1.5114 -1.9524 -0.7898
  169SOPE   H3S19054   1.310   2.230   7.033  2.0592 -0.6687  1.9562
  169SOPE   C2419055   1.436   2.097   7.139 -0.3939  0.1520 -0.3514
  169SOPE   H4R19056   1.490   2.005   7.110 -1.7969 -2.2816  3.8789
  169SOPE   H4S19057   1.509   2.179   7.157 -2.6775  1.9726  1.2972
  169SOPE   C2519058   1.347   2.082   7.262 -0.1098 -0.0268 -0.0873
  169SOPE   H5R19059   1.304   2.174   7.305 -1.0064 -1.1194  1.4731
  169SOPE   H5S19060   1.263   2.017   7.229  0.3536 -0.0586 -1.2645
  169SOPE   C2619061   1.424   2.034   7.388  0.3103 -0.6340  0.0858
  169SOPE   H6R19062   1.342   2.013   7.460 -0.6831  4.0035  0.6050
  169SOPE   H6S19063   1.492   1.948   7.368  3.4342  0.9961  2.6740
  169SOPE   C2719064   1.517   2.142   7.444  0.8028  0.3593 -0.1558
  169SOPE   H7R19065   1.589   2.166   7.363  0.0852  0.6049 -0.7276
  169SOPE   H7S19066   1.461   2.235   7.470  0.6021  0.0553  0.5276
  169SOPE   C2819067   1.601   2.096   7.565  0.0049  0.0833  0.5804
  169SOPE   H8R19068   1.648   2.000   7.535  2.4595  2.1835 -3.0336
  169SOPE   H8S19069   1.688   2.161   7.588  0.1174 -1.1531  4.3293
  169SOPE   C2919070   1.509   2.101   7.687 -0.6627  0.8293 -0.6308
  169SOPE   H9119071   1.471   2.201   7.715 -0.9860 -0.0842  2.6194
  169SOPE  C21019072   1.460   1.994   7.756 -0.6053  0.2416  1.1413
  169SOPE  H10119073   1.394   2.011   7.842 -2.7177  0.4127 -0.4264
  169SOPE  C21119074   1.497   1.847   7.728  0.3004 -0.3837 -0.6648
  169SOPE  H11R19075   1.570   1.842   7.644  1.7138  1.6978  0.3402
  169SOPE  H11S19076   1.408   1.783   7.711 -0.5212  0.6860 -0.5003
  169SOPE  C21219077   1.586   1.781   7.842 -0.2117 -0.1754 -0.3453
  169SOPE  H12R19078   1.615   1.677   7.816  1.4490  0.0620  0.4506
  169SOPE  H12S19079   1.528   1.797   7.936  0.8412  3.5135 -0.1612
  169SOPE  C21319080   1.722   1.849   7.859  0.6913 -0.3058  0.0908
  169SOPE  H13R19081   1.724   1.950   7.906  1.6324 -0.4349  0.3533
  169SOPE  H13S19082   1.775   1.860   7.762 -1.8023  2.4293 -1.0963
  169SOPE  C21419083   1.819   1.764   7.947  0.8794  0.3213  1.4257
  169SOPE  H14R19084   1.924   1.788   7.917  1.2310  0.7418  2.9177
  169SOPE  H14S19085   1.801   1.661   7.911 -0.8854  1.5429 -1.5795
  169SOPE  C21519086   1.814   1.783   8.101 -0.2553 -0.2486  0.3476
  169SOPE  H15R19087   1.714   1.812   8.139  0.6027 -1.5472  3.9814
  169SOPE  H15S19088   1.869   1.877   8.121 -0.3460 -0.3297  1.0071
  169SOPE  C21619089   1.867   1.670   8.185  0.2282  0.6942 -0.4982
  169SOPE  H16R19090   1.952   1.618   8.137  0.9451 -0.2828  1.7112
  169SOPE  H16S19091   1.785   1.595   8.193 -0.3450  1.2814 -0.7876
  169SOPE  C21719092   1.913   1.713   8.326 -0.5404 -0.3391  0.2646
  169SOPE  H17R19093   1.826   1.770   8.365 -1.0424 -1.3470  0.6613
  169SOPE  H17S19094   2.000   1.769   8.287 -0.8357  0.3728  0.6195
  169SOPE  C21819095   1.964   1.605   8.417 -0.4320 -0.4036  0.8272
  169SOPE  H18R19096   2.029   1.540   8.355 -1.5411 -0.1970 -0.5919
  169SOPE  H18S19097   1.882   1.544   8.462  0.5054 -0.7739  2.1022
  169SOPE  H18T19098   2.020   1.652   8.500  0.0167 -1.7721  1.3337
  169SOPE   C3319099   1.123   2.541   7.138 -0.4322  0.3904 -0.1642
  169SOPE   H3X19100   1.049   2.624   7.132 -2.6434 -1.3864  0.6104
  169SOPE   H3Y19101   1.210   2.558   7.204  1.3688 -3.3968 -1.2857
  169SOPE   C3419102   1.062   2.407   7.193 -0.8172  0.0929 -0.2079
  169SOPE   H4X19103   1.131   2.324   7.166  0.3279  0.5813  1.1432
  169SOPE   H4Y19104   0.965   2.394   7.139  0.5006 -0.0933 -2.7012
  169SOPE   C3519105   1.038   2.409   7.347  0.5721  0.4045  0.2835
  169SOPE   H5X19106   1.140   2.424   7.388  0.6540  2.1800 -0.4708
  169SOPE   H5Y19107   0.990   2.312   7.375  1.6165 -0.7771 -1.7553
  169SOPE   C3619108   0.960   2.530   7.405 -0.8209 -0.3264  0.0064
  169SOPE   H6X19109   0.854   2.539   7.373 -1.6376 -0.3809  2.5477
  169SOPE   H6Y19110   1.016   2.622   7.378 -1.4903  0.0980  0.0627
  169SOPE   C3719111   0.963   2.525   7.560  0.4088  0.0245 -0.1068
  169SOPE   H7X19112   1.063   2.505   7.605 -0.5783 -1.2497  1.6708
  169SOPE   H7Y19113   0.903   2.435   7.586  2.2099 -1.4590 -0.8431
  169SOPE   C3819114   0.903   2.649   7.633 -0.1915  0.0745 -0.0885
  169SOPE   H8X19115   0.955   2.745   7.614 -1.1304  0.4173 -1.0164
  169SOPE   H8Y19116   0.803   2.666   7.589  0.4324 -2.1185 -2.5540
  169SOPE   C3919117   0.906   2.629   7.790 -0.3240  0.0350  0.4754
  169SOPE   H9X19118   0.829   2.561   7.832 -0.2983 -0.1563  0.2157
  169SOPE   H9Y19119   0.889   2.729   7.834  1.8087 -0.1975  1.9817
  169SOPE  C31019120   1.043   2.592   7.849  0.4212 -0.4518 -0.9821
  169SOPE  H10X19121   1.126   2.658   7.815  0.6714 -0.5954 -0.6543
  169SOPE  H10Y19122   1.070   2.489   7.816 -0.2103 -0.0807 -2.7510
  169SOPE  C31119123   1.047   2.613   8.007 -0.3095 -0.2685 -0.2352
  169SOPE  H11X19124   0.944   2.584   8.036  0.0366 -0.3744  0.9799
  169SOPE  H11Y19125   1.059   2.718   8.043 -0.1748 -0.3306 -0.0968
  169SOPE  C31219126   1.143   2.521   8.084 -0.5440  0.2167  0.3204
  169SOPE  H12X19127   1.237   2.580   8.090 -1.0116  0.9173  0.9907
  169SOPE  H12Y19128   1.158   2.428   8.026  0.8122  0.3962  0.3461
  169SOPE  C31319129   1.094   2.499   8.227  0.0376  0.7806 -0.3391
  169SOPE  H13X19130   0.994   2.453   8.211  0.7534 -0.5244 -1.2433
  169SOPE  H13Y19131   1.095   2.600   8.273 -0.3185 -0.3690  2.3801
  169SOPE  C31419132   1.188   2.408   8.298 -0.2498 -0.8730  0.2760
  169SOPE  H14X19133   1.283   2.465   8.298 -0.2582 -0.8572 -0.1486
  169SOPE  H14Y19134   1.195   2.308   8.249  0.0246 -1.2289  1.0186
  169SOPE  C31519135   1.142   2.388   8.446 -0.6947  0.3712  0.6665
  169SOPE  H15X19136   1.039   2.346   8.436  0.4688 -2.7902  0.7056
  169SOPE  H15Y19137   1.137   2.484   8.502 -0.6066  1.7196 -1.5260
  169SOPE  C31619138   1.230   2.289   8.531  0.3237  1.0826  0.2843
  169SOPE  H16X19139   1.242   2.203   8.462 -2.1562  2.0361 -1.4904
  169SOPE  H16Y19140   1.164   2.258   8.613  0.8866  0.6800  0.5900
  169SOPE  C31719141   1.362   2.343   8.593  0.0284 -0.4869 -0.6705
  169SOPE  H17X19142   1.324   2.429   8.651 -0.8455  0.0775 -2.0239
  169SOPE  H17Y19143   1.434   2.379   8.516 -0.5038  0.1190 -0.8945
  169SOPE  C31819144   1.438   2.242   8.682  0.3122  0.2180 -0.1860
  169SOPE  H18X19145   1.445   2.144   8.631 -0.0462 -0.6843  1.4021
  169SOPE  H18Y19146   1.376   2.233   8.775  2.9808  0.2249  1.7093
  169SOPE  H18Z19147   1.539   2.278   8.711  0.9633 -1.7499  0.0990
  170SOPE     N19148   1.548   0.768   6.236 -0.1658  0.2846 -0.1540
  170SOPE   HN119149   1.568   0.696   6.308  0.3607  0.6692  0.0932
  170SOPE   HN219150   1.561   0.865   6.272  1.5041 -0.4399  1.3457
  170SOPE   HN319151   1.445   0.759   6.226 -0.6868  1.4392  2.8951
  170SOPE   C1219152   1.638   0.731   6.117  0.1502  0.0764  0.0289
  170SOPE  H12A19153   1.619   0.803   6.035 -2.9120 -2.3200 -1.5540
  170SOPE  H12B19154   1.614   0.628   6.082 -0.1939  0.3695 -0.6045
  170SOPE   C1119155   1.789   0.744   6.159  0.0635 -0.0271  0.3724
  170SOPE  H11A19156   1.851   0.719   6.070 -0.9961 -3.5354  0.4612
  170SOPE  H11B19157   1.810   0.667   6.237  0.7175 -1.7164 -1.3854
  170SOPE     P19158   1.899   0.907   6.344 -0.1900  0.0093 -0.4211
  170SOPE   O1319159   1.902   1.055   6.356  0.4981  0.5268 -0.2995
  170SOPE   O1419160   2.028   0.837   6.362 -0.6185  0.2631 -0.0002
  170SOPE   O1219161   1.819   0.878   6.204  0.3241  0.1117 -0.2742
  170SOPE   O1119162   1.788   0.856   6.445  0.6060  0.0260  0.1091
  170SOPE    C119163   1.711   0.929   6.533 -0.0201 -0.3694 -0.1925
  170SOPE    HA19164   1.649   0.849   6.579  2.1832 -2.0795  0.0092
  170SOPE    HB19165   1.648   1.008   6.487  1.1748  0.6247 -0.1644
  170SOPE    C219166   1.791   0.988   6.647 -0.0907 -0.2222  0.0283
  170SOPE    HS19167   1.860   1.063   6.603 -0.4720 -0.4657 -1.0190
  170SOPE   O2119168   1.852   0.883   6.719  0.0154 -0.0130 -0.5868
  170SOPE   C2119169   1.940   0.919   6.806 -0.1387 -0.5683 -0.4017
  170SOPE   O2219170   1.966   1.040   6.832  0.2127  0.3763 -0.1923
  170SOPE   C2219171   2.019   0.803   6.865  0.3376  0.0705 -0.0582
  170SOPE   H2R19172   2.100   0.768   6.796  1.3841  0.9797  0.6718
  170SOPE   H2S19173   1.951   0.718   6.889  0.9993 -0.4766 -0.0666
  170SOPE    C319174   1.692   1.065   6.736 -1.1198  0.2535  0.6656
  170SOPE    HX19175   1.661   1.155   6.680 -0.7245 -0.2412 -0.3752
  170SOPE    HY19176   1.744   1.106   6.825 -1.8198  2.2379  0.2006
  170SOPE   O3119177   1.587   0.978   6.784  0.3262 -0.3634 -0.2184
  170SOPE   C3119178   1.476   1.047   6.820  0.6949  0.0796 -0.2729
  170SOPE   O3219179   1.465   1.167   6.821  0.5545 -0.5696  0.5360
  170SOPE   C3219180   1.383   0.949   6.902  0.2797 -0.1280  0.2268
  170SOPE   H2X19181   1.351   0.869   6.832  0.2704 -0.4019  0.5435
  170SOPE   H2Y19182   1.297   1.014   6.929 -0.4312 -0.4955 -1.0670
  170SOPE   C2319183   2.102   0.838   6.984  0.1062 -0.3988  0.3104
  170SOPE   H3R19184   2.168   0.925   6.963  0.7617 -0.5844  1.5322
  170SOPE   H3S19185   2.173   0.755   7.002 -0.3084 -0.8956 -0.2899
  170SOPE   C2419186   2.039   0.857   7.125 -0.5036  0.5323  0.2824
  170SOPE   H4R19187   1.997   0.763   7.169  0.3668 -0.7658 -1.5300
  170SOPE   H4S19188   2.127   0.871   7.191  0.0627 -2.5931  0.3526
  170SOPE   C2519189   1.938   0.971   7.145 -0.0828 -0.6024  1.2788
  170SOPE   H5R19190   1.979   1.061   7.094 -0.4909  0.6366  3.0440
  170SOPE   H5S19191   1.842   0.947   7.094  0.8938 -1.6439 -0.1734
  170SOPE   C2619192   1.909   1.012   7.290  0.4977  0.0484 -0.1557
  170SOPE   H6R19193   1.991   1.071   7.336 -1.3269  0.4429  2.8451
  170SOPE   H6S19194   1.822   1.081   7.290  0.2263 -0.2647 -1.2901
  170SOPE   C2719195   1.868   0.894   7.381 -0.0692 -0.3643  0.0523
  170SOPE   H7R19196   1.788   0.836   7.329  0.1267 -0.9296  0.3635
  170SOPE   H7S19197   1.966   0.841   7.378  0.9883  1.5579 -0.7449
  170SOPE   C2819198   1.828   0.936   7.528  0.5530 -0.0442  0.0172
  170SOPE   H8R19199   1.914   0.995   7.565  0.2689  0.2340  0.2424
  170SOPE   H8S19200   1.730   0.988   7.524  0.6143  0.1588  0.9006
  170SOPE   C2919201   1.803   0.820   7.617 -0.3334  0.3302 -0.0306
  170SOPE   H9119202   1.866   0.733   7.594  1.0351  1.3256 -0.1762
  170SOPE  C21019203   1.721   0.812   7.724 -0.1801 -0.0905  0.6179
  170SOPE  H10119204   1.706   0.715   7.774 -0.0940 -0.5439 -0.2252
  170SOPE  C21119205   1.634   0.926   7.784 -0.4853  0.0570  0.6902
  170SOPE  H11R19206   1.634   1.023   7.731 -0.7336  0.9675  2.2949
  170SOPE  H11S19207   1.683   0.954   7.880 -0.1707 -0.5260  0.7102
  170SOPE  C21219208   1.486   0.883   7.786 -0.4892 -0.1408 -0.6282
  170SOPE  H12R19209   1.471   0.774   7.803 -3.7737 -0.1675 -2.7540
  170SOPE  H12S19210   1.445   0.908   7.685  1.1252  0.4426 -1.1651
  170SOPE  C21319211   1.399   0.962   7.889 -0.0995  0.4366  0.2251
  170SOPE  H13R19212   1.394   1.070   7.867 -0.2004  0.5708  0.8810
  170SOPE  H13S19213   1.455   0.933   7.980 -0.4430  0.3505  0.4111
  170SOPE  C21419214   1.253   0.910   7.888 -0.5921  0.5865 -0.6645
  170SOPE  H14R19215   1.246   0.799   7.885  2.2180  0.3420 -0.8642
  170SOPE  H14S19216   1.202   0.950   7.798 -0.1756 -2.5502 -2.4312
  170SOPE  C21519217   1.188   0.949   8.020  0.0743  0.1504 -0.2402
  170SOPE  H15R19218   1.237   0.902   8.108 -1.2238  2.2133  1.7005
  170SOPE  H15S19219   1.083   0.917   8.002  0.2306  0.9487 -2.9331
  170SOPE  C21619220   1.185   1.102   8.047  0.9799  0.2118  0.7798
  170SOPE  H16R19221   1.139   1.155   7.960 -0.8811  0.5233  1.9109
  170SOPE  H16S19222   1.292   1.130   8.054  1.2976 -0.1684 -1.5407
  170SOPE  C21719223   1.108   1.142   8.172 -0.7191  0.6620 -0.2805
  170SOPE  H17R19224   1.170   1.101   8.255 -0.9705 -1.2353 -0.9652
  170SOPE  H17S19225   1.008   1.094   8.166  0.0253 -1.0045 -0.0978
  170SOPE  C21819226   1.083   1.292   8.174 -0.0232  0.5375 -0.1337
  170SOPE  H18R19227   1.181   1.344   8.159  1.4298 -0.5018  4.1951
  170SOPE  H18S19228   1.047   1.313   8.277  1.8395 -1.4440  1.0190
  170SOPE  H18T19229   1.001   1.329   8.109 -0.3100  0.6285  0.2772
  170SOPE   C3319230   1.452   0.895   7.031  0.4598 -0.2549 -0.4386
  170SOPE   H3X19231   1.510   0.976   7.082  2.6893 -1.3757 -1.0590
  170SOPE   H3Y19232   1.531   0.825   6.995  0.9640 -0.5403  1.1550
  170SOPE   C3419233   1.348   0.831   7.123  0.0398  0.6195  0.3178
  170SOPE   H4X19234   1.300   0.756   7.056 -0.5914 -0.1014  1.5377
  170SOPE   H4Y19235   1.265   0.899   7.152 -0.8817 -0.0131 -0.7470
  170SOPE   C3519236   1.412   0.753   7.236  0.1699 -0.9656 -0.9960
  170SOPE   H5X19237   1.469   0.814   7.310  0.0912 -2.0615 -0.0059
  170SOPE   H5Y19238   1.492   0.695   7.185  0.6904  0.6549 -2.0936
  170SOPE   C3619239   1.317   0.659   7.305  0.0129  0.2025 -0.2400
  170SOPE   H6X19240   1.269   0.605   7.221  0.0827  1.6429 -1.2602
  170SOPE   H6Y19241   1.242   0.714   7.366  0.9493  1.4794 -0.1824
  170SOPE   C3719242   1.387   0.560   7.405 -0.1914 -0.0370 -0.0188
  170SOPE   H7X19243   1.474   0.618   7.442  0.1836  0.2689 -1.3252
  170SOPE   H7Y19244   1.432   0.473   7.353 -0.0552  0.1241 -0.1746
  170SOPE   C3819245   1.288   0.521   7.519  0.5811  0.3518 -0.0288
  170SOPE   H8X19246   1.256   0.606   7.583  0.6035  1.5037 -1.5184
  170SOPE   H8Y19247   1.330   0.436   7.579  0.0784 -0.2998 -0.5877
  170SOPE   C3919248   1.146   0.469   7.461 -0.4271  0.0441  0.3826
  170SOPE   H9X19249   1.175   0.438   7.358  0.7861  0.8294  0.4616
  170SOPE   H9Y19250   1.079   0.557   7.452 -0.8648 -0.0489  2.4095
  170SOPE  C31019251   1.078   0.363   7.544 -0.0470 -0.7693  0.1158
  170SOPE  H10X19252   1.143   0.273   7.543  2.2401  0.6787  2.8524
  170SOPE  H10Y19253   0.976   0.340   7.507 -0.2832  1.3008 -0.6754
  170SOPE  C31119254   1.060   0.417   7.692  0.5649 -0.6486  0.3000
  170SOPE  H11X19255   1.030   0.524   7.696  0.8377 -0.6130  2.2093
  170SOPE  H11Y19256   1.165   0.411   7.728  0.8962  0.7822 -0.3662
  170SOPE  C31219257   0.964   0.335   7.771  0.5336  0.5163  0.7217
  170SOPE  H12X19258   0.972   0.228   7.745 -0.8387  0.2943  1.1358
  170SOPE  H12Y19259   0.860   0.348   7.734  1.4349 -2.6316 -3.6575
  170SOPE  C31319260   0.980   0.360   7.926  0.3323  0.3838  0.0392
  170SOPE  H13X19261   0.944   0.461   7.953  0.9217  0.5856  0.0788
  170SOPE  H13Y19262   1.090   0.360   7.944  0.6532  0.2869 -1.7361
  170SOPE  C31419263   0.907   0.251   8.001  0.1117  0.7820 -0.5398
  170SOPE  H14X19264   0.946   0.150   7.975  1.1160  1.2079 -0.7628
  170SOPE  H14Y19265   0.798   0.256   7.982 -0.3368 -1.9573  0.8462
  170SOPE  C31519266   0.925   0.259   8.157 -0.9538 -1.0659 -0.2243
  170SOPE  H15X19267   0.913   0.361   8.200  1.8943 -1.5974  2.1125
  170SOPE  H15Y19268   1.024   0.217   8.184  0.4117  1.4774 -0.9452
  170SOPE  C31619269   0.815   0.182   8.228 -0.7831 -0.3288 -0.0555
  170SOPE  H16X19270   0.809   0.080   8.186  1.5857 -0.4394 -0.2670
  170SOPE  H16Y19271   0.716   0.231   8.213  0.3819  2.4289  0.6341
  170SOPE  C31719272   0.839   0.160   8.377 -0.2685 -0.5311  0.5564
  170SOPE  H17X19273   0.902   0.074   8.408 -1.3216 -1.0429  1.3028
  170SOPE  H17Y19274   0.743   0.132   8.425  0.5765  1.2994  3.5495
  170SOPE  C31819275   0.885   0.289   8.446 -0.4524  0.5630 -0.1802
  170SOPE  H18X19276   0.994   0.306   8.430 -0.1477 -0.0093  1.1984
  170SOPE  H18Y19277   0.873   0.289   8.556 -0.6266 -1.7300 -0.1539
  170SOPE  H18Z19278   0.824   0.369   8.398 -0.8260  0.4526  0.1127
  171SOPE     N19279   1.871   3.595   6.337 -0.4642  0.8107 -0.0768
  171SOPE   HN119280   1.778   3.555   6.316 -1.2382 -0.1842  4.3275
  171SOPE   HN219281   1.863   3.699   6.337  2.9291  1.1800 -0.3621
  171SOPE   HN319282   1.943   3.560   6.270  0.9481  1.7417  0.9055
  171SOPE   C1219283   1.910   3.543   6.472 -0.1453  0.2423 -0.5183
  171SOPE  H12A19284   2.021   3.539   6.479 -0.1444  1.3584  0.4526
  171SOPE  H12B19285   1.877   3.438   6.476 -1.5018  0.6684 -0.2479
  171SOPE   C1119286   1.855   3.622   6.594  0.0041  0.4854 -0.0488
  171SOPE  H11A19287   1.903   3.569   6.680  2.0563  1.6638 -0.4136
  171SOPE  H11B19288   1.749   3.591   6.607  0.4599 -2.3062 -2.0522
  171SOPE     P19289   1.804   3.877   6.549 -0.1814  0.0825 -0.1460
  171SOPE   O1319290   1.785   3.874   6.402  0.4361 -0.5969 -0.1372
  171SOPE   O1419291   1.868   4.007   6.585  0.7980  0.3764 -0.3062
  171SOPE   O1219292   1.890   3.757   6.595  0.4160 -0.4835  0.3276
  171SOPE   O1119293   1.674   3.853   6.630 -0.6714  0.3150 -0.4473
  171SOPE    C119294   1.685   3.842   6.774 -0.0975 -0.0214 -0.1687
  171SOPE    HA19295   1.785   3.814   6.812  0.2554 -0.2221 -1.2178
  171SOPE    HB19296   1.605   3.774   6.810 -0.0050  0.8524  1.7838
  171SOPE    C219297   1.643   3.979   6.837 -0.3627 -0.4675  0.5565
  171SOPE    HS19298   1.719   4.053   6.802 -1.2289  2.0565  3.5085
  171SOPE   O2119299   1.643   3.970   6.984 -0.1105  0.4550 -0.0658
  171SOPE   C2119300   1.757   4.020   7.042  0.2195 -0.0855  0.3959
  171SOPE   O2219301   1.860   4.047   6.978 -0.5860  0.3338  0.3752
  171SOPE   C2219302   1.742   4.015   7.190  0.5036 -0.3250  0.3519
  171SOPE   H2R19303   1.840   4.026   7.242  0.1523  0.1190  0.9310
  171SOPE   H2S19304   1.690   3.921   7.215  0.9550 -0.5028  0.6254
  171SOPE    C319305   1.504   4.022   6.780  0.0120  0.5811  0.1658
  171SOPE    HX19306   1.431   3.951   6.824  1.2334 -0.5085  0.4895
  171SOPE    HY19307   1.505   4.015   6.669 -1.4040 -1.6983  0.2533
  171SOPE   O3119308   1.458   4.156   6.816 -0.1615 -0.1757 -0.6252
  171SOPE   C3119309   1.319   4.182   6.796 -1.0690 -0.0816  0.4017
  171SOPE   O3219310   1.254   4.097   6.741 -0.0024 -0.2640 -0.3289
  171SOPE   C3219311   1.273   4.316   6.855  0.0779 -0.0734 -0.6121
  171SOPE   H2X19312   1.225   4.366   6.768 -1.7876  2.4769  1.7133
  171SOPE   H2Y19313   1.370   4.366   6.873  0.7005 -1.4770  0.1136
  171SOPE   C2319314   1.664   4.154   7.220 -0.0926 -0.5248 -0.4318
  171SOPE   H3R19315   1.639   4.155   7.328  1.2481 -1.5459 -0.0865
  171SOPE   H3S19316   1.564   4.154   7.172 -0.6969 -0.9550  0.7983
  171SOPE   C2419317   1.736   4.282   7.184 -0.0495 -0.1179 -0.2718
  171SOPE   H4R19318   1.829   4.272   7.244  0.3902  0.7887 -0.7724
  171SOPE   H4S19319   1.761   4.279   7.076 -0.7571 -1.7972 -0.4203
  171SOPE   C2519320   1.675   4.418   7.219 -0.3216  0.2824  0.4160
  171SOPE   H5R19321   1.751   4.488   7.180 -0.5534 -0.7849 -2.1531
  171SOPE   H5S19322   1.583   4.439   7.160  0.1437 -2.1846 -1.3161
  171SOPE   C2619323   1.669   4.448   7.369 -0.0175  0.4111  0.8656
  171SOPE   H6R19324   1.607   4.377   7.426  0.5967 -1.3940 -0.5965
  171SOPE   H6S19325   1.764   4.432   7.425 -1.2157 -0.7341  2.6769
  171SOPE   C2719326   1.602   4.582   7.386 -0.3718  0.0203 -0.0861
  171SOPE   H7R19327   1.642   4.666   7.326  1.4350  0.4989  1.6854
  171SOPE   H7S19328   1.502   4.560   7.343 -0.6332  0.3232  0.3545
  171SOPE   C2819329   1.575   4.634   7.528 -0.1052  0.6163  0.4843
  171SOPE   H8R19330   1.665   4.635   7.594 -0.9747 -0.7273  1.7403
  171SOPE   H8S19331   1.552   4.743   7.529 -1.4712  0.3448  0.5335
  171SOPE   C2919332   1.455   4.567   7.578  0.0713  1.0158  0.5434
  171SOPE   H9119333   1.369   4.587   7.513 -0.1875  1.0935  0.9112
  171SOPE  C21019334   1.449   4.486   7.687 -0.3321  0.2316  0.9467
  171SOPE  H10119335   1.361   4.420   7.697 -0.9577  0.8802 -0.0731
  171SOPE  C21119336   1.559   4.455   7.782 -0.0385  0.4945  0.3210
  171SOPE  H11R19337   1.653   4.514   7.777  0.2441 -0.0293 -0.8652
  171SOPE  H11S19338   1.598   4.351   7.781  0.8829  0.7835  2.2244
  171SOPE  C21219339   1.515   4.479   7.932 -0.1567 -0.2459 -0.1302
  171SOPE  H12R19340   1.599   4.434   7.990  1.0478  0.0485 -1.5780
  171SOPE  H12S19341   1.421   4.421   7.944 -0.9302  1.0617  0.2932
  171SOPE  C21319342   1.489   4.614   7.991 -0.5371 -0.2629  0.2109
  171SOPE  H13R19343   1.397   4.639   7.934  1.1626 -1.1310 -3.2336
  171SOPE  H13S19344   1.556   4.689   7.944 -0.6929  1.8700  3.1521
  171SOPE  C21419345   1.472   4.632   8.140  0.6040  0.6726 -0.2752
  171SOPE  H14R19346   1.455   4.741   8.143  3.1025  1.0904  1.5898
  171SOPE  H14S19347   1.563   4.600   8.196 -0.1993  1.3464  1.4837
  171SOPE  C21519348   1.349   4.562   8.212 -0.2522  0.3521  0.1374
  171SOPE  H15R19349   1.350   4.451   8.208 -4.8635  0.1280 -0.5992
  171SOPE  H15S19350   1.255   4.596   8.163 -1.4101  1.1100  2.6949
  171SOPE  C21619351   1.337   4.593   8.356 -0.5276  0.2713  0.5111
  171SOPE  H16R19352   1.434   4.562   8.401  0.2883  2.0669  0.0708
  171SOPE  H16S19353   1.253   4.536   8.402 -0.5944 -1.4695 -1.6067
  171SOPE  C21719354   1.298   4.732   8.393  0.6954  0.3666 -0.4023
  171SOPE  H17R19355   1.192   4.745   8.363  0.5202  0.9387  0.4435
  171SOPE  H17S19356   1.364   4.811   8.353  0.9632  0.2872 -0.1230
  171SOPE  C21819357   1.298   4.752   8.543  0.2802 -0.0393 -0.3762
  171SOPE  H18R19358   1.270   4.856   8.572 -0.6763 -0.2247 -0.5854
  171SOPE  H18S19359   1.402   4.734   8.576  0.4737  1.3358 -0.1716
  171SOPE  H18T19360   1.221   4.688   8.589  0.0146 -0.5643 -1.5091
  171SOPE   C3319361   1.180   4.301   6.984  0.1353  0.4872  0.2359
  171SOPE   H3X19362   1.115   4.211   6.983  0.3458  0.3237  1.1091
  171SOPE   H3Y19363   1.124   4.397   6.993 -0.3169  0.4145 -1.3991
  171SOPE   C3419364   1.264   4.291   7.114  0.3302  0.4809 -0.1460
  171SOPE   H4X19365   1.326   4.381   7.135  0.5227  1.0175 -2.6959
  171SOPE   H4Y19366   1.333   4.204   7.114  0.7632  0.8150  0.1404
  171SOPE   C3519367   1.182   4.271   7.245 -1.1212 -0.0532 -0.2657
  171SOPE   H5X19368   1.238   4.199   7.309 -0.4659  0.3580 -0.3698
  171SOPE   H5Y19369   1.082   4.226   7.227 -0.9024 -0.3964 -0.6375
  171SOPE   C3619370   1.162   4.392   7.340 -0.0280 -0.0318 -0.5165
  171SOPE   H6X19371   1.097   4.465   7.287 -0.9487  0.3923  1.1124
  171SOPE   H6Y19372   1.250   4.457   7.357  0.2735 -0.9929  2.0624
  171SOPE   C3719373   1.105   4.347   7.480 -0.2759  0.3223  1.0978
  171SOPE   H7X19374   1.189   4.290   7.527 -0.0583  0.0490  0.3829
  171SOPE   H7Y19375   1.019   4.278   7.473  1.6640 -2.2507  1.4438
  171SOPE   C3819376   1.061   4.463   7.569  0.3036  0.8127  0.1197
  171SOPE   H8X19377   0.987   4.523   7.511 -1.0114 -0.9601 -0.1391
  171SOPE   H8Y19378   1.147   4.524   7.604  0.9943 -1.1882  2.1491
  171SOPE   C3919379   0.994   4.415   7.691  0.3500  0.1853 -0.0693
  171SOPE   H9X19380   1.078   4.380   7.755 -1.0387 -0.2136  1.6148
  171SOPE   H9Y19381   0.926   4.330   7.671  0.8001  0.0832 -1.2418
  171SOPE  C31019382   0.916   4.529   7.759  0.2563 -0.1301 -0.6464
  171SOPE  H10X19383   0.816   4.547   7.713 -0.7556 -2.8484  0.2671
  171SOPE  H10Y19384   0.972   4.624   7.744 -1.0354  0.8057  0.1998
  171SOPE  C31119385   0.905   4.517   7.913 -0.6745  0.0652  0.2813
  171SOPE  H11X19386   1.001   4.487   7.961 -0.7547  0.1473  0.4926
  171SOPE  H11Y19387   0.840   4.430   7.932 -0.3707  0.0580  1.3764
  171SOPE  C31219388   0.843   4.640   7.988 -0.1472 -0.1986  0.1321
  171SOPE  H12X19389   0.772   4.681   7.913 -1.0872 -2.0055 -0.0308
  171SOPE  H12Y19390   0.931   4.706   8.002 -2.3728  2.9636  0.3103
  171SOPE  C31319391   0.789   4.610   8.125  0.3644 -0.6087  0.1401
  171SOPE  H13X19392   0.862   4.535   8.162  0.7726 -1.6531 -2.5245
  171SOPE  H13Y19393   0.698   4.546   8.121 -0.9844  1.1309  1.6931
  171SOPE  C31419394   0.767   4.729   8.210  0.5049 -0.0384  0.0983
  171SOPE  H14X19395   0.843   4.807   8.193  0.9914 -0.4686  0.2837
  171SOPE  H14Y19396   0.764   4.702   8.318  2.0420  0.7834  0.3721
  171SOPE  C31519397   0.625   4.798   8.195  0.2451  0.5268  0.2566
  171SOPE  H15X19398   0.550   4.720   8.221  0.8962  0.0397  0.7265
  171SOPE  H15Y19399   0.611   4.825   8.089  1.3358 -0.6231 -0.2138
  171SOPE  C31619400   0.593   4.914   8.285  0.8347 -0.5444  0.3378
  171SOPE  H16X19401   0.672   4.991   8.272  0.2516  0.3369  1.7692
  171SOPE  H16Y19402   0.576   4.864   8.383 -0.5227 -0.0298  0.3857
  171SOPE  C31719403   0.454   4.977   8.245  0.0481 -0.1127  0.3000
  171SOPE  H17X19404   0.448   4.967   8.134  1.6029 -1.1404  0.2747
  171SOPE  H17Y19405   0.457   5.086   8.265 -0.5437  0.1151 -0.7488
  171SOPE  C31819406   0.335   4.903   8.307  0.0228 -0.3733  0.3850
  171SOPE  H18X19407   0.341   4.909   8.418  1.0966 -1.2523  0.3958
  171SOPE  H18Y19408   0.321   4.795   8.286 -0.6315 -0.0444 -0.9493
  171SOPE  H18Z19409   0.240   4.951   8.276 -1.3015 -0.8675  3.3235
  172SOPE     N19410   1.916   6.643   6.520 -0.4632 -0.2258  0.0163
  172SOPE   HN119411   1.975   6.725   6.496  0.8655 -2.0238 -3.6166
  172SOPE   HN219412   1.947   6.553   6.477 -0.1827 -0.2705  0.3114
  172SOPE   HN319413   1.821   6.655   6.479  0.7796 -0.1556 -3.0870
  172SOPE   C1219414   1.900   6.604   6.665 -0.1809  0.3247  0.6305
  172SOPE  H12A19415   1.861   6.500   6.664  2.2692 -0.7035 -2.3884
  172SOPE  H12B19416   1.822   6.666   6.714  0.4951  0.2607  1.8408
  172SOPE   C1119417   2.036   6.615   6.736 -0.2020  0.1103 -0.7459
  172SOPE  H11A19418   2.023   6.604   6.845  0.2448  1.2051 -0.5625
  172SOPE  H11B19419   2.076   6.718   6.719  2.6067 -0.5397  1.1284
  172SOPE     P19420   2.149   6.388   6.748 -0.1425 -0.1324  0.1319
  172SOPE   O1319421   2.246   6.300   6.669  0.1939 -0.3402 -0.0910
  172SOPE   O1419422   2.018   6.338   6.779 -0.1038  0.0578  0.1445
  172SOPE   O1219423   2.130   6.528   6.682 -0.1246 -0.5268 -0.6645
  172SOPE   O1119424   2.217   6.422   6.881 -0.1771 -0.1403  0.2304
  172SOPE    C119425   2.350   6.482   6.878  0.3402  0.1960 -0.5368
  172SOPE    HA19426   2.355   6.568   6.809 -1.2279  0.6547 -0.1143
  172SOPE    HB19427   2.429   6.412   6.845  0.5898  0.8765 -1.4197
  172SOPE    C219428   2.405   6.524   7.014 -0.6684 -0.5797  0.2074
  172SOPE    HS19429   2.513   6.545   7.006 -0.1809 -2.9553 -0.0385
  172SOPE   O2119430   2.367   6.425   7.109  0.2256 -0.0479  0.4316
  172SOPE   C2119431   2.467   6.353   7.168 -0.0833  0.1084 -0.0914
  172SOPE   O2219432   2.584   6.373   7.141  0.3263 -0.6240  0.0596
  172SOPE   C2219433   2.400   6.268   7.266  0.0822  0.1261  0.2886
  172SOPE   H2R19434   2.326   6.202   7.216  1.2631 -0.0910 -1.2476
  172SOPE   H2S19435   2.334   6.337   7.323  0.4100 -0.5728  1.5627
  172SOPE    C319436   2.353   6.661   7.058 -0.4285 -0.7883 -0.3323
  172SOPE    HX19437   2.242   6.664   7.044 -0.5710  0.8405  0.8740
  172SOPE    HY19438   2.393   6.743   6.995  0.0175  0.8879  1.9807
  172SOPE   O3119439   2.383   6.683   7.192 -0.4095  0.2025 -0.1312
  172SOPE   C3119440   2.505   6.711   7.223  0.1445  0.2190 -0.0291
  172SOPE   O3219441   2.598   6.729   7.150 -0.0140  0.5119  0.0351
  172SOPE   C3219442   2.519   6.717   7.379 -0.4666 -0.1103  0.0017
  172SOPE   H2X19443   2.469   6.812   7.407 -0.5964  0.4327 -1.9667
  172SOPE   H2Y19444   2.627   6.725   7.406 -0.4131 -1.3145  0.1992
  172SOPE   C2319445   2.502   6.195   7.354 -0.7493  0.5327 -0.4204
  172SOPE   H3R19446   2.596   6.252   7.363 -0.5691  0.0801  0.7963
  172SOPE   H3S19447   2.525   6.095   7.310 -1.4495  0.1819 -0.0209
  172SOPE   C2419448   2.443   6.186   7.497 -0.0290 -0.3742  0.5808
  172SOPE   H4R19449   2.391   6.280   7.524  1.6109  0.9604 -0.6847
  172SOPE   H4S19450   2.370   6.102   7.496 -1.9421  1.2097 -0.6719
  172SOPE   C2519451   2.555   6.164   7.587 -0.0878 -0.2874  0.0558
  172SOPE   H5R19452   2.629   6.088   7.555  0.8000  0.7440 -0.3645
  172SOPE   H5S19453   2.616   6.256   7.590 -2.9161  1.8095 -1.4194
  172SOPE   C2619454   2.497   6.133   7.730 -0.3943 -0.0473  0.4309
  172SOPE   H6R19455   2.404   6.193   7.744 -0.1947  0.1401  0.9902
  172SOPE   H6S19456   2.464   6.027   7.727 -1.3113  0.2417 -0.2733
  172SOPE   C2719457   2.594   6.159   7.838 -0.5335  0.1430 -0.0837
  172SOPE   H7R19458   2.693   6.109   7.833 -0.6311 -0.1756  1.0444
  172SOPE   H7S19459   2.609   6.269   7.843 -0.0057  0.1868 -1.7410
  172SOPE   C2819460   2.530   6.122   7.970  0.4758  0.0330 -0.6443
  172SOPE   H8R19461   2.522   6.011   7.977 -0.3466  0.1702  1.6939
  172SOPE   H8S19462   2.607   6.150   8.045 -0.4213 -0.4379  0.4794
  172SOPE   C2919463   2.394   6.176   8.015 -0.7522 -0.5273 -0.2442
  172SOPE   H9119464   2.307   6.115   7.987 -1.0076 -0.1525 -0.2850
  172SOPE  C21019465   2.369   6.294   8.083 -0.5079  0.1254 -0.1963
  172SOPE  H10119466   2.266   6.317   8.111  0.0127  1.2264  0.9207
  172SOPE  C21119467   2.468   6.390   8.138 -0.1492 -0.3270  0.4239
  172SOPE  H11R19468   2.444   6.495   8.112 -0.2748 -0.9326 -2.2076
  172SOPE  H11S19469   2.566   6.369   8.090  0.9138  1.9485  1.4400
  172SOPE  C21219470   2.492   6.360   8.284  0.2065 -0.2481  0.9721
  172SOPE  H12R19471   2.528   6.256   8.293  1.2617 -0.1078 -0.9160
  172SOPE  H12S19472   2.407   6.385   8.351  0.3076  0.6067  0.8046
  172SOPE  C21319473   2.617   6.439   8.342  0.9034 -0.3734 -0.6301
  172SOPE  H13R19474   2.594   6.546   8.319 -0.8440 -0.1358  1.8178
  172SOPE  H13S19475   2.704   6.428   8.274  2.4286 -0.5354  1.2517
  172SOPE  C21419476   2.641   6.421   8.494 -0.4857 -0.3273 -0.6078
  172SOPE  H14R19477   2.683   6.320   8.514 -0.7496 -0.2617  0.3215
  172SOPE  H14S19478   2.545   6.418   8.551  0.2054 -2.3314  0.5485
  172SOPE  C21519479   2.732   6.514   8.566 -0.4259 -0.4995 -0.0665
  172SOPE  H15R19480   2.725   6.494   8.675 -0.3167  0.7065  0.1763
  172SOPE  H15S19481   2.681   6.613   8.569 -0.5768 -0.5626 -0.5141
  172SOPE  C21619482   2.873   6.526   8.506  0.0607 -0.0195  0.9227
  172SOPE  H16R19483   2.858   6.531   8.396  1.5094 -1.0320  0.6476
  172SOPE  H16S19484   2.923   6.432   8.537  0.1372 -0.4289 -0.3836
  172SOPE  C21719485   2.947   6.658   8.548  0.0812  0.5302 -0.1405
  172SOPE  H17R19486   2.878   6.740   8.520 -1.4520 -1.0968 -1.3781
  172SOPE  H17S19487   3.039   6.671   8.487  0.8965  1.1964  1.1820
  172SOPE  C21819488   2.992   6.658   8.691 -0.1144  0.0227 -0.3814
  172SOPE  H18R19489   3.064   6.574   8.695  0.8678  0.7161 -2.1522
  172SOPE  H18S19490   2.912   6.642   8.766  2.8215 -0.0125  2.9994
  172SOPE  H18T19491   3.056   6.744   8.721 -0.8476  0.1064  0.9899
  172SOPE   C3319492   2.471   6.581   7.439  0.1080 -0.5895 -0.0357
  172SOPE   H3X19493   2.548   6.501   7.431  0.8970 -0.0563  1.7554
  172SOPE   H3Y19494   2.381   6.546   7.385 -0.6617 -0.0996  0.9027
  172SOPE   C3419495   2.427   6.598   7.591  0.1311  0.0581 -0.0844
  172SOPE   H4X19496   2.370   6.505   7.612  0.9235 -0.8745 -1.8219
  172SOPE   H4Y19497   2.376   6.696   7.604  3.2843  1.9321 -0.7115
  172SOPE   C3519498   2.548   6.587   7.686  0.2389  0.0718 -0.6267
  172SOPE   H5X19499   2.630   6.644   7.638  0.5946  1.1430  1.1357
  172SOPE   H5Y19500   2.584   6.481   7.692 -1.3842 -0.4407  1.3367
  172SOPE   C3619501   2.519   6.642   7.825  0.3558 -0.3783  0.3179
  172SOPE   H6X19502   2.423   6.601   7.864 -1.9539  0.6459 -3.7646
  172SOPE   H6Y19503   2.503   6.752   7.825 -0.1564 -0.4500  0.0431
  172SOPE   C3719504   2.644   6.623   7.910  0.4172 -0.2453  0.2434
  172SOPE   H7X19505   2.736   6.642   7.850 -0.0039  0.0661 -0.2996
  172SOPE   H7Y19506   2.653   6.517   7.943 -0.1592  0.1342  1.7287
  172SOPE   C3819507   2.671   6.730   8.017  0.2417  0.0400 -0.2093
  172SOPE   H8X19508   2.597   6.725   8.100  0.9242 -0.0668  0.4088
  172SOPE   H8Y19509   2.659   6.832   7.976  0.0339  0.6319  1.2454
  172SOPE   C3919510   2.813   6.732   8.071 -0.5823 -0.4180  0.5386
  172SOPE   H9X19511   2.869   6.753   7.978 -3.3784 -2.2502 -1.7279
  172SOPE   H9Y19512   2.850   6.631   8.100  0.8633  0.3046  1.3165
  172SOPE  C31019513   2.844   6.834   8.188  0.1385  0.3961  0.0044
  172SOPE  H10X19514   2.951   6.831   8.218 -0.1940 -1.2880  1.1696
  172SOPE  H10Y19515   2.790   6.799   8.279  1.3901 -0.2885  0.5102
  172SOPE  C31119516   2.806   6.978   8.152  0.2716 -0.0380  0.2797
  172SOPE  H11X19517   2.702   7.004   8.179 -0.2785  1.0346 -2.5243
  172SOPE  H11Y19518   2.824   6.994   8.043  0.8468 -0.0892  0.3639
  172SOPE  C31219519   2.902   7.079   8.223  0.1639 -0.0947 -0.3120
  172SOPE  H12X19520   3.004   7.041   8.201  0.5466 -0.5623  2.0222
  172SOPE  H12Y19521   2.889   7.085   8.333  1.3752  3.3664 -0.2368
  172SOPE  C31319522   2.895   7.219   8.171 -0.0347 -0.7658  0.0803
  172SOPE  H13X19523   2.792   7.252   8.195 -0.0051  0.0639 -0.8692
  172SOPE  H13Y19524   2.904   7.223   8.060  0.2211  0.7822  0.1376
  172SOPE  C31419525   2.996   7.320   8.224 -1.1125  0.1690  0.0530
  172SOPE  H14X19526   2.965   7.418   8.182 -1.5765  0.4020  0.9182
  172SOPE  H14Y19527   3.101   7.296   8.195 -0.2131  2.7658  0.8256
  172SOPE  C31519528   2.985   7.332   8.380  0.3470  0.7102  0.2936
  172SOPE  H15X19529   3.043   7.244   8.416  0.3022  0.0049 -1.2616
  172SOPE  H15Y19530   2.883   7.321   8.424 -0.2969  1.3440 -0.9787
  172SOPE  C31619531   3.053   7.455   8.430  0.3204 -0.3209 -0.1992
  172SOPE  H16X19532   2.993   7.545   8.405 -0.4106 -1.3305 -2.3934
  172SOPE  H16Y19533   3.151   7.474   8.380  1.1798  1.0103  1.8510
  172SOPE  C31719534   3.087   7.450   8.577 -0.0528  0.5004  1.3300
  172SOPE  H17X19535   3.140   7.545   8.599  1.5581 -0.0973  0.2065
  172SOPE  H17Y19536   3.157   7.365   8.596  0.8359  0.9980  0.3552
  172SOPE  C31819537   2.970   7.446   8.670  0.3178  0.5605 -0.8072
  172SOPE  H18X19538   3.006   7.443   8.775  1.6518 -3.3958 -1.2027
  172SOPE  H18Y19539   2.902   7.358   8.657  0.7824  0.1186 -0.3090
  172SOPE  H18Z19540   2.913   7.540   8.654  0.1094  0.8912  1.5330
  173SAPI   C1219541   4.733   1.628  10.806  0.0321  0.0463 -0.5053
  173SAPI    H219542   4.774   1.607  10.908 -0.1632  1.5807 -0.0779
  173SAPI    O219543   4.710   1.500  10.744 -0.4394  0.2846 -0.0387
  173SAPI   HO219544   4.796   1.463  10.723  0.7472  1.9191  1.5637
  173SAPI   C1319545   4.603   1.706  10.824 -0.0960  0.1643 -0.0693
  173SAPI    H319546   4.635   1.797  10.879  0.7389 -0.2793  0.1913
  173SAPI    O319547   4.516   1.641  10.919 -0.0849 -0.2791 -0.1586
  173SAPI   HO319548   4.507   1.552  10.886 -0.0601 -0.4998  0.4296
  173SAPI   C1419549   4.539   1.741  10.689  0.0076 -0.2251  0.5758
  173SAPI    H419550   4.513   1.648  10.634  0.0781 -0.7161  1.3454
  173SAPI    O419551   4.412   1.800  10.708  0.4306 -0.2674 -0.1094
  173SAPI   HO419552   4.408   1.884  10.661  0.1071  2.2275  3.9473
  173SAPI   C1519553   4.626   1.823  10.606 -1.4110  0.0164 -0.6948
  173SAPI    H519554   4.642   1.921  10.656 -0.1185 -0.2484 -0.5571
  173SAPI    O519555   4.561   1.854  10.481  0.1708 -0.1231 -0.1711
  173SAPI   HO519556   4.520   1.938  10.500 -0.2260 -0.3327 -0.0824
  173SAPI   C1619557   4.766   1.748  10.596  1.9341 -0.2459 -0.9299
  173SAPI    H619558   4.743   1.654  10.541 -1.5756  0.1109 -0.2927
  173SAPI    O619559   4.861   1.821  10.524 -0.0927 -0.6426 -0.0508
  173SAPI   HO619560   4.942   1.770  10.528  0.2032 -0.2779 -1.0304
  173SAPI   C1119561   4.825   1.719  10.732  0.8579 -0.8773 -0.0654
  173SAPI    H119562   4.837   1.812  10.790 -1.5115 -0.5429 -0.0108
  173SAPI     P19563   5.093   1.711  10.744  0.1365 -0.1333 -0.0217
  173SAPI   O1319564   5.176   1.601  10.798 -1.1325  0.2858  0.1122
  173SAPI   O1419565   5.084   1.836  10.827  0.4695 -0.9236 -0.1118
  173SAPI   O1219566   4.942   1.648  10.721 -0.4953 -0.6365  0.3080
  173SAPI   O1119567   5.138   1.743  10.600 -0.0815 -0.5301  0.3139
  173SAPI    C119568   5.189   1.639  10.517  0.7930 -0.3911  0.2021
  173SAPI    HA19569   5.293   1.626  10.553  0.1208  0.1036  2.4877
  173SAPI    HB19570   5.121   1.551  10.515  2.2852 -1.6474 -3.2526
  173SAPI    C219571   5.210   1.686  10.366  0.7952  0.0277  0.1611
  173SAPI    HS19572   5.243   1.792  10.376 -0.3648  0.2874  1.4721
  173SAPI   O2119573   5.082   1.667  10.304 -0.1702 -0.1622 -0.0986
  173SAPI   C2119574   5.048   1.783  10.233 -0.6030  0.3300 -0.0088
  173SAPI   O2219575   5.127   1.872  10.210  0.1378 -0.1100 -0.4733
  173SAPI   C2219576   4.907   1.773  10.181 -0.8688 -0.4309 -0.1040
  173SAPI   H2R19577   4.837   1.770  10.268  1.0187 -1.6866  1.4573
  173SAPI   H2S19578   4.890   1.876  10.144  0.3448  0.7405  2.3734
  173SAPI    C319579   5.315   1.601  10.295  0.3302  0.2141 -0.6855
  173SAPI    HX19580   5.292   1.496  10.324 -2.7403  0.8464 -0.4125
  173SAPI    HY19581   5.406   1.627  10.352  0.3586 -1.3498  0.0348
  173SAPI   O3119582   5.306   1.616  10.156  0.3667  0.0818 -0.3947
  173SAPI   C3119583   5.389   1.712  10.112  0.7062  0.1824  0.6811
  173SAPI   O3219584   5.468   1.775  10.175 -0.1171 -0.3659 -0.5865
  173SAPI   C3219585   5.349   1.733   9.964  0.2653  0.5759 -0.2980
  173SAPI   H2X19586   5.257   1.797   9.963  0.6664  1.2988  2.3734
  173SAPI   H2Y19587   5.330   1.632   9.921  0.6663  0.9538 -1.3791
  173SAPI   C2319588   4.883   1.657  10.070 -0.8018 -0.2309 -0.0405
  173SAPI   H3R19589   4.781   1.651  10.026 -0.0708  0.2167 -1.9066
  173SAPI   H3S19590   4.896   1.553  10.107 -3.5417 -2.4088 -4.3806
  173SAPI   C2419591   4.972   1.672   9.948  0.4206 -0.0043  0.2057
  173SAPI   H4R19592   4.961   1.580   9.886 -1.3996 -0.3656  1.0015
  173SAPI   H4S19593   5.078   1.677   9.979  1.2261  2.3569 -2.4599
  173SAPI   C2519594   4.937   1.801   9.877 -0.1485 -0.3199 -0.2138
  173SAPI   H5R19595   4.958   1.890   9.938  1.5109 -1.6847  1.3038
  173SAPI   C2619596   4.900   1.815   9.753  0.3221  0.0026  0.9562
  173SAPI   H6R19597   4.869   1.917   9.724 -3.3940 -1.8117 -2.5155
  173SAPI   C2719598   4.873   1.708   9.645  0.1756  0.0925 -0.3280
  173SAPI   H7R19599   4.803   1.739   9.565  0.7738  0.0016 -0.8980
  173SAPI   H7S19600   4.829   1.613   9.681  0.4516 -1.0378 -2.7881
  173SAPI   C2819601   4.992   1.657   9.565  0.4868 -0.2660  0.0336
  173SAPI   H8R19602   4.990   1.547   9.561  1.6698 -0.3690  1.3752
  173SAPI   C2919603   5.079   1.723   9.485  0.5660  0.2301  0.3290
  173SAPI   H9R19604   5.168   1.680   9.436  0.4498  1.9312 -1.4919
  173SAPI  C21019605   5.060   1.871   9.454  0.2096 -0.4453 -0.9377
  173SAPI  H10R19606   5.157   1.911   9.418 -0.6972  1.0052 -1.8982
  173SAPI  H10S19607   5.055   1.928   9.549 -0.8456 -1.2266 -0.4982
  173SAPI  C21119608   4.938   1.914   9.369  0.0562  0.4054  0.0507
  173SAPI  H11R19609   4.846   1.932   9.427  1.6746 -0.2772  2.9789
  173SAPI  C21219610   4.933   1.934   9.237 -0.4016  0.4037  0.2847
  173SAPI  H12R19611   4.836   1.951   9.188 -0.1977  0.5038 -0.0853
  173SAPI  C21319612   5.045   1.931   9.133 -0.0657 -0.1488 -0.3238
  173SAPI  H13R19613   5.025   1.860   9.051  3.4056  0.2923 -1.7308
  173SAPI  H13S19614   5.143   1.888   9.164 -0.2596 -1.4899 -1.4845
  173SAPI  C21419615   5.072   2.068   9.073 -0.4343 -0.7846  0.4361
  173SAPI  H14R19616   5.066   2.156   9.139 -1.2436 -1.0131  0.6741
  173SAPI  C21519617   5.125   2.099   8.946  0.1237  0.7464 -0.3202
  173SAPI  H15R19618   5.128   2.204   8.914 -0.7365  1.1809  0.9361
  173SAPI  C21619619   5.154   1.995   8.841 -0.4814  0.3869 -0.5178
  173SAPI  H16R19620   5.193   1.898   8.880 -2.3349 -0.9676 -1.8520
  173SAPI  H16S19621   5.241   2.034   8.783 -2.2127  2.5930 -1.7767
  173SAPI  C21719622   5.027   1.970   8.761 -0.3614 -0.7795  0.2628
  173SAPI  H17R19623   4.976   2.069   8.750  2.0907  0.5921  0.5463
  173SAPI  H17S19624   4.961   1.895   8.809  1.5167 -3.2041 -0.7806
  173SAPI  C21819625   5.045   1.917   8.619 -0.0098  0.0838  0.2251
  173SAPI  H18R19626   5.113   1.831   8.598  2.6029  2.2858 -1.0607
  173SAPI  H18S19627   5.097   2.002   8.568 -0.1570  0.9155  1.4308
  173SAPI  C21919628   4.911   1.881   8.553 -0.7595  0.9673 -0.0164
  173SAPI  H19R19629   4.836   1.960   8.570 -1.2908  0.1175  1.8608
  173SAPI  H19S19630   4.888   1.787   8.606  0.2592  0.7937  0.1501
  173SAPI  C22019631   4.914   1.843   8.401  0.4753 -0.7666 -0.7247
  173SAPI  H20R19632   4.939   1.930   8.336  0.2349  0.5432  0.8749
  173SAPI  H20S19633   4.808   1.817   8.380 -0.4173  2.3435 -0.5103
  173SAPI  H20T19634   4.975   1.750   8.393  2.2477  0.3039 -0.2596
  173SAPI   C3319635   5.453   1.795   9.873 -0.0313  0.5231  0.1976
  173SAPI   H3X19636   5.545   1.736   9.851  0.0497  1.1441 -1.2097
  173SAPI   H3Y19637   5.480   1.899   9.898  1.1555  0.3861 -0.4309
  173SAPI   C3419638   5.403   1.788   9.724 -0.3261  0.1208  0.1796
  173SAPI   H4X19639   5.319   1.861   9.717  1.4669  2.3786  1.0879
  173SAPI   H4Y19640   5.364   1.688   9.697 -0.6906  0.2618  0.1726
  173SAPI   C3519641   5.512   1.826   9.617  0.2843  0.5841 -0.1122
  173SAPI   H5X19642   5.580   1.739   9.609  0.5366  0.8474 -0.9591
  173SAPI   H5Y19643   5.580   1.908   9.648 -0.0015  0.7162  0.1780
  173SAPI   C3619644   5.441   1.854   9.486  0.0440  0.2563 -0.3266
  173SAPI   H6X19645   5.399   1.957   9.487 -0.3379  0.1077  1.4571
  173SAPI   H6Y19646   5.355   1.785   9.473  1.3495 -1.3469 -0.7915
  173SAPI   C3719647   5.520   1.837   9.353  0.3145 -0.6470 -0.3617
  173SAPI   H7X19648   5.560   1.734   9.359 -3.4127 -2.3161 -1.2491
  173SAPI   H7Y19649   5.610   1.901   9.366  0.8096 -1.2963 -0.5570
  173SAPI   C3819650   5.445   1.849   9.223 -0.2863  0.5934 -1.0136
  173SAPI   H8X19651   5.411   1.953   9.202 -0.2313  0.8896  0.2712
  173SAPI   H8Y19652   5.351   1.790   9.214 -2.0505  3.2569 -1.5885
  173SAPI   C3919653   5.543   1.806   9.117 -0.0156  0.1604  0.9480
  173SAPI   H9X19654   5.568   1.699   9.136 -2.4029 -0.4000  1.2390
  173SAPI   H9Y19655   5.632   1.872   9.112  0.2724 -0.2951 -0.7901
  173SAPI  C31019656   5.484   1.816   8.972 -0.1085  0.2429 -0.4225
  173SAPI  H10X19657   5.457   1.923   8.957  0.1069  0.7259  2.0800
  173SAPI  H10Y19658   5.394   1.752   8.968  1.1837 -1.5832 -1.7941
  173SAPI  C31119659   5.592   1.773   8.878  1.0154 -0.6837  0.0121
  173SAPI  H11X19660   5.615   1.664   8.887  0.1783 -0.8677  0.0203
  173SAPI  H11Y19661   5.686   1.822   8.912  1.4010 -1.4093  0.0246
  173SAPI  C31219662   5.559   1.818   8.733 -0.3857  0.2010  0.6797
  173SAPI  H12X19663   5.584   1.922   8.700  0.5350 -0.4272 -0.7140
  173SAPI  H12Y19664   5.451   1.823   8.708 -0.0222 -1.5444 -1.5407
  173SAPI  C31319665   5.620   1.707   8.641 -0.7045  0.4082 -0.3061
  173SAPI  H13X19666   5.544   1.626   8.648 -0.7436  0.5062  0.5132
  173SAPI  H13Y19667   5.717   1.671   8.681 -0.9817 -2.2418 -1.7792
  173SAPI  C31419668   5.640   1.742   8.496 -0.1125 -0.0613 -0.3844
  173SAPI  H14X19669   5.712   1.825   8.487 -0.0418 -0.1638 -0.7889
  173SAPI  H14Y19670   5.545   1.777   8.449 -1.1771 -1.0866  0.8988
  173SAPI  C31519671   5.687   1.612   8.426  0.2369 -0.0013  0.0774
  173SAPI  H15X19672   5.775   1.571   8.481  1.6935  0.6454 -1.6713
  173SAPI  H15Y19673   5.732   1.639   8.328 -0.7940 -0.2377 -0.4668
  173SAPI  C31619674   5.577   1.505   8.414  0.4193 -0.7645 -0.0448
  173SAPI  H16X19675   5.488   1.564   8.382  1.4526  1.9038  1.6596
  173SAPI  H16Y19676   5.566   1.465   8.517 -0.6593 -1.4016 -0.3830
  173SAPI  C31719677   5.619   1.400   8.316  0.2718 -0.2531  0.4716
  173SAPI  H17X19678   5.692   1.337   8.372  0.0753 -1.3925 -0.4947
  173SAPI  H17Y19679   5.667   1.441   8.224 -1.3962 -1.6709 -1.1140
  173SAPI  C31819680   5.511   1.309   8.277 -0.7539  0.6941  0.7102
  173SAPI  H18X19681   5.412   1.360   8.276 -2.7755 -2.9204  0.6465
  173SAPI  H18Y19682   5.504   1.216   8.338 -0.8895  0.0366 -0.2908
  173SAPI  H18Z19683   5.521   1.271   8.173  0.8910 -0.5381  1.2803
  174SAPI   C1219684   3.449   4.141  10.958 -0.1304  0.3594 -0.2253
  174SAPI    H219685   3.557   4.114  10.957 -0.0960  0.3691  1.2341
  174SAPI    O219686   3.391   4.113  11.084  0.0144  0.3319  0.1006
  174SAPI   HO219687   3.423   4.028  11.116 -2.2583 -0.6106  0.0853
  174SAPI   C1319688   3.456   4.296  10.945 -0.4716  0.3927  0.7380
  174SAPI    H319689   3.515   4.303  10.851 -2.3153  1.2342 -0.4055
  174SAPI    O319690   3.536   4.343  11.057  0.4633 -0.5347 -0.3351
  174SAPI   HO319691   3.489   4.309  11.133 -0.2183  0.7596 -0.1454
  174SAPI   C1419692   3.312   4.344  10.927 -0.3023  0.2588  0.3260
  174SAPI    H419693   3.264   4.322  11.025  1.6556 -3.2400  0.6880
  174SAPI    O419694   3.315   4.485  10.905 -0.1025 -0.0035  0.7337
  174SAPI   HO419695   3.226   4.520  10.909 -0.7611 -0.8373 -2.7641
  174SAPI   C1519696   3.236   4.270  10.813  0.1077 -0.0711  0.0809
  174SAPI    H519697   3.292   4.300  10.723  0.7714 -0.3551  0.3959
  174SAPI    O519698   3.103   4.319  10.798  0.1841 -0.2063 -0.5400
  174SAPI   HO519699   3.100   4.409  10.763 -2.0650 -0.0268 -0.0128
  174SAPI   C1619700   3.244   4.120  10.827  0.5670  0.3982  0.2901
  174SAPI    H619701   3.184   4.095  10.918  0.7302  3.2652  1.3198
  174SAPI    O619702   3.189   4.061  10.708  0.2306  0.1682 -0.4000
  174SAPI   HO619703   3.147   3.977  10.728 -0.2378  0.2453 -1.0190
  174SAPI   C1119704   3.389   4.068  10.846 -0.1436 -0.1534  0.0011
  174SAPI    H119705   3.442   4.105  10.756 -0.6169 -1.3042 -0.7784
  174SAPI     P19706   3.535   3.847  10.838  0.0819  0.3335 -0.5536
  174SAPI   O1319707   3.545   3.746  10.943  0.6434 -0.1696 -0.1646
  174SAPI   O1419708   3.649   3.951  10.836  0.2008  0.3435 -0.0729
  174SAPI   O1219709   3.396   3.929  10.871  0.5405 -0.2256 -0.0095
  174SAPI   O1119710   3.518   3.776  10.698 -0.5976  0.0605  0.4554
  174SAPI    C119711   3.465   3.838  10.586 -0.4071 -0.5859 -0.1214
  174SAPI    HA19712   3.387   3.775  10.538 -0.9699 -1.8049  2.2552
  174SAPI    HB19713   3.424   3.939  10.611 -3.2395 -0.8622 -2.9677
  174SAPI    C219714   3.569   3.881  10.477 -0.8912 -0.1839 -0.7397
  174SAPI    HS19715   3.506   3.910  10.390 -0.6910 -1.4017 -1.3226
  174SAPI   O2119716   3.656   3.774  10.446 -0.0962 -0.4601  0.7091
  174SAPI   C2119717   3.607   3.677  10.370  0.3886  0.4629 -0.1204
  174SAPI   O2219718   3.493   3.668  10.327  0.4425  0.1299 -0.0364
  174SAPI   C2219719   3.716   3.576  10.345 -0.1108  0.0855 -0.2482
  174SAPI   H2R19720   3.802   3.622  10.291  0.9435 -1.1713  0.2961
  174SAPI   H2S19721   3.758   3.552  10.445 -0.6284 -1.0563 -0.2838
  174SAPI    C319722   3.662   4.007  10.497  0.2811 -0.8154 -0.4301
  174SAPI    HX19723   3.740   3.978  10.570  1.2130 -0.7251 -1.3624
  174SAPI    HY19724   3.596   4.080  10.549  0.5846 -2.4102  2.3719
  174SAPI   O3119725   3.701   4.054  10.369 -0.9573 -0.6005 -0.4862
  174SAPI   C3119726   3.827   4.019  10.337  0.6310 -0.5172  0.7846
  174SAPI   O3219727   3.907   3.968  10.410 -0.4431 -0.7368  0.0879
  174SAPI   C3219728   3.842   4.039  10.186  0.0841 -0.3713 -0.1293
  174SAPI   H2X19729   3.910   4.125  10.169 -2.6421  2.2790  1.4246
  174SAPI   H2Y19730   3.747   4.067  10.137  0.6905  0.7388 -0.7210
  174SAPI   C2319731   3.673   3.449  10.261  0.3941 -0.1359 -0.0836
  174SAPI   H3R19732   3.586   3.416  10.323  0.2968  1.1859  0.5351
  174SAPI   H3S19733   3.743   3.364  10.275 -0.7868 -1.0781  0.3409
  174SAPI   C2419734   3.648   3.478  10.111  0.0966 -0.5295  0.8972
  174SAPI   H4R19735   3.567   3.553  10.111 -0.0033 -0.5791 -1.1310
  174SAPI   H4S19736   3.607   3.391  10.056  0.4729  0.0941 -0.3889
  174SAPI   C2519737   3.770   3.516  10.034  0.0650  0.4856  0.2360
  174SAPI   H5R19738   3.860   3.538  10.093  0.9975 -3.5400  0.5838
  174SAPI   C2619739   3.787   3.505   9.899 -0.3967  0.6585  0.1657
  174SAPI   H6R19740   3.880   3.546   9.856 -1.0063  4.2163  1.8765
  174SAPI   C2719741   3.691   3.441   9.802 -0.1563 -0.2234  0.0372
  174SAPI   H7R19742   3.590   3.433   9.847 -0.4657 -0.9320 -0.7583
  174SAPI   H7S19743   3.734   3.346   9.764  0.3749  0.0177  0.0220
  174SAPI   C2819744   3.679   3.540   9.689  0.3489  0.8291  0.7298
  174SAPI   H8R19745   3.689   3.647   9.715 -0.1652  1.2027 -0.5381
  174SAPI   C2919746   3.654   3.514   9.560 -0.9739  0.0712 -0.0787
  174SAPI   H9R19747   3.655   3.606   9.500 -0.6267  0.2768  0.2402
  174SAPI  C21019748   3.631   3.375   9.495  0.5409 -0.4310 -0.0787
  174SAPI  H10R19749   3.546   3.384   9.424 -0.5546 -1.5542  1.0352
  174SAPI  H10S19750   3.605   3.308   9.580  0.8241 -1.2714 -0.6448
  174SAPI  C21119751   3.746   3.320   9.410 -1.1511 -0.1993 -0.7725
  174SAPI  H11R19752   3.832   3.291   9.472 -0.7739  1.7017 -0.3479
  174SAPI  C21219753   3.742   3.309   9.274  0.0553 -0.6026 -0.6095
  174SAPI  H12R19754   3.827   3.261   9.224  1.6038  1.7545 -0.4260
  174SAPI  C21319755   3.626   3.354   9.184  0.2927  0.1646  0.9156
  174SAPI  H13R19756   3.531   3.320   9.230 -0.5244  2.5305  1.0996
  174SAPI  H13S19757   3.646   3.312   9.083 -0.2102  3.2397 -0.5660
  174SAPI  C21419758   3.606   3.496   9.172  0.9171  0.1486  0.2225
  174SAPI  H14R19759   3.636   3.554   9.260  0.0623  0.0133  0.6163
  174SAPI  C21519760   3.545   3.562   9.073  0.0077  0.8332  0.2840
  174SAPI  H15R19761   3.526   3.669   9.093  0.3781  0.6976  1.4685
  174SAPI  C21619762   3.489   3.507   8.945 -0.2264  0.4209 -0.0059
  174SAPI  H16R19763   3.377   3.509   8.948 -0.2525 -0.7128  0.6929
  174SAPI  H16S19764   3.527   3.403   8.940  0.3050  0.5603  0.8781
  174SAPI  C21719765   3.550   3.575   8.820 -0.8779  0.4490  0.1816
  174SAPI  H17R19766   3.660   3.564   8.833 -1.1980 -2.2747  1.3870
  174SAPI  H17S19767   3.517   3.679   8.802  0.3808  0.5544 -1.9277
  174SAPI  C21819768   3.511   3.492   8.695  0.5123  0.5398 -0.1607
  174SAPI  H18R19769   3.401   3.478   8.699  0.5678  0.2586  0.4717
  174SAPI  H18S19770   3.568   3.397   8.703 -0.4899 -0.0930 -0.4049
  174SAPI  C21919771   3.550   3.564   8.564 -0.0138 -0.3158  0.0105
  174SAPI  H19R19772   3.526   3.672   8.569  0.1753 -0.2589 -0.2735
  174SAPI  H19S19773   3.494   3.512   8.484  0.6934 -1.2550  0.1003
  174SAPI  C22019774   3.702   3.562   8.526  0.1652  0.1582 -0.1036
  174SAPI  H20R19775   3.759   3.564   8.622 -0.6675 -0.4783  0.4231
  174SAPI  H20S19776   3.733   3.646   8.461  3.0590 -1.1593 -0.6020
  174SAPI  H20T19777   3.716   3.467   8.470 -2.1983  0.0789 -0.6740
  174SAPI   C3319778   3.906   3.914  10.120 -0.7096  0.3246 -0.6476
  174SAPI   H3X19779   3.843   3.823  10.133  2.1161 -1.5680  1.1223
  174SAPI   H3Y19780   4.005   3.885  10.160 -1.2355 -0.6889 -0.0328
  174SAPI   C3419781   3.927   3.931   9.969 -0.2987  0.4864 -0.3554
  174SAPI   H4X19782   3.953   4.038   9.955 -1.5774  1.2296  2.3196
  174SAPI   H4Y19783   3.829   3.915   9.917  0.1479  2.1185 -1.7993
  174SAPI   C3519784   4.035   3.849   9.904  0.1267 -0.1601 -0.7538
  174SAPI   H5X19785   4.062   3.763   9.969 -2.0872 -1.2413 -1.1804
  174SAPI   H5Y19786   4.123   3.916   9.897  0.1989 -0.1645  0.0149
  174SAPI   C3619787   4.005   3.799   9.759  0.4186 -0.0165  0.0740
  174SAPI   H6X19788   3.965   3.882   9.696 -0.6409 -0.4019  0.2213
  174SAPI   H6Y19789   3.921   3.729   9.778  0.4749  0.8293  4.6441
  174SAPI   C3719790   4.117   3.727   9.679  0.3043  0.4612 -0.8550
  174SAPI   H7X19791   4.167   3.654   9.746  0.6146  0.6473 -0.8800
  174SAPI   H7Y19792   4.189   3.800   9.636 -0.5587  2.1939  0.5090
  174SAPI   C3819793   4.068   3.649   9.551 -0.0345  0.3091  0.2037
  174SAPI   H8X19794   4.009   3.561   9.582 -2.0737  1.2959 -0.6689
  174SAPI   H8Y19795   4.159   3.603   9.507 -0.5490 -0.7944  0.2626
  174SAPI   C3919796   3.987   3.728   9.442  0.2937  0.4755  0.1860
  174SAPI   H9X19797   4.029   3.831   9.446  0.2729  0.4612  1.1128
  174SAPI   H9Y19798   3.881   3.734   9.476  1.0053  0.0611  2.7364
  174SAPI  C31019799   3.985   3.663   9.307 -0.6527  0.0180 -0.3340
  174SAPI  H10X19800   3.923   3.572   9.313 -0.9555  0.3152  1.3600
  174SAPI  H10Y19801   4.090   3.639   9.278 -1.0545  0.5762 -2.4882
  174SAPI  C31119802   3.916   3.755   9.201 -0.2664 -0.1226  0.0597
  174SAPI  H11X19803   3.980   3.845   9.202 -1.1744  0.5388  0.0068
  174SAPI  H11Y19804   3.810   3.776   9.230 -0.7152 -0.0307 -1.5462
  174SAPI  C31219805   3.906   3.694   9.062 -0.3032 -0.0041 -0.2816
  174SAPI  H12X19806   3.850   3.769   9.003  0.8272 -0.1170 -1.5325
  174SAPI  H12Y19807   3.859   3.593   9.059 -2.2617  0.6645  2.9119
  174SAPI  C31319808   4.045   3.672   8.993 -0.1884  0.2344  0.3850
  174SAPI  H13X19809   4.115   3.612   9.054  1.5257 -0.7744 -2.4300
  174SAPI  H13Y19810   4.089   3.773   8.978 -1.0898  0.9381  2.0602
  174SAPI  C31419811   4.033   3.606   8.857 -0.5011  0.3586 -0.7226
  174SAPI  H14X19812   3.983   3.676   8.786 -0.4421  2.1397  0.9135
  174SAPI  H14Y19813   3.970   3.515   8.864  0.2648 -0.1683 -0.4697
  174SAPI  C31519814   4.166   3.561   8.794 -1.4166  0.7220  0.3833
  174SAPI  H15X19815   4.208   3.480   8.858 -3.4208  0.8581  1.9916
  174SAPI  H15Y19816   4.229   3.650   8.813 -3.3694  1.5924  3.5982
  174SAPI  C31619817   4.166   3.542   8.641  0.1079  0.2776  0.5703
  174SAPI  H16X19818   4.270   3.546   8.600  0.3916  1.1837  1.3487
  174SAPI  H16Y19819   4.105   3.621   8.593 -0.7288 -1.5717 -1.6280
  174SAPI  C31719820   4.104   3.407   8.601  0.1536  0.5230  0.2157
  174SAPI  H17X19821   4.026   3.388   8.677 -0.2234  0.8125 -0.0942
  174SAPI  H17Y19822   4.176   3.323   8.611 -1.1833 -0.9809 -2.0169
  174SAPI  C31819823   4.058   3.411   8.459 -0.3238 -0.2480  0.1302
  174SAPI  H18X19824   4.012   3.507   8.430 -0.8945 -0.7408 -0.6311
  174SAPI  H18Y19825   3.981   3.333   8.438  1.6937 -2.2182 -0.3013
  174SAPI  H18Z19826   4.137   3.392   8.384 -0.3489 -0.9376  0.2691
  175SAPI   C1219827   2.882   3.052   5.934 -0.2290  0.5873 -0.6681
  175SAPI    H219828   2.953   3.136   5.947  1.3259 -0.2450 -3.0121
  175SAPI    O219829   2.757   3.074   6.000 -0.5225  0.5294  0.0737
  175SAPI   HO219830   2.742   2.990   6.044 -3.1818  0.2925 -1.1157
  175SAPI   C1319831   2.867   3.057   5.785 -0.1754  0.3110  0.3248
  175SAPI    H319832   2.970   3.044   5.746  0.1113  1.0666  0.8084
  175SAPI    O319833   2.809   3.185   5.747  0.1897 -0.1231  0.7617
  175SAPI   HO319834   2.822   3.192   5.652 -0.1616 -1.9260  0.5435
  175SAPI   C1419835   2.784   2.944   5.734  0.3454  0.1095  0.6169
  175SAPI    H419836   2.685   2.960   5.781 -1.3267  0.2231 -2.6794
  175SAPI    O419837   2.767   2.953   5.592  0.3935 -0.0886  0.7495
  175SAPI   HO419838   2.855   2.948   5.554  0.9465 -1.4432  2.1009
  175SAPI   C1519839   2.849   2.812   5.781 -0.4867  1.0155  0.9661
  175SAPI    H519840   2.944   2.782   5.733 -1.4241 -1.2493  0.3620
  175SAPI    O519841   2.763   2.703   5.727  0.2263 -0.2946  0.2720
  175SAPI   HO519842   2.805   2.668   5.648 -0.8819  2.8296 -1.9172
  175SAPI   C1619843   2.874   2.806   5.927 -0.0654  0.6792 -1.3305
  175SAPI    H619844   2.782   2.806   5.989  0.5583 -0.0228 -0.3663
  175SAPI    O619845   2.945   2.684   5.952  0.1987 -0.1262  0.4652
  175SAPI   HO619846   2.931   2.652   6.041 -3.1928 -0.8921 -0.2093
  175SAPI   C1119847   2.957   2.923   5.970  0.1080  0.3022  0.2205
  175SAPI    H119848   3.053   2.917   5.915  1.2491  2.4247  1.8052
  175SAPI     P19849   3.101   3.020   6.186  0.0345 -0.3172 -0.2390
  175SAPI   O1319850   3.028   3.080   6.300  0.0439 -0.1995 -0.2266
  175SAPI   O1419851   3.167   3.107   6.087  0.1088  0.1006 -0.3741
  175SAPI   O1219852   2.997   2.921   6.104 -0.3285 -0.0324 -0.1059
  175SAPI   O1119853   3.205   2.925   6.248  0.5148  0.2552  0.3026
  175SAPI    C119854   3.181   2.785   6.281  0.4309 -0.0049  0.1691
  175SAPI    HA19855   3.143   2.731   6.192  2.6047  0.5220 -1.1711
  175SAPI    HB19856   3.282   2.741   6.295  0.4040  0.5422  2.5870
  175SAPI    C219857   3.110   2.760   6.413 -0.1440 -0.4481  0.5473
  175SAPI    HS19858   3.002   2.754   6.387  0.0306  0.0494 -0.3458
  175SAPI   O2119859   3.140   2.868   6.506 -0.4433  0.4530  0.7122
  175SAPI   C2119860   3.062   2.875   6.604 -0.4145  0.2812 -0.7386
  175SAPI   O2219861   2.970   2.806   6.630  0.2046  1.1421  0.5384
  175SAPI   C2219862   3.093   2.995   6.693  0.2440 -0.5351 -0.1498
  175SAPI   H2R19863   3.202   2.996   6.715 -0.1385 -0.3510  1.9200
  175SAPI   H2S19864   3.052   3.088   6.649  0.2657 -1.0787 -1.3386
  175SAPI    C319865   3.152   2.626   6.469  0.2140 -0.1472  0.1873
  175SAPI    HX19866   3.126   2.553   6.390  0.9982 -1.3929  1.0557
  175SAPI    HY19867   3.078   2.600   6.548 -0.0678 -2.9744 -0.8929
  175SAPI   O3119868   3.290   2.614   6.505 -0.9122  0.4549  0.6312
  175SAPI   C3119869   3.318   2.560   6.620 -0.2314  0.3211  0.4742
  175SAPI   O3219870   3.237   2.523   6.697 -0.6681  0.8062 -0.2075
  175SAPI   C3219871   3.473   2.533   6.635  0.2431 -0.1368  0.5870
  175SAPI   H2X19872   3.528   2.630   6.625  1.2924 -0.7932 -0.2356
  175SAPI   H2Y19873   3.503   2.461   6.556  1.7467 -1.1322  1.9999
  175SAPI   C2319874   3.015   2.986   6.831  0.1747  0.4890  0.3370
  175SAPI   H3R19875   3.072   2.918   6.898  0.0099  1.5088  1.5533
  175SAPI   H3S19876   2.916   2.939   6.819 -0.0001  0.3430  2.0959
  175SAPI   C2419877   2.980   3.112   6.919 -0.1279  0.0689  1.1302
  175SAPI   H4R19878   2.894   3.080   6.982 -0.0077 -1.5493  0.5174
  175SAPI   H4S19879   2.940   3.179   6.840  2.7052 -1.1214 -1.5186
  175SAPI   C2519880   3.085   3.192   6.989  0.0198  0.4003 -0.3161
  175SAPI   H5R19881   3.152   3.240   6.916  0.8161 -0.8284 -0.4385
  175SAPI   C2619882   3.129   3.181   7.119  0.1564 -0.5052  0.4960
  175SAPI   H6R19883   3.214   3.233   7.165  0.5287 -1.6546  1.1639
  175SAPI   C2719884   3.069   3.084   7.212  0.3911  0.3093 -0.1711
  175SAPI   H7R19885   2.983   3.024   7.173 -0.1122 -0.2606  1.7126
  175SAPI   H7S19886   3.022   3.148   7.289 -2.4463  0.0431 -1.5181
  175SAPI   C2819887   3.178   2.991   7.257 -0.6072  0.1902 -1.0480
  175SAPI   H8R19888   3.230   2.933   7.179  0.0258  2.5077 -2.4548
  175SAPI   C2919889   3.208   2.964   7.384 -0.3412 -0.5132  0.1614
  175SAPI   H9R19890   3.290   2.891   7.395 -0.7526 -0.9144  0.6031
  175SAPI  C21019891   3.138   3.015   7.506 -0.5622 -0.0577 -0.0597
  175SAPI  H10R19892   3.108   2.926   7.566  1.1394 -1.8443 -1.7150
  175SAPI  H10S19893   3.040   3.055   7.472 -1.1144 -0.9830  0.3984
  175SAPI  C21119894   3.235   3.108   7.575  1.1755  0.0410  0.0863
  175SAPI  H11R19895   3.299   3.164   7.504 -0.9127  1.5106 -0.7529
  175SAPI  C21219896   3.250   3.130   7.705  0.5029  0.4040  0.2468
  175SAPI  H12R19897   3.324   3.199   7.748  0.2455 -0.8760  2.9628
  175SAPI  C21319898   3.168   3.061   7.813 -0.0830 -0.3796 -0.1240
  175SAPI  H13R19899   3.069   3.033   7.770  0.5347  0.0505 -1.9408
  175SAPI  H13S19900   3.141   3.139   7.887  2.5160  0.6378 -0.1213
  175SAPI  C21419901   3.240   2.943   7.871 -0.3546  0.0537 -0.2199
  175SAPI  H14R19902   3.241   2.850   7.812  2.0807 -0.6290  0.7523
  175SAPI  C21519903   3.304   2.941   7.988 -0.3198 -0.1149  0.8266
  175SAPI  H15R19904   3.356   2.846   8.011  0.5732 -0.5178 -2.3663
  175SAPI  C21619905   3.335   3.050   8.090  0.1635  0.3308 -0.1596
  175SAPI  H16R19906   3.284   3.038   8.188 -0.9877  4.0785 -0.1199
  175SAPI  H16S19907   3.311   3.153   8.056  0.6106  0.5464  0.1641
  175SAPI  C21719908   3.488   3.058   8.118  0.6884 -0.0330 -0.3844
  175SAPI  H17R19909   3.542   3.056   8.020 -0.2898  0.0920 -0.9348
  175SAPI  H17S19910   3.513   2.964   8.172  1.6232 -0.5274 -1.6051
  175SAPI  C21819911   3.543   3.176   8.191 -1.1311  0.3539 -0.1948
  175SAPI  H18R19912   3.492   3.187   8.289  1.2321  0.5550  1.1033
  175SAPI  H18S19913   3.518   3.271   8.139 -0.7575 -0.4804 -1.9900
  175SAPI  C21919914   3.696   3.170   8.212 -0.0596 -0.8370  0.2250
  175SAPI  H19R19915   3.729   3.275   8.204  0.2240 -0.9227  0.2495
  175SAPI  H19S19916   3.744   3.110   8.131  0.2920  1.4314 -1.3523
  175SAPI  C22019917   3.741   3.125   8.349  0.2485  1.2137  0.0626
  175SAPI  H20R19918   3.850   3.104   8.345  0.0004 -0.7242  1.4959
  175SAPI  H20S19919   3.707   3.026   8.387  2.3589  0.2379 -0.4329
  175SAPI  H20T19920   3.731   3.198   8.433  0.5618  2.7036 -1.1542
  175SAPI   C3319921   3.506   2.458   6.764  0.5529 -0.4764  0.3108
  175SAPI   H3X19922   3.607   2.412   6.756 -0.3069 -2.0387 -3.4263
  175SAPI   H3Y19923   3.439   2.373   6.790 -1.8456  1.8195  2.2816
  175SAPI   C3419924   3.504   2.561   6.885  0.6125 -0.0215 -0.3363
  175SAPI   H4X19925   3.424   2.637   6.869 -1.5620 -2.0149  0.5111
  175SAPI   H4Y19926   3.600   2.617   6.878  1.6692 -1.5885  0.8955
  175SAPI   C3519927   3.503   2.497   7.021 -0.1443  0.2720  0.4026
  175SAPI   H5X19928   3.597   2.438   7.030  1.5481  2.8243  0.4054
  175SAPI   H5Y19929   3.417   2.427   7.017  0.5759 -0.5814 -0.6971
  175SAPI   C3619930   3.501   2.595   7.133  0.1102  0.3111  0.6810
  175SAPI   H6X19931   3.406   2.654   7.128  0.2117  0.3867 -0.5938
  175SAPI   H6Y19932   3.587   2.665   7.128  0.0789  0.3906  1.1597
  175SAPI   C3719933   3.503   2.527   7.266 -0.6267  0.5682 -0.0396
  175SAPI   H7X19934   3.591   2.459   7.259  0.4473  1.9998 -1.0076
  175SAPI   H7Y19935   3.424   2.450   7.260 -0.2459  0.0289  1.4579
  175SAPI   C3819936   3.490   2.622   7.387 -0.5014 -0.7645  0.5188
  175SAPI   H8X19937   3.394   2.675   7.367 -0.4446 -0.7258  0.3454
  175SAPI   H8Y19938   3.571   2.699   7.385 -0.9025 -0.3076 -1.9002
  175SAPI   C3919939   3.500   2.546   7.522 -0.4654  0.1804  0.2090
  175SAPI   H9X19940   3.598   2.496   7.510  2.1528  4.3754  1.8711
  175SAPI   H9Y19941   3.420   2.468   7.519  0.0086 -0.2906 -1.6085
  175SAPI  C31019942   3.499   2.636   7.640 -0.3064  0.2419 -0.3513
  175SAPI  H10X19943   3.411   2.702   7.630 -1.9235 -1.7094  0.4987
  175SAPI  H10Y19944   3.593   2.695   7.631  1.1117 -1.3812  2.3766
  175SAPI  C31119945   3.493   2.565   7.778  0.3758 -0.1311  0.0031
  175SAPI  H11X19946   3.403   2.501   7.789  0.2364  0.2776  1.3651
  175SAPI  H11Y19947   3.477   2.644   7.855 -2.4789 -0.8718  0.2734
  175SAPI  C31219948   3.629   2.489   7.808 -0.5369 -0.2549  0.3606
  175SAPI  H12X19949   3.704   2.571   7.809 -1.7498  0.8948 -0.3050
  175SAPI  H12Y19950   3.650   2.413   7.730 -1.8558 -0.4767  0.2072
  175SAPI  C31319951   3.619   2.410   7.945 -0.0374 -0.2494 -0.1281
  175SAPI  H13X19952   3.720   2.384   7.982 -0.6511  0.5369  2.2503
  175SAPI  H13Y19953   3.561   2.315   7.940  0.6800 -0.8192  1.7497
  175SAPI  C31419954   3.560   2.486   8.069 -0.5718 -0.1387 -0.3153
  175SAPI  H14X19955   3.451   2.498   8.055 -0.5786  0.8124  0.4479
  175SAPI  H14Y19956   3.615   2.582   8.063 -1.9929  0.6793 -0.5848
  175SAPI  C31519957   3.580   2.404   8.194 -0.1202  0.3166 -0.2011
  175SAPI  H15X19958   3.685   2.408   8.231 -0.3188  1.1098  0.2999
  175SAPI  H15Y19959   3.564   2.296   8.176  2.7774 -0.2562  0.0377
  175SAPI  C31619960   3.478   2.437   8.306 -0.1194 -0.9059  0.3410
  175SAPI  H16X19961   3.378   2.433   8.259  0.9386 -0.9934 -2.0011
  175SAPI  H16Y19962   3.505   2.539   8.340  1.3871 -0.2946 -2.3973
  175SAPI  C31719963   3.481   2.341   8.426  0.3354  0.6701 -0.1601
  175SAPI  H17X19964   3.584   2.333   8.468  0.9127 -0.4791 -1.6665
  175SAPI  H17Y19965   3.468   2.235   8.393 -0.0542  0.5995  0.2250
  175SAPI  C31819966   3.386   2.366   8.543 -0.3182  0.2009 -0.8324
  175SAPI  H18X19967   3.404   2.461   8.597 -1.0864 -0.3099  0.3705
  175SAPI  H18Y19968   3.382   2.289   8.623 -0.0427  0.4205 -0.6089
  175SAPI  H18Z19969   3.290   2.366   8.485  0.1202 -3.5409 -1.8612
  176SAPI   C1219970   3.920   6.811   6.230 -0.1476  0.5208  1.0639
  176SAPI    H219971   3.818   6.786   6.266  0.2200 -1.7971  0.7050
  176SAPI    O219972   3.963   6.702   6.144 -0.1595 -0.2452 -0.7157
  176SAPI   HO219973   3.976   6.630   6.205  2.3407  0.5942 -0.1408
  176SAPI   C1319974   3.907   6.944   6.157  0.2005 -0.6824 -0.1032
  176SAPI    H319975   3.875   7.019   6.232 -1.7002  0.1318 -1.6430
  176SAPI    O319976   3.803   6.928   6.062  0.5564  0.1976 -0.7328
  176SAPI   HO319977   3.841   6.927   5.974 -0.3756 -2.0891 -1.1761
  176SAPI   C1419978   4.036   6.986   6.089 -0.2601 -0.2901 -0.8908
  176SAPI    H419979   4.066   6.910   6.013  0.3727  0.5497 -1.4953
  176SAPI    O419980   4.013   7.106   6.014  0.3016 -0.1838  0.6764
  176SAPI   HO419981   4.087   7.121   5.954  2.0499 -0.6578  2.5890
  176SAPI   C1519982   4.137   6.990   6.210  0.6326 -0.2784  0.1279
  176SAPI    H519983   4.104   7.068   6.282  4.1730  1.8657 -0.3421
  176SAPI    O519984   4.261   7.036   6.157 -0.3032 -0.4728  0.4371
  176SAPI   HO519985   4.290   7.113   6.206  1.3031 -1.0918  0.4993
  176SAPI   C1619986   4.152   6.864   6.285  0.0226 -0.0657 -0.5464
  176SAPI    H619987   4.190   6.786   6.215 -0.6412 -0.2225 -0.7391
  176SAPI    O619988   4.250   6.877   6.388  0.1610 -0.5213  0.4528
  176SAPI   HO619989   4.263   6.787   6.419 -0.0276 -0.5014  0.5884
  176SAPI   C1119990   4.019   6.827   6.345  0.3066 -0.0260  0.6148
  176SAPI    H119991   3.984   6.911   6.410 -0.8399 -0.3494  0.4404
  176SAPI     P19992   3.962   6.693   6.575  0.5908 -0.1606 -0.0501
  176SAPI   O1319993   3.953   6.823   6.646 -0.4603 -0.1019  0.3552
  176SAPI   O1419994   4.038   6.579   6.631 -0.3537 -0.2388 -0.4540
  176SAPI   O1219995   4.025   6.711   6.423 -0.2498  0.2403 -0.5986
  176SAPI   O1119996   3.820   6.640   6.543 -0.1786  0.5439  0.2850
  176SAPI    C119997   3.732   6.567   6.629  1.0737 -0.6668 -0.7753
  176SAPI    HA19998   3.635   6.548   6.578 -0.2716  3.0587  0.0988
  176SAPI    HB19999   3.776   6.467   6.645 -2.3234 -2.1746  0.0809
  176SAPI    C220000   3.697   6.645   6.757  0.2079  0.1458  0.0056
  176SAPI    HS20001   3.655   6.744   6.731 -0.4117 -0.4702 -1.4347
  176SAPI   O2120002   3.810   6.641   6.844  0.2524  0.0255  0.0201
  176SAPI   C2120003   3.849   6.757   6.895 -0.1808 -0.5395  0.1877
  176SAPI   O2220004   3.784   6.855   6.892  0.8451 -0.3451 -0.2535
  176SAPI   C2220005   3.989   6.749   6.968 -0.8876 -0.0262  0.3300
  176SAPI   H2R20006   4.003   6.644   7.002 -1.9186 -0.7529 -1.3432
  176SAPI   H2S20007   4.057   6.782   6.887  0.7058  1.3430  2.1586
  176SAPI    C320008   3.575   6.578   6.828 -0.4844 -0.0413  0.0005
  176SAPI    HX20009   3.602   6.471   6.841  0.3774 -0.0491 -1.6286
  176SAPI    HY20010   3.489   6.569   6.758 -1.8206  0.1758  1.5395
  176SAPI   O3120011   3.555   6.648   6.954  0.0583 -0.2395  0.4366
  176SAPI   C3120012   3.472   6.747   6.939  0.5651  0.2372  0.2469
  176SAPI   O3220013   3.412   6.777   6.835  0.2015  0.1193 -0.2373
  176SAPI   C3220014   3.475   6.820   7.070  0.1863 -0.2674 -0.1898
  176SAPI   H2X20015   3.575   6.867   7.074 -0.1968  0.5409  0.2437
  176SAPI   H2Y20016   3.455   6.741   7.146 -0.8192  0.2313  0.0904
  176SAPI   C2320017   4.020   6.844   7.086 -0.3361 -0.2174  0.4373
  176SAPI   H3R20018   4.012   6.947   7.045  0.6576  0.3063  1.4997
  176SAPI   H3S20019   4.125   6.828   7.118 -0.0101  1.4793  0.3159
  176SAPI   C2420020   3.914   6.833   7.192 -0.1138  0.6883  0.3477
  176SAPI   H4R20021   3.815   6.835   7.142  0.3060 -2.4876 -0.8368
  176SAPI   H4S20022   3.915   6.920   7.261 -0.6122  1.3270 -0.4400
  176SAPI   C2520023   3.923   6.701   7.272  0.1576 -0.3759  0.6096
  176SAPI   H5R20024   3.978   6.620   7.223 -1.0894  0.6294 -2.7698
  176SAPI   C2620025   3.847   6.677   7.380 -0.3299  0.1963  0.7055
  176SAPI   H6R20026   3.867   6.585   7.437  2.3763 -1.6306 -2.7767
  176SAPI   C2720027   3.736   6.759   7.443 -0.1923 -0.0852 -0.1425
  176SAPI   H7R20028   3.638   6.740   7.396 -0.5655  1.4003 -0.0202
  176SAPI   H7S20029   3.761   6.866   7.425  0.0621 -0.1793 -0.3563
  176SAPI   C2820030   3.702   6.729   7.590 -0.3006 -0.6366 -0.3308
  176SAPI   H8R20031   3.729   6.630   7.629 -1.1207 -1.1310 -0.9748
  176SAPI   C2920032   3.651   6.805   7.683 -0.1764 -0.0825  0.3668
  176SAPI   H9R20033   3.636   6.761   7.783 -1.6646 -1.8340 -0.5639
  176SAPI  C21020034   3.600   6.950   7.672  0.8150  0.0407 -0.6198
  176SAPI  H10R20035   3.499   6.937   7.628  0.8918  0.1153 -0.8186
  176SAPI  H10S20036   3.659   6.994   7.589  1.4259 -1.4491 -0.9985
  176SAPI  C21120037   3.606   7.008   7.808 -0.5956 -0.5439  0.1484
  176SAPI  H11R20038   3.526   6.969   7.872 -0.8080 -0.8694 -0.3078
  176SAPI  C21220039   3.689   7.094   7.866 -0.4376  1.4879  0.0943
  176SAPI  H12R20040   3.690   7.110   7.974 -2.4074  0.2229  0.3638
  176SAPI  C21320041   3.806   7.154   7.797  0.4293 -0.4960  0.2071
  176SAPI  H13R20042   3.820   7.122   7.692  1.8280 -0.0164  0.2296
  176SAPI  H13S20043   3.897   7.124   7.853  1.8023 -1.7943 -2.5221
  176SAPI  C21420044   3.790   7.306   7.802 -0.0151 -0.6364 -0.0521
  176SAPI  H14R20045   3.689   7.347   7.786  0.6924  1.2406  0.0232
  176SAPI  C21520046   3.879   7.408   7.805  0.4861 -0.4855  0.3451
  176SAPI  H15R20047   3.845   7.513   7.809 -1.1493 -0.9482 -0.6511
  176SAPI  C21620048   4.024   7.402   7.795  0.0022  0.3316 -0.5087
  176SAPI  H16R20049   4.062   7.472   7.718 -1.2686  0.5063 -0.9983
  176SAPI  H16S20050   4.048   7.304   7.748  1.1268  0.8836 -1.1341
  176SAPI  C21720051   4.092   7.423   7.931 -0.8650 -0.0175 -0.0617
  176SAPI  H17R20052   4.050   7.347   8.000  0.4043 -1.7697 -1.1232
  176SAPI  H17S20053   4.080   7.528   7.967 -0.3995  0.6641 -1.7881
  176SAPI  C21820054   4.245   7.401   7.927  0.5017 -0.0539 -0.4916
  176SAPI  H18R20055   4.255   7.291   7.911 -2.6298 -0.0835 -3.5303
  176SAPI  H18S20056   4.295   7.423   8.023 -0.3096  2.0228 -0.5077
  176SAPI  C21920057   4.329   7.467   7.809  0.2799  0.9677  0.0786
  176SAPI  H19R20058   4.318   7.577   7.809 -1.0268  0.8627 -0.1937
  176SAPI  H19S20059   4.301   7.416   7.714  0.6288 -1.7435  1.3358
  176SAPI  C22020060   4.478   7.455   7.824  0.2095  0.7013  0.0281
  176SAPI  H20R20061   4.521   7.360   7.785  0.0109  1.4647 -2.2335
  176SAPI  H20S20062   4.499   7.469   7.932 -3.4052 -0.0472  0.9388
  176SAPI  H20T20063   4.532   7.524   7.756  1.1664 -2.5397 -2.8078
  176SAPI   C3320064   3.359   6.924   7.076 -0.0182 -0.4570 -0.4658
  176SAPI   H3X20065   3.260   6.885   7.045 -0.6757  0.8535 -0.0935
  176SAPI   H3Y20066   3.379   7.005   7.002 -3.8422 -1.4667 -2.9054
  176SAPI   C3420067   3.335   6.980   7.214  0.3785 -0.4010  0.1524
  176SAPI   H4X20068   3.272   7.072   7.215  0.5701 -0.2180 -1.6736
  176SAPI   H4Y20069   3.428   7.028   7.249  0.5934  0.2737 -1.2526
  176SAPI   C3520070   3.294   6.879   7.324  0.4938  0.6982  0.3091
  176SAPI   H5X20071   3.293   6.916   7.429 -1.2257 -0.0964  0.6137
  176SAPI   H5Y20072   3.372   6.799   7.329  0.8707  1.1338  2.5335
  176SAPI   C3620073   3.156   6.812   7.310  0.0985  0.4470  0.1201
  176SAPI   H6X20074   3.156   6.726   7.379  0.2338 -0.3630 -0.8707
  176SAPI   H6Y20075   3.143   6.778   7.205 -1.1092 -1.3080  0.7937
  176SAPI   C3720076   3.047   6.913   7.339  0.1451 -0.4180  1.2116
  176SAPI   H7X20077   2.946   6.889   7.300 -0.2366  1.7324  0.7466
  176SAPI   H7Y20078   3.070   7.016   7.305 -0.6080 -0.3061  1.0341
  176SAPI   C3820079   3.033   6.940   7.495 -0.0496 -0.0762  0.5599
  176SAPI   H8X20080   2.959   7.022   7.509  0.4784  0.4043  0.5555
  176SAPI   H8Y20081   3.132   6.961   7.540  0.2883 -0.6790  0.1225
  176SAPI   C3920082   2.973   6.824   7.582 -0.1236 -0.6209  0.0269
  176SAPI   H9X20083   3.048   6.745   7.606 -0.5179 -0.2942  2.6821
  176SAPI   H9Y20084   2.905   6.781   7.506  0.7808  2.3030 -2.6645
  176SAPI  C31020085   2.920   6.875   7.716  0.1195 -0.0685 -0.0567
  176SAPI  H10X20086   2.884   6.785   7.769  1.9639  0.8431  2.9818
  176SAPI  H10Y20087   2.839   6.950   7.706 -1.6000 -1.3996  2.8873
  176SAPI  C31120088   3.029   6.954   7.793 -1.0341  0.8399 -0.5014
  176SAPI  H11X20089   2.977   6.997   7.882  2.1092  4.0115  0.0223
  176SAPI  H11Y20090   3.069   7.034   7.727  0.9763 -1.3570 -2.0852
  176SAPI  C31220091   3.142   6.867   7.853  0.3466 -0.8091  0.7069
  176SAPI  H12X20092   3.217   6.845   7.774  0.3259  0.1896  0.3906
  176SAPI  H12Y20093   3.106   6.767   7.885 -1.2423 -1.2052 -2.0030
  176SAPI  C31320094   3.201   6.931   7.979 -0.0365 -0.3116 -0.1932
  176SAPI  H13X20095   3.124   6.949   8.057 -0.3626  0.7488 -0.7262
  176SAPI  H13Y20096   3.234   7.027   7.932  0.4974 -1.1238 -1.5274
  176SAPI  C31420097   3.315   6.844   8.034  0.6637 -0.2505 -0.0994
  176SAPI  H14X20098   3.392   6.837   7.954  0.8952 -1.7106  0.2220
  176SAPI  H14Y20099   3.280   6.740   8.050 -2.3012  0.3383 -1.8654
  176SAPI  C31520100   3.385   6.894   8.164  0.1588  0.0044 -0.5689
  176SAPI  H15X20101   3.428   6.993   8.136 -0.5101  0.0438 -1.5256
  176SAPI  H15Y20102   3.468   6.836   8.210 -0.4710  0.4594  1.2310
  176SAPI  C31620103   3.285   6.906   8.284 -0.0287 -0.4222 -0.5026
  176SAPI  H16X20104   3.283   6.805   8.330  0.6691 -0.2200 -0.0046
  176SAPI  H16Y20105   3.181   6.922   8.248  0.3667 -0.6164 -1.8007
  176SAPI  C31720106   3.321   7.018   8.385  0.2927 -0.4491  0.1033
  176SAPI  H17X20107   3.318   7.117   8.335 -1.3313 -0.5843 -0.1237
  176SAPI  H17Y20108   3.418   7.002   8.438  1.2640 -0.2523 -1.5570
  176SAPI  C31820109   3.210   7.024   8.489  0.6287  0.0793 -0.2194
  176SAPI  H18X20110   3.112   7.048   8.443 -0.2185  1.5540  2.1556
  176SAPI  H18Y20111   3.231   7.102   8.565 -0.7576 -1.6270  2.0652
  176SAPI  H18Z20112   3.209   6.926   8.542  0.2578 -0.1964 -0.7287
  177SLPC     N20113   3.277   0.653  11.056 -0.0341 -0.0198  0.1956
  177SLPC   C1320114   3.392   0.725  10.989  0.1966  0.4513 -0.1806
  177SLPC  H13A20115   3.362   0.820  10.948  2.3450  1.8774  1.3463
  177SLPC  H13B20116   3.465   0.743  11.067 -0.9407 -0.6553  1.1898
  177SLPC  H13C20117   3.430   0.660  10.911  0.6831  1.2703 -0.6393
  177SLPC   C1420118   3.181   0.616  10.948 -0.3143 -0.1733 -1.1300
  177SLPC  H14A20119   3.090   0.572  10.984 -1.5375  2.1936 -1.1309
  177SLPC  H14B20120   3.163   0.695  10.877  0.8520  0.9143 -0.2772
  177SLPC  H14C20121   3.233   0.540  10.892  2.3187  0.1422  0.6883
  177SLPC   C1520122   3.195   0.733  11.146  0.3739  0.4332  0.3257
  177SLPC  H15A20123   3.108   0.673  11.170  1.2261 -1.1418 -0.3762
  177SLPC  H15B20124   3.255   0.755  11.232 -0.6379 -2.2088  1.8491
  177SLPC  H15C20125   3.155   0.824  11.103 -0.4419 -0.6241 -1.2766
  177SLPC   C1220126   3.336   0.525  11.119  0.1993 -0.4375  0.1082
  177SLPC  H12A20127   3.392   0.559  11.204 -0.9330 -0.8658  1.0616
  177SLPC  H12B20128   3.408   0.479  11.053 -0.3272  0.9600 -1.4998
  177SLPC   C1120129   3.246   0.409  11.158 -0.5556 -0.5571 -0.0453
  177SLPC  H11A20130   3.165   0.456  11.218  0.0681 -1.3246  1.4382
  177SLPC  H11B20131   3.299   0.350  11.235  0.4425  0.2078 -0.1280
  177SLPC     P20132   3.267   0.215  10.997 -0.0511  0.1823 -0.0114
  177SLPC   O1320133   3.399   0.205  11.062  0.4458 -0.1194  0.0415
  177SLPC   O1420134   3.166   0.107  11.038 -0.4143 -0.1211  0.3756
  177SLPC   O1220135   3.202   0.348  11.036  0.7253  0.0091  0.3072
  177SLPC   O1120136   3.271   0.233  10.837  0.0930 -0.0484  0.2138
  177SLPC    C120137   3.159   0.261  10.759 -0.3195 -0.7330  0.2965
  177SLPC    HA20138   3.074   0.307  10.814  2.0356  2.4611  1.5273
  177SLPC    HB20139   3.184   0.348  10.694  1.8022 -1.4203  0.1245
  177SLPC    C220140   3.106   0.145  10.669  0.1967 -0.5752  0.0987
  177SLPC    HS20141   3.063   0.065  10.732 -0.4599  0.7291  1.3694
  177SLPC   O2120142   3.219   0.087  10.602  0.0073 -0.2813 -0.0165
  177SLPC   C2120143   3.199  -0.021  10.528  0.5951 -0.4316  0.1885
  177SLPC   O2220144   3.100  -0.088  10.525 -0.0317  0.4612  0.3148
  177SLPC   C2220145   3.329  -0.047  10.457  0.7145  0.4244  0.0025
  177SLPC   H2R20146   3.394   0.042  10.473 -2.5333  2.8395  0.8258
  177SLPC   H2S20147   3.377  -0.134  10.506  0.3793  0.3098  0.1239
  177SLPC    C320148   2.997   0.196  10.565 -0.2161  0.2210 -0.8823
  177SLPC    HX20149   2.903   0.218  10.621 -0.7931 -1.2998 -1.1995
  177SLPC    HY20150   2.962   0.111  10.503  1.2263 -0.4955 -0.7537
  177SLPC   O3120151   3.039   0.308  10.486  0.0395  0.0220  0.7372
  177SLPC   C3120152   3.087   0.284  10.366  0.5272 -0.5914  0.4017
  177SLPC   O3220153   3.112   0.179  10.319 -0.5989  0.3107 -0.2769
  177SLPC   C3220154   3.082   0.411  10.277 -0.4744 -0.4417 -0.0847
  177SLPC   H2X20155   3.143   0.493  10.320 -0.4652  0.9985 -2.6811
  177SLPC   H2Y20156   2.977   0.445  10.280  0.2864  2.3566 -1.6469
  177SLPC   C2320157   3.324  -0.092  10.314 -0.6851 -0.3317 -0.5747
  177SLPC   H3R20158   3.219  -0.102  10.281 -1.1071 -0.8679  0.8383
  177SLPC   H3S20159   3.370  -0.191  10.293  0.7872 -0.2158  1.6589
  177SLPC   C2420160   3.397   0.010  10.226 -0.3440  0.2261 -0.3306
  177SLPC   H4R20161   3.500   0.021  10.267 -0.5515  1.5013 -0.0871
  177SLPC   H4S20162   3.344   0.107  10.241 -0.9552 -0.1220 -0.1887
  177SLPC   C2520163   3.394  -0.040  10.080 -0.9304  0.0649 -0.7142
  177SLPC   H5R20164   3.292  -0.018  10.043  0.3285  2.2186 -3.2066
  177SLPC   H5S20165   3.417  -0.147  10.060 -0.8310  0.1063 -0.8220
  177SLPC   C2620166   3.490   0.041  10.001 -0.2903 -0.5122  0.0557
  177SLPC   H6R20167   3.590   0.020  10.046  0.4093  2.0662 -0.1534
  177SLPC   H6S20168   3.482   0.150  10.019 -0.1517 -0.5348  0.2696
  177SLPC   C2720169   3.496   0.011   9.863  0.0578  0.3253  0.2935
  177SLPC   H7R20170   3.548   0.097   9.814 -0.5429 -0.0420 -1.0255
  177SLPC   H7S20171   3.398   0.010   9.811 -0.2497  0.1794  0.8783
  177SLPC   C2820172   3.585  -0.115   9.832  0.2410 -0.7216 -0.1673
  177SLPC   H8R20173   3.523  -0.199   9.872  0.5454 -1.1539 -0.5874
  177SLPC   H8S20174   3.687  -0.117   9.877 -0.3745 -1.9660  1.2446
  177SLPC   C2920175   3.588  -0.132   9.679  0.2655 -0.2153 -0.2880
  177SLPC   H9R20176   3.489  -0.124   9.633 -1.2260 -2.9367  2.1009
  177SLPC  C21020177   3.695  -0.161   9.604  0.8145 -0.7418  0.0543
  177SLPC  H10R20178   3.684  -0.167   9.495  0.2613 -0.2975  0.0815
  177SLPC  C21120179   3.835  -0.182   9.650 -0.0410  0.7051 -0.1501
  177SLPC  H11R20180   3.910  -0.127   9.589  0.3841 -0.3574 -0.6114
  177SLPC  H11S20181   3.853  -0.138   9.750 -0.4753  0.2981  0.1084
  177SLPC  C21220182   3.874  -0.329   9.661 -0.1737 -0.4161 -0.5351
  177SLPC  H12R20183   3.878  -0.374   9.761 -1.8606 -0.0295 -0.2659
  177SLPC  C21320184   3.914  -0.406   9.557 -0.2496 -1.0529 -0.1222
  177SLPC  H13R20185   3.934  -0.513   9.578 -1.0131 -1.2607 -0.4079
  177SLPC  C21420186   3.920  -0.372   9.411 -0.3711  0.3409 -0.2009
  177SLPC  H14R20187   3.969  -0.273   9.399 -1.0502  0.7226  0.1240
  177SLPC  H14S20188   3.812  -0.362   9.386  0.0781  0.0801 -2.4936
  177SLPC  C21520189   3.973  -0.467   9.305 -0.5635  0.2681  0.3396
  177SLPC  H15R20190   4.084  -0.477   9.306 -0.6595 -0.9659  0.9424
  177SLPC  H15S20191   3.957  -0.418   9.207 -2.2333  0.5740  0.7387
  177SLPC  C21620192   3.907  -0.600   9.292 -0.0512  0.3641  0.3369
  177SLPC  H16R20193   3.947  -0.664   9.373  0.7750 -0.1861 -0.4794
  177SLPC  H16S20194   3.943  -0.634   9.193  0.1539  3.0939 -0.6050
  177SLPC  C21720195   3.748  -0.603   9.285  0.2578 -0.0113 -0.3807
  177SLPC  H17R20196   3.713  -0.553   9.377 -2.3106  0.7023 -1.6711
  177SLPC  H17S20197   3.719  -0.711   9.291 -0.9217  0.1887 -1.8631
  177SLPC  C21820198   3.687  -0.533   9.154 -0.5922  0.3536  0.2292
  177SLPC  H18R20199   3.576  -0.537   9.141 -0.4265  1.1186 -1.6777
  177SLPC  H18S20200   3.740  -0.558   9.060 -0.1343 -0.0227  0.5858
  177SLPC  H18T20201   3.714  -0.427   9.176  1.8602  0.0157 -0.8661
  177SLPC   C3320202   3.119   0.384  10.128  0.4409 -0.6030  0.8009
  177SLPC   H3X20203   3.081   0.465  10.062 -0.4056 -2.4245 -1.0585
  177SLPC   H3Y20204   3.068   0.290  10.098 -1.8029  1.6135 -3.2356
  177SLPC   C3420205   3.267   0.382  10.108 -0.3378  1.2762  0.2492
  177SLPC   H4X20206   3.289   0.333  10.011  1.0828  0.7343  0.8187
  177SLPC   H4Y20207   3.326   0.312  10.171  0.2826  1.3293 -0.2774
  177SLPC   C3520208   3.342   0.518  10.101 -0.3756 -0.2758 -1.1193
  177SLPC   H5X20209   3.453   0.508  10.107 -0.0988  2.5323  0.7622
  177SLPC   H5Y20210   3.313   0.577  10.191  1.5720 -0.2732 -0.4246
  177SLPC   C3620211   3.302   0.612   9.990  0.0518  0.3513 -0.0975
  177SLPC   H6X20212   3.351   0.710  10.004 -1.9072  1.4599 -0.5145
  177SLPC   H6Y20213   3.192   0.631   9.997  0.0000  0.6402 -1.3347
  177SLPC   C3720214   3.335   0.560   9.846 -0.2583 -0.3783 -0.0046
  177SLPC   H7X20215   3.306   0.455   9.825 -1.2508 -0.1071 -0.0642
  177SLPC   H7Y20216   3.446   0.551   9.847 -0.2413 -0.1531  0.6133
  177SLPC   C3820217   3.273   0.652   9.739  0.1462 -0.4255  0.4374
  177SLPC   H8X20218   3.307   0.754   9.769  0.7691 -0.6926  0.6467
  177SLPC   H8Y20219   3.162   0.657   9.740  0.0056 -2.4080 -0.5600
  177SLPC   C3920220   3.325   0.619   9.601  0.1803  0.5306 -0.1474
  177SLPC   H9X20221   3.288   0.517   9.575 -0.2433  0.1713  1.6753
  177SLPC   H9Y20222   3.434   0.606   9.614  0.2353  0.3804 -0.7497
  177SLPC  C31020223   3.293   0.719   9.492  0.8602 -0.4032  0.3397
  177SLPC  H10X20224   3.364   0.709   9.407  1.2595  0.9480  0.4949
  177SLPC  H10Y20225   3.308   0.820   9.536 -0.3872 -0.0100 -0.1086
  177SLPC  C31120226   3.155   0.691   9.430 -1.3405  0.3072 -1.2036
  177SLPC  H11X20227   3.088   0.688   9.519  0.8342 -0.4392  0.4991
  177SLPC  H11Y20228   3.151   0.592   9.380 -1.4488 -1.1188  1.4085
  177SLPC  C31220229   3.106   0.801   9.340  0.1477  0.2244  0.1532
  177SLPC  H12X20230   3.110   0.894   9.401  0.5109  1.2436 -1.3786
  177SLPC  H12Y20231   3.000   0.784   9.310  0.6151 -1.9613 -0.3805
  177SLPC  C31320232   3.198   0.828   9.216  0.9644  0.1530 -0.2903
  177SLPC  H13X20233   3.204   0.728   9.167 -2.1042 -0.3434  0.1673
  177SLPC  H13Y20234   3.304   0.847   9.243  1.4829 -2.0051 -0.5997
  177SLPC  C31420235   3.153   0.954   9.135  0.4496 -0.4262  0.4748
  177SLPC  H14X20236   3.242   0.995   9.082  1.1987  0.9439  2.6671
  177SLPC  H14Y20237   3.116   1.025   9.211 -2.0278 -2.2745  1.1069
  177SLPC  C31520238   3.040   0.921   9.031 -0.4326  0.5674 -0.5220
  177SLPC  H15X20239   2.949   0.883   9.082 -0.0458  1.2067  0.6916
  177SLPC  H15Y20240   3.074   0.833   8.973 -0.4146 -0.0428  0.3975
  177SLPC  C31620241   2.993   1.029   8.935  0.2386 -0.0759 -0.7637
  177SLPC  H16X20242   2.947   1.107   8.999 -1.3461  1.1344 -3.2019
  177SLPC  H16Y20243   2.929   0.976   8.861  0.2831 -0.0502 -0.8212
  177SLPC  C31720244   3.097   1.081   8.840  0.9618 -0.0609 -0.7925
  177SLPC  H17X20245   3.178   1.139   8.891  1.3673  0.7632 -2.3035
  177SLPC  H17Y20246   3.046   1.151   8.770  0.6051  1.3543  0.8031
  177SLPC  C31820247   3.159   0.976   8.749 -0.2431 -0.0346  0.3241
  177SLPC  H18X20248   3.243   1.029   8.699 -1.1141  1.9406  0.8481
  177SLPC  H18Y20249   3.083   0.935   8.679  1.6424 -2.1564 -0.5969
  177SLPC  H18Z20250   3.203   0.892   8.807 -0.7822  1.2590  2.7363
  178SLPC     N20251   3.363   6.653  10.955  0.9013 -0.2822  0.6969
  178SLPC   C1320252   3.433   6.514  10.962 -0.0324 -0.6847 -0.1763
  178SLPC  H13A20253   3.363   6.432  10.952 -0.5765 -0.2870  0.3261
  178SLPC  H13B20254   3.510   6.508  10.886  0.7820  0.9280  0.4761
  178SLPC  H13C20255   3.477   6.509  11.060 -0.6688 -2.3833  0.0517
  178SLPC   C1420256   3.272   6.657  11.076  0.0354  0.0066 -0.1808
  178SLPC  H14A20257   3.326   6.626  11.165  2.0328  0.4443 -1.1904
  178SLPC  H14B20258   3.208   6.744  11.081 -1.0689 -0.7822 -0.0309
  178SLPC  H14C20259   3.189   6.594  11.047 -1.0554  1.4101 -0.1862
  178SLPC   C1520260   3.278   6.661  10.836 -0.1951  0.8245  0.2201
  178SLPC  H15A20261   3.204   6.583  10.827  2.6259 -2.0614  0.3991
  178SLPC  H15B20262   3.228   6.756  10.852  0.4309  1.0393  0.9666
  178SLPC  H15C20263   3.335   6.659  10.744  0.1790 -0.2441  0.4657
  178SLPC   C1220264   3.475   6.754  10.960  0.7787 -0.5323 -0.3180
  178SLPC  H12A20265   3.555   6.731  11.028  1.8886  1.1847 -0.9844
  178SLPC  H12B20266   3.442   6.848  11.001  1.8183  0.0644 -0.8066
  178SLPC   C1120267   3.553   6.789  10.834 -0.9386  0.7320 -0.3577
  178SLPC  H11A20268   3.613   6.879  10.863 -0.4953 -0.3315  2.3260
  178SLPC  H11B20269   3.491   6.823  10.748 -0.3098 -0.2875 -1.2467
  178SLPC     P20270   3.786   6.640  10.868  0.3390 -0.2387 -0.1311
  178SLPC   O1320271   3.785   6.670  11.013  0.1936 -0.0111  0.2898
  178SLPC   O1420272   3.818   6.503  10.834 -0.2064  0.2226  0.5268
  178SLPC   O1220273   3.642   6.674  10.805  0.4855 -0.2304  0.5369
  178SLPC   O1120274   3.889   6.739  10.781  0.0755 -0.2449 -0.1606
  178SLPC    C120275   3.845   6.791  10.659 -0.1098 -0.3242  0.5952
  178SLPC    HA20276   3.736   6.808  10.652 -0.4534 -2.2862  0.5512
  178SLPC    HB20277   3.902   6.881  10.626  0.9074 -0.7962  1.0291
  178SLPC    C220278   3.859   6.687  10.538  0.1713  0.2354 -0.1422
  178SLPC    HS20279   3.781   6.615  10.570  1.1097 -0.0287  1.6807
  178SLPC   O2120280   3.997   6.628  10.531  0.2018 -0.1693 -0.2030
  178SLPC   C2120281   4.002   6.507  10.472 -0.1340 -0.4571 -0.9998
  178SLPC   O2220282   3.911   6.444  10.430 -0.5367 -0.1982 -0.6595
  178SLPC   C2220283   4.157   6.468  10.455  0.1763  0.1842  0.2193
  178SLPC   H2R20284   4.193   6.506  10.356  0.3664  2.4066  1.0686
  178SLPC   H2S20285   4.208   6.536  10.527 -1.6556 -1.4502  3.2447
  178SLPC    C320286   3.803   6.757  10.410  0.2383  1.0517 -0.2476
  178SLPC    HX20287   3.886   6.805  10.354  0.2550 -0.7539 -1.8769
  178SLPC    HY20288   3.741   6.837  10.456  0.1182  1.0086 -0.3349
  178SLPC   O3120289   3.726   6.662  10.334  0.3598 -0.2191 -0.1321
  178SLPC   C3120290   3.775   6.622  10.214 -0.1914  0.0908 -0.2489
  178SLPC   O3220291   3.870   6.670  10.155 -0.0989  0.7895  0.3101
  178SLPC   C3220292   3.701   6.507  10.166 -1.1429 -0.8365  0.2519
  178SLPC   H2X20293   3.603   6.543  10.129  0.3007  4.3193  0.6643
  178SLPC   H2Y20294   3.680   6.428  10.241 -2.2767 -1.6986 -0.9303
  178SLPC   C2320295   4.196   6.315  10.492 -0.9731  0.0229 -0.2334
  178SLPC   H3R20296   4.113   6.261  10.441 -1.7832  0.3034  0.7410
  178SLPC   H3S20297   4.192   6.305  10.603  0.0207  2.5963  0.0999
  178SLPC   C2420298   4.333   6.263  10.446 -0.0585 -0.2575 -0.5356
  178SLPC   H4R20299   4.407   6.302  10.520  1.2939 -1.8610 -0.9900
  178SLPC   H4S20300   4.358   6.285  10.340  0.8828  1.4607  0.0066
  178SLPC   C2520301   4.347   6.113  10.461  0.0160 -0.0599  0.5510
  178SLPC   H5R20302   4.304   6.072  10.554 -1.2793  0.1684  0.0781
  178SLPC   H5S20303   4.455   6.089  10.456 -0.4032 -2.3837  1.3402
  178SLPC   C2620304   4.274   6.031  10.345 -0.7963  0.4564 -0.1307
  178SLPC   H6R20305   4.333   6.049  10.252 -1.9870 -0.4388 -1.0857
  178SLPC   H6S20306   4.168   6.058  10.327 -0.0487  2.0370 -2.8927
  178SLPC   C2720307   4.273   5.878  10.366  0.1623  1.1544  0.2492
  178SLPC   H7R20308   4.219   5.847  10.458  3.7839  0.9874  2.5296
  178SLPC   H7S20309   4.381   5.854  10.374 -0.0437 -0.6997 -1.6509
  178SLPC   C2820310   4.222   5.798  10.251  0.0392  0.3630  0.1479
  178SLPC   H8R20311   4.259   5.694  10.270 -0.3972  0.1816  0.0067
  178SLPC   H8S20312   4.273   5.831  10.158 -3.1438  1.5708 -1.3016
  178SLPC   C2920313   4.078   5.777  10.226  0.4260 -0.1714  0.0531
  178SLPC   H9R20314   4.022   5.823  10.308 -0.8910 -1.6661  0.0407
  178SLPC  C21020315   4.016   5.705  10.123  0.4740  0.7651 -0.1310
  178SLPC  H10R20316   3.907   5.719  10.116  0.7760  2.3893 -3.6868
  178SLPC  C21120317   4.084   5.636  10.013 -0.8266 -0.0212  0.6706
  178SLPC  H11R20318   4.180   5.596  10.050 -1.8998 -1.4639  2.0293
  178SLPC  H11S20319   4.116   5.716   9.942  0.9128 -0.3802  1.0143
  178SLPC  C21220320   4.006   5.532   9.939  0.1025 -0.0756 -0.2565
  178SLPC  H12R20321   4.012   5.430   9.979  2.1993 -0.1911 -0.7217
  178SLPC  C21320322   3.945   5.543   9.821  0.1572  0.3087 -0.0087
  178SLPC  H13R20323   3.899   5.454   9.776 -1.3022  0.9298  0.1839
  178SLPC  C21420324   3.934   5.669   9.739 -0.2971  0.5375  0.1982
  178SLPC  H14R20325   3.988   5.761   9.771 -0.4473  1.3093 -1.6548
  178SLPC  H14S20326   3.828   5.697   9.723 -0.3991  0.6057  0.9662
  178SLPC  C21520327   3.988   5.637   9.592 -0.4880 -0.1696 -0.0197
  178SLPC  H15R20328   3.944   5.721   9.534  0.4597 -0.2324 -0.8540
  178SLPC  H15S20329   3.936   5.546   9.556 -0.9036  0.2533 -0.5083
  178SLPC  C21620330   4.145   5.642   9.586  0.0052 -0.5051 -0.5934
  178SLPC  H16R20331   4.181   5.545   9.626 -0.4011 -0.6694 -0.6162
  178SLPC  H16S20332   4.185   5.723   9.651  1.6501 -3.0616  1.8050
  178SLPC  C21720333   4.213   5.664   9.449  0.5430 -0.0973  0.1515
  178SLPC  H17R20334   4.319   5.678   9.480  0.7971 -0.2813 -0.6104
  178SLPC  H17S20335   4.171   5.757   9.406  0.7605  1.2103  2.5979
  178SLPC  C21820336   4.207   5.560   9.344 -0.3657  0.5899 -0.1823
  178SLPC  H18R20337   4.232   5.593   9.241  2.9684 -2.2012 -0.4380
  178SLPC  H18S20338   4.100   5.528   9.349 -0.2824  0.4604  1.1327
  178SLPC  H18T20339   4.272   5.477   9.376  0.1387 -0.2265 -3.0615
  178SLPC   C3320340   3.793   6.439  10.059 -0.7369  1.0784 -0.0480
  178SLPC   H3X20341   3.820   6.515   9.983  0.8399  0.5314 -0.0597
  178SLPC   H3Y20342   3.739   6.362   9.999 -0.4450  0.2518  0.7311
  178SLPC   C3420343   3.925   6.385  10.111 -0.3448 -0.2696 -0.0440
  178SLPC   H4X20344   3.905   6.313  10.193 -0.1169 -2.1331 -1.5561
  178SLPC   H4Y20345   3.995   6.465  10.145  2.2856 -1.1456 -2.9235
  178SLPC   C3520346   4.000   6.308  10.009  0.0240  0.6110 -0.0259
  178SLPC   H5X20347   4.019   6.368   9.918  0.0471  0.2898 -0.2360
  178SLPC   H5Y20348   3.940   6.216   9.987 -0.5341  0.3622  2.1983
  178SLPC   C3620349   4.123   6.232  10.062 -0.0691  0.3190 -0.1284
  178SLPC   H6X20350   4.112   6.189  10.164  0.8512  0.3006 -0.0339
  178SLPC   H6Y20351   4.206   6.306  10.068  0.1311 -0.0010  1.3928
  178SLPC   C3720352   4.163   6.117   9.964  0.4287 -1.3674 -0.5655
  178SLPC   H7X20353   4.086   6.036   9.962  0.6170 -1.6674  1.4754
  178SLPC   H7Y20354   4.246   6.055  10.004 -0.7378 -0.4065  3.9946
  178SLPC   C3820355   4.187   6.166   9.820  0.1181  0.0528 -0.3703
  178SLPC   H8X20356   4.235   6.266   9.818 -0.6199  0.4251 -0.0354
  178SLPC   H8Y20357   4.097   6.202   9.765  1.6580  0.9337 -2.4317
  178SLPC   C3920358   4.254   6.070   9.725  0.2133  0.1963 -0.2443
  178SLPC   H9X20359   4.191   5.980   9.713 -0.5900  0.6880  0.2243
  178SLPC   H9Y20360   4.359   6.046   9.755  0.0680  0.6122  0.6162
  178SLPC  C31020361   4.248   6.137   9.587  0.2094  0.2316  0.3626
  178SLPC  H10X20362   4.308   6.230   9.578 -0.8361  0.8577 -0.2296
  178SLPC  H10Y20363   4.149   6.179   9.558 -0.3664 -2.0036 -1.1417
  178SLPC  C31120364   4.322   6.039   9.488  0.0273 -1.3516  0.2519
  178SLPC  H11X20365   4.259   5.947   9.486  1.3382 -2.2672 -0.9810
  178SLPC  H11Y20366   4.426   6.010   9.513  0.9891 -0.0340 -1.9544
  178SLPC  C31220367   4.329   6.115   9.356  0.8207  0.0351  0.4539
  178SLPC  H12X20368   4.400   6.199   9.364  2.3866 -1.1643 -0.2272
  178SLPC  H12Y20369   4.234   6.168   9.338  0.7233  0.2229  1.4730
  178SLPC  C31320370   4.363   6.031   9.233  1.4458  0.4361 -0.0470
  178SLPC  H13X20371   4.293   5.944   9.233  1.3788  0.4898 -0.0479
  178SLPC  H13Y20372   4.468   5.997   9.248  1.0762 -0.7179  0.0398
  178SLPC  C31420373   4.350   6.092   9.096  0.0885 -0.5490 -0.4542
  178SLPC  H14X20374   4.417   6.181   9.088 -0.2506  0.0014  2.0911
  178SLPC  H14Y20375   4.247   6.134   9.089  0.3975  0.1117 -1.3539
  178SLPC  C31520376   4.376   5.998   8.983 -0.4801 -0.3089  0.1488
  178SLPC  H15X20377   4.466   5.936   9.002 -0.6820 -0.7612 -0.3349
  178SLPC  H15Y20378   4.293   5.927   8.966  2.0635 -3.0114 -2.0626
  178SLPC  C31620379   4.380   6.072   8.849  0.4666  0.3657 -0.0252
  178SLPC  H16X20380   4.427   6.001   8.776  0.1954 -0.5903  0.7096
  178SLPC  H16Y20381   4.445   6.162   8.850  0.8646  0.0830  1.8109
  178SLPC  C31720382   4.243   6.121   8.797  0.2050  0.4056 -0.1136
  178SLPC  H17X20383   4.199   6.186   8.875 -0.3215  1.7088 -1.4410
  178SLPC  H17Y20384   4.171   6.039   8.772  2.4096 -1.0474 -2.2054
  178SLPC  C31820385   4.256   6.202   8.664  0.2083  0.4940 -0.0098
  178SLPC  H18X20386   4.310   6.150   8.583 -1.0833 -2.2669  0.7542
  178SLPC  H18Y20387   4.300   6.302   8.685  0.0918  1.3021 -3.1805
  178SLPC  H18Z20388   4.154   6.221   8.624  0.8820  0.1940 -1.9366
  179SLPC     N20389   1.219   4.031  10.761 -0.2641  0.2308 -0.4876
  179SLPC   C1320390   1.196   3.892  10.819 -0.4491 -0.1540  0.4358
  179SLPC  H13A20391   1.286   3.833  10.811  0.7101  1.5218  0.5187
  179SLPC  H13B20392   1.171   3.890  10.925  1.2117 -0.1863  0.8575
  179SLPC  H13C20393   1.125   3.829  10.768  0.8817 -3.4182  2.2664
  179SLPC   C1420394   1.228   4.010  10.611 -0.2068 -0.4503 -0.1746
  179SLPC  H14A20395   1.131   3.978  10.578 -1.1115  1.4211  0.5380
  179SLPC  H14B20396   1.258   4.103  10.565 -0.8694  0.3021  0.8832
  179SLPC  H14C20397   1.302   3.936  10.584 -0.2189 -0.3427 -0.5089
  179SLPC   C1520398   1.359   4.080  10.807 -0.2438 -0.3121  0.4889
  179SLPC  H15A20399   1.384   4.170  10.753  0.8028 -0.2130  1.1067
  179SLPC  H15B20400   1.356   4.098  10.914  2.0790  1.5154  0.3048
  179SLPC  H15C20401   1.438   4.011  10.780 -0.5841 -1.2753  1.7968
  179SLPC   C1220402   1.093   4.114  10.796  0.8309 -0.0389 -0.5623
  179SLPC  H12A20403   1.099   4.129  10.903  1.6718  1.1329 -0.7457
  179SLPC  H12B20404   1.009   4.056  10.762  1.2626  0.1208 -1.9745
  179SLPC   C1120405   1.086   4.266  10.751 -0.2695 -0.3311  0.3968
  179SLPC  H11A20406   1.169   4.325  10.796 -0.3075  0.9920 -1.1801
  179SLPC  H11B20407   0.987   4.305  10.780 -0.0132  1.1538 -0.6258
  179SLPC     P20408   0.993   4.237  10.512 -0.1509 -0.4284  0.1574
  179SLPC   O1320409   0.904   4.143  10.572 -0.6391 -0.1204  0.6062
  179SLPC   O1420410   0.925   4.352  10.450  0.8778  0.3635 -0.5845
  179SLPC   O1220411   1.111   4.280  10.608 -0.2277  0.2081  0.2486
  179SLPC   O1120412   1.079   4.178  10.390  0.2744  0.2924  0.6910
  179SLPC    C120413   1.178   4.251  10.311 -0.4071 -0.2872 -0.2664
  179SLPC    HA20414   1.208   4.341  10.369 -1.0279 -0.9443  1.1047
  179SLPC    HB20415   1.274   4.196  10.312  1.4824  2.7543 -1.0982
  179SLPC    C220416   1.131   4.301  10.168 -0.0763  0.4977 -0.7098
  179SLPC    HS20417   1.111   4.216  10.099 -0.3938  0.7448 -0.9284
  179SLPC   O2120418   1.233   4.384  10.113 -0.4625  0.3228  0.9666
  179SLPC   C2120419   1.333   4.318  10.049 -0.3412 -1.1823  0.6120
  179SLPC   O2220420   1.342   4.197  10.032 -0.0152 -0.2893  0.5765
  179SLPC   C2220421   1.441   4.417  10.008  0.5034  0.2597 -0.0097
  179SLPC   H2R20422   1.407   4.519  10.037  3.9098  0.9962  2.0040
  179SLPC   H2S20423   1.535   4.402  10.067  0.0957 -1.8767  0.1703
  179SLPC    C320424   1.001   4.379  10.165  0.4814  0.2813 -0.1583
  179SLPC    HX20425   1.027   4.475  10.215  1.3810  0.3646 -0.7583
  179SLPC    HY20426   0.925   4.330  10.229  1.6176 -1.3340  0.0081
  179SLPC   O3120427   0.958   4.397  10.028 -0.0831 -0.1089  0.5991
  179SLPC   C3120428   0.846   4.461  10.013  0.0217 -1.1849  0.3859
  179SLPC   O3220429   0.775   4.503  10.106 -0.5157  0.0490 -0.1762
  179SLPC   C3220430   0.804   4.471   9.872 -0.2652 -1.0931  0.6227
  179SLPC   H2X20431   0.821   4.376   9.816  0.4435 -0.2199 -0.6669
  179SLPC   H2Y20432   0.875   4.543   9.827  0.0288 -2.4247 -1.1842
  179SLPC   C2320433   1.484   4.413   9.855  0.0922 -0.3885 -0.2042
  179SLPC   H3R20434   1.531   4.512   9.837  1.3081 -0.8497  0.3211
  179SLPC   H3S20435   1.393   4.400   9.793  0.2333 -2.8930  0.0217
  179SLPC   C2420436   1.573   4.293   9.833 -0.2292  0.2069 -0.8436
  179SLPC   H4R20437   1.568   4.260   9.727  0.0117  0.7492 -1.0255
  179SLPC   H4S20438   1.537   4.209   9.897 -1.8081  1.2300 -0.3219
  179SLPC   C2520439   1.721   4.318   9.859  1.1368 -0.9731 -0.5932
  179SLPC   H5R20440   1.732   4.339   9.968  1.7440  0.9057 -1.0001
  179SLPC   H5S20441   1.755   4.400   9.794  0.0330 -1.7678 -2.2393
  179SLPC   C2620442   1.805   4.192   9.837 -0.0207  0.3302 -0.1770
  179SLPC   H6R20443   1.777   4.117   9.915 -0.6805 -1.0637 -1.6997
  179SLPC   H6S20444   1.909   4.229   9.851 -0.1132  0.7879 -0.7060
  179SLPC   C2720445   1.791   4.121   9.695 -0.5561 -0.2832 -0.1762
  179SLPC   H7R20446   1.829   4.188   9.616  0.3418  1.7391  1.8729
  179SLPC   H7S20447   1.682   4.101   9.684 -0.7097 -0.9728  1.9976
  179SLPC   C2820448   1.856   3.981   9.682  0.4396  0.0644 -0.0145
  179SLPC   H8R20449   1.811   3.913   9.757 -1.3976 -0.3757 -1.4387
  179SLPC   H8S20450   1.966   3.990   9.691  0.1342  3.8840  1.9210
  179SLPC   C2920451   1.836   3.943   9.539 -0.9010  0.6536  0.0040
  179SLPC   H9R20452   1.849   4.024   9.465 -1.9542 -0.7726 -1.8337
  179SLPC  C21020453   1.822   3.822   9.493  0.4805  0.8058 -0.3781
  179SLPC  H10R20454   1.815   3.818   9.383 -0.4348  1.4003 -0.3443
  179SLPC  C21120455   1.803   3.686   9.564  0.3050 -0.1029 -0.2720
  179SLPC  H11R20456   1.717   3.628   9.523  0.1839 -1.1471  1.3708
  179SLPC  H11S20457   1.772   3.699   9.670  0.3795 -1.1687 -0.1193
  179SLPC  C21220458   1.922   3.585   9.554  0.2064  0.1761  0.1827
  179SLPC  H12R20459   1.911   3.511   9.474 -1.1732 -0.3961  0.8628
  179SLPC  C21320460   2.037   3.584   9.622 -0.4176  0.0838 -0.2516
  179SLPC  H13R20461   2.115   3.514   9.588 -1.4421 -0.1916 -2.1666
  179SLPC  C21420462   2.069   3.688   9.730  0.2006  0.1521 -0.1838
  179SLPC  H14R20463   2.080   3.639   9.829  1.2285 -0.8079 -0.7374
  179SLPC  H14S20464   1.992   3.768   9.735  1.7240  1.7462 -1.1083
  179SLPC  C21520465   2.204   3.762   9.714 -0.7459 -0.3007 -0.1028
  179SLPC  H15R20466   2.220   3.840   9.792 -1.0419  0.9034 -1.2145
  179SLPC  H15S20467   2.197   3.808   9.613  2.5076  0.1840 -0.2151
  179SLPC  C21620468   2.313   3.660   9.715 -0.3628 -0.0045  0.0986
  179SLPC  H16R20469   2.393   3.707   9.654  0.9333 -0.4491  1.3783
  179SLPC  H16S20470   2.289   3.576   9.647  1.3026 -0.7461  0.3749
  179SLPC  C21720471   2.376   3.624   9.853 -0.0058  0.1099 -0.0586
  179SLPC  H17R20472   2.330   3.527   9.879  1.9791 -0.1514  3.0233
  179SLPC  H17S20473   2.333   3.698   9.924  0.4726 -1.3657  1.8337
  179SLPC  C21820474   2.532   3.613   9.862 -0.0865 -0.2234  0.1281
  179SLPC  H18R20475   2.571   3.539   9.789 -1.2417  1.5409 -2.4923
  179SLPC  H18S20476   2.549   3.579   9.966 -1.6477  2.1761  1.2876
  179SLPC  H18T20477   2.591   3.707   9.851 -0.3551  0.0988  1.3298
  179SLPC   C3320478   0.654   4.518   9.856  0.4878 -0.6553 -0.2347
  179SLPC   H3X20479   0.654   4.629   9.863 -0.4868 -0.6023 -0.8606
  179SLPC   H3Y20480   0.605   4.484   9.950 -1.0783 -0.6510 -1.0093
  179SLPC   C3420481   0.581   4.468   9.728  0.0497 -0.1117  0.4533
  179SLPC   H4X20482   0.480   4.514   9.732 -0.4032 -1.1227  0.9758
  179SLPC   H4Y20483   0.563   4.359   9.721 -1.0885  0.1802 -2.6478
  179SLPC   C3520484   0.656   4.532   9.613  0.0294  0.1073 -0.3822
  179SLPC   H5X20485   0.763   4.510   9.627 -0.6030 -1.7719  2.2244
  179SLPC   H5Y20486   0.636   4.641   9.619  0.5720  0.1855 -0.0033
  179SLPC   C3620487   0.603   4.479   9.480  0.1568 -0.0666  0.3678
  179SLPC   H6X20488   0.495   4.506   9.472 -0.7170 -2.6395  2.0880
  179SLPC   H6Y20489   0.598   4.369   9.465 -0.6060  0.1927 -1.6673
  179SLPC   C3720490   0.680   4.540   9.363 -0.2380 -0.3371 -0.3530
  179SLPC   H7X20491   0.788   4.513   9.363 -0.5131 -1.5096 -0.8775
  179SLPC   H7Y20492   0.674   4.651   9.372 -2.5398 -0.5161  1.3585
  179SLPC   C3820493   0.637   4.484   9.228 -0.7151 -0.3542  0.2563
  179SLPC   H8X20494   0.538   4.511   9.185 -0.5281 -3.3530 -2.3537
  179SLPC   H8Y20495   0.639   4.374   9.241 -0.4451 -0.1210  2.5412
  179SLPC   C3920496   0.741   4.516   9.115 -0.3246  0.2239  1.0222
  179SLPC   H9X20497   0.722   4.444   9.032  0.9374 -0.3615  1.2146
  179SLPC   H9Y20498   0.847   4.506   9.146 -0.6485 -2.1327  1.5776
  179SLPC  C31020499   0.720   4.652   9.054 -0.1099  0.0791  0.2764
  179SLPC  H10X20500   0.718   4.724   9.138 -0.6472 -0.1118  0.4262
  179SLPC  H10Y20501   0.621   4.637   9.006 -0.3320  0.8874  0.4800
  179SLPC  C31120502   0.818   4.673   8.939  0.6188 -0.9421 -0.1494
  179SLPC  H11X20503   0.811   4.609   8.848  1.6886 -0.4217 -0.6049
  179SLPC  H11Y20504   0.922   4.668   8.976 -0.0714  0.2881  2.1658
  179SLPC  C31220505   0.811   4.811   8.884  0.1886  0.1883  0.7960
  179SLPC  H12X20506   0.827   4.893   8.957 -0.4597  2.0258 -1.0390
  179SLPC  H12Y20507   0.707   4.829   8.848  0.0714 -2.7347 -0.6463
  179SLPC  C31320508   0.902   4.825   8.764  0.4482  0.4001 -0.7288
  179SLPC  H13X20509   0.905   4.743   8.689 -2.2986  1.4970 -2.1849
  179SLPC  H13Y20510   1.004   4.833   8.808  0.0331  2.1658  0.0158
  179SLPC  C31420511   0.855   4.942   8.677 -0.1043 -0.0648 -0.5052
  179SLPC  H14X20512   0.858   5.029   8.746  1.2829 -0.2672 -0.2665
  179SLPC  H14Y20513   0.750   4.920   8.648  0.3938 -0.8696 -1.8291
  179SLPC  C31520514   0.932   4.974   8.550  0.0734 -0.1138 -0.4435
  179SLPC  H15X20515   0.910   4.897   8.473 -1.1093 -2.5139  2.1040
  179SLPC  H15Y20516   1.036   4.977   8.589 -1.1440 -1.5692  3.4881
  179SLPC  C31620517   0.879   5.106   8.493 -0.3279 -0.2450 -0.0854
  179SLPC  H16X20518   0.911   5.176   8.573  0.2812 -1.9292  1.2044
  179SLPC  H16Y20519   0.768   5.118   8.492 -0.2385  0.8006  0.5032
  179SLPC  C31720520   0.936   5.134   8.360 -0.3486 -0.8547  0.3479
  179SLPC  H17X20521   0.885   5.073   8.282  0.7289 -0.0588 -1.0423
  179SLPC  H17Y20522   1.037   5.091   8.340 -0.9897 -1.7677 -1.1456
  179SLPC  C31820523   0.915   5.270   8.298 -0.3506  0.2183  0.4602
  179SLPC  H18X20524   0.958   5.345   8.368 -1.0904  0.3996  0.7283
  179SLPC  H18Y20525   0.809   5.296   8.275 -0.5218 -0.7041  0.1944
  179SLPC  H18Z20526   0.975   5.284   8.205 -1.2482 -0.9589 -0.3277
  180SLPC     N20527   6.051   6.648  10.810 -0.0834  0.2598  0.3711
  180SLPC   C1320528   6.032   6.743  10.924 -0.4335  0.8532 -0.4296
  180SLPC  H13A20529   5.934   6.743  10.969  0.1046  1.2802  0.7741
  180SLPC  H13B20530   6.105   6.721  11.000  0.1728 -0.3495 -1.3227
  180SLPC  H13C20531   6.054   6.844  10.895  2.2463  0.5143  0.2273
  180SLPC   C1420532   5.950   6.666  10.697 -0.0215 -0.2396 -0.3512
  180SLPC  H14A20533   5.951   6.765  10.655 -1.7095  0.9421  2.1942
  180SLPC  H14B20534   5.971   6.594  10.620  2.4427 -1.2209  1.1088
  180SLPC  H14C20535   5.848   6.649  10.729  0.0268 -1.2611 -0.6893
  180SLPC   C1520536   6.035   6.509  10.868  0.2012 -0.6161  0.1720
  180SLPC  H15A20537   5.937   6.512  10.913  0.1481 -0.8702  0.0776
  180SLPC  H15B20538   6.055   6.431  10.796 -0.8825  0.5692 -1.4826
  180SLPC  H15C20539   6.101   6.502  10.953 -0.6842  1.9216  1.1638
  180SLPC   C1220540   6.197   6.662  10.761  0.5703  0.2849  0.0404
  180SLPC  H12A20541   6.204   6.596  10.676  0.3144 -1.8712  1.6037
  180SLPC  H12B20542   6.265   6.627  10.838  0.0894 -1.3044 -0.2086
  180SLPC   C1120543   6.247   6.805  10.718  0.7144 -0.3849  0.2140
  180SLPC  H11A20544   6.171   6.836  10.643  0.1705  0.2932  1.0253
  180SLPC  H11B20545   6.345   6.790  10.667  0.6318  0.3079 -0.1658
  180SLPC     P20546   6.387   6.878  10.923 -0.1108 -0.1216  0.0899
  180SLPC   O1320547   6.338   6.892  11.062 -0.7432 -0.4499  0.0157
  180SLPC   O1420548   6.458   6.749  10.904  0.0580  0.0135  0.5161
  180SLPC   O1220549   6.266   6.896  10.825 -0.1164  0.2547  0.2753
  180SLPC   O1120550   6.482   6.999  10.901  0.4208 -0.5253  0.0355
  180SLPC    C120551   6.439   7.110  10.818  0.4993 -0.1452 -0.0497
  180SLPC    HA20552   6.341   7.148  10.853 -0.7613 -1.9066 -1.4382
  180SLPC    HB20553   6.510   7.194  10.831 -1.2887  1.2097  1.5391
  180SLPC    C220554   6.441   7.101  10.662  0.0835  0.1908 -0.3152
  180SLPC    HS20555   6.368   7.024  10.628 -1.5515  1.4305  0.2626
  180SLPC   O2120556   6.572   7.061  10.622 -0.6596 -0.2118 -0.0004
  180SLPC   C2120557   6.583   7.002  10.498  0.2316 -0.1482 -0.1240
  180SLPC   O2220558   6.483   6.960  10.437 -0.4085  0.2530  0.2571
  180SLPC   C2220559   6.729   6.994  10.459  0.1125  0.9612 -0.2051
  180SLPC   H2R20560   6.797   7.051  10.526  2.5686 -0.8543 -1.0089
  180SLPC   H2S20561   6.759   6.888  10.472 -0.6632  0.6392 -0.9845
  180SLPC    C320562   6.409   7.243  10.600 -0.2246  0.0935 -0.1347
  180SLPC    HX20563   6.486   7.318  10.631 -0.7449  0.8027 -0.5412
  180SLPC    HY20564   6.317   7.286  10.644 -1.5612 -3.2944  0.6289
  180SLPC   O3120565   6.417   7.253  10.461  0.1363 -0.3256  0.9546
  180SLPC   C3120566   6.306   7.229  10.394  0.4623  0.0858 -0.4771
  180SLPC   O3220567   6.196   7.206  10.447 -1.1453 -0.1354 -0.3894
  180SLPC   C3220568   6.346   7.235  10.244 -0.1012 -0.2987 -0.0086
  180SLPC   H2X20569   6.385   7.139  10.205 -2.4209 -1.2320 -0.2060
  180SLPC   H2Y20570   6.419   7.316  10.224 -0.2012 -0.2917 -0.3480
  180SLPC   C2320571   6.748   7.034  10.315 -0.6304 -0.5292  0.2913
  180SLPC   H3R20572   6.675   6.976  10.255  0.7631  1.2071 -3.3970
  180SLPC   H3S20573   6.848   7.000  10.281  0.6539 -0.9303  3.9576
  180SLPC   C2420574   6.728   7.189  10.289 -0.6722 -0.1894  0.4855
  180SLPC   H4R20575   6.801   7.250  10.347  1.5915 -0.8812 -1.4839
  180SLPC   H4S20576   6.628   7.220  10.327 -0.2158  0.5481  1.1298
  180SLPC   C2520577   6.753   7.213  10.140 -0.0476  0.4884  0.2152
  180SLPC   H5R20578   6.845   7.165  10.101 -0.3694 -1.5435  1.7913
  180SLPC   H5S20579   6.764   7.320  10.111 -0.3015 -0.3614 -3.5224
  180SLPC   C2620580   6.641   7.148  10.050  0.0351 -0.7248 -0.6729
  180SLPC   H6R20581   6.552   7.200  10.093  1.2324  0.6123  0.2854
  180SLPC   H6S20582   6.629   7.041  10.077 -2.7349 -0.4214 -0.3451
  180SLPC   C2720583   6.659   7.169   9.894 -0.5521  0.6378 -0.8198
  180SLPC   H7R20584   6.571   7.112   9.857 -0.3545 -0.3040  0.0965
  180SLPC   H7S20585   6.745   7.122   9.842 -1.5091  0.5370 -2.3808
  180SLPC   C2820586   6.648   7.317   9.844 -0.0984  0.1742 -0.1154
  180SLPC   H8R20587   6.580   7.370   9.913 -0.9050 -0.8177 -0.1242
  180SLPC   H8S20588   6.607   7.315   9.741  0.7303  0.0691 -0.4540
  180SLPC   C2920589   6.788   7.370   9.842  0.3623 -0.7625 -0.0270
  180SLPC   H9R20590   6.805   7.437   9.928  1.7526 -0.4689 -0.4998
  180SLPC  C21020591   6.874   7.357   9.738  0.4841 -0.1166 -0.4873
  180SLPC  H10R20592   6.982   7.379   9.740  0.5812 -0.2061 -2.6556
  180SLPC  C21120593   6.855   7.308   9.602 -0.6283  0.0009  0.4113
  180SLPC  H11R20594   6.767   7.240   9.599 -0.5861 -0.0294 -0.2490
  180SLPC  H11S20595   6.945   7.246   9.585 -0.8904 -1.5838  3.9880
  180SLPC  C21220596   6.837   7.403   9.494  0.0791  0.5951  0.2716
  180SLPC  H12R20597   6.871   7.505   9.518  0.1932  0.7759 -0.6178
  180SLPC  C21320598   6.812   7.363   9.361 -0.6141 -0.0231  0.1281
  180SLPC  H13R20599   6.761   7.425   9.285  1.8894 -1.1449 -2.6773
  180SLPC  C21420600   6.809   7.219   9.316 -0.7644  0.4435  0.0225
  180SLPC  H14R20601   6.710   7.170   9.306 -0.4353 -0.0811 -0.7441
  180SLPC  H14S20602   6.878   7.167   9.385 -2.9643 -0.2029  1.8740
  180SLPC  C21520603   6.868   7.223   9.179 -0.4357  0.4107  1.1948
  180SLPC  H15R20604   6.853   7.119   9.145  0.2386  0.0493  1.9679
  180SLPC  H15S20605   6.976   7.247   9.165 -0.5658  0.5016  0.3120
  180SLPC  C21620606   6.786   7.304   9.082  0.4668  0.2846  0.7564
  180SLPC  H16R20607   6.813   7.412   9.087 -0.3190  0.6831 -1.8578
  180SLPC  H16S20608   6.676   7.290   9.081  0.4281  0.4442 -1.1674
  180SLPC  C21720609   6.804   7.257   8.932  0.2935 -0.0947 -0.2276
  180SLPC  H17R20610   6.797   7.149   8.910 -0.1199 -0.4038  1.3169
  180SLPC  H17S20611   6.908   7.291   8.909 -0.4721  0.6972 -2.9304
  180SLPC  C21820612   6.696   7.314   8.834  0.1795 -0.3813  0.0710
  180SLPC  H18R20613   6.709   7.287   8.727 -1.9136 -0.0576 -0.3037
  180SLPC  H18S20614   6.689   7.425   8.835 -0.9358 -0.4312 -0.6581
  180SLPC  H18T20615   6.594   7.273   8.849  0.3898 -0.7332  0.5821
  180SLPC   C3320616   6.228   7.272  10.142 -0.7165 -0.8217 -0.5684
  180SLPC   H3X20617   6.200   7.377  10.166  1.6296 -0.3152  0.2744
  180SLPC   H3Y20618   6.146   7.199  10.158 -0.9592 -0.4503 -0.1067
  180SLPC   C3420619   6.284   7.268  10.001 -0.2422  0.2310  0.1566
  180SLPC   H4X20620   6.367   7.198   9.979  0.1554  0.2738  1.4413
  180SLPC   H4Y20621   6.326   7.369   9.984  0.7026 -0.3921 -1.4912
  180SLPC   C3520622   6.173   7.242   9.905  0.0578 -0.3259  0.1540
  180SLPC   H5X20623   6.087   7.307   9.931 -0.1302 -0.4036 -0.2630
  180SLPC   H5Y20624   6.138   7.137   9.918 -1.0232  0.0694  0.5037
  180SLPC   C3620625   6.223   7.267   9.767 -0.1328 -0.0814  0.1077
  180SLPC   H6X20626   6.199   7.176   9.708 -1.8395 -0.6254  1.5149
  180SLPC   H6Y20627   6.333   7.276   9.769 -0.2133  1.6475 -1.2276
  180SLPC   C3720628   6.177   7.399   9.707  0.0752  0.3905 -0.0212
  180SLPC   H7X20629   6.227   7.485   9.756 -0.8341  0.4049  0.9236
  180SLPC   H7Y20630   6.071   7.413   9.736 -0.0123 -0.9973  0.4326
  180SLPC   C3820631   6.205   7.409   9.548  0.4593 -0.6772  0.8103
  180SLPC   H8X20632   6.129   7.470   9.495  0.4373 -0.2673  1.3034
  180SLPC   H8Y20633   6.183   7.305   9.516 -0.5369 -0.0391 -0.7537
  180SLPC   C3920634   6.345   7.451   9.513 -0.7882 -0.1368 -0.7018
  180SLPC   H9X20635   6.415   7.377   9.557  0.2557  1.4314  0.3551
  180SLPC   H9Y20636   6.385   7.545   9.557 -0.0421  0.0430 -1.7403
  180SLPC  C31020637   6.374   7.443   9.360 -0.4371  0.0250 -0.3160
  180SLPC  H10X20638   6.484   7.452   9.360 -0.1346 -2.7223  0.3289
  180SLPC  H10Y20639   6.326   7.522   9.298  1.2905 -0.2830 -2.1756
  180SLPC  C31120640   6.331   7.308   9.313 -0.8078  1.1949 -0.0124
  180SLPC  H11X20641   6.223   7.285   9.299 -0.4569 -0.1638 -0.6125
  180SLPC  H11Y20642   6.363   7.230   9.385 -2.7028 -1.4625 -1.8697
  180SLPC  C31220643   6.382   7.267   9.172 -0.3003 -0.9007  0.3018
  180SLPC  H12X20644   6.493   7.276   9.168 -0.2459 -1.6621 -0.0484
  180SLPC  H12Y20645   6.341   7.348   9.108 -2.4324  0.3834  3.1057
  180SLPC  C31320646   6.360   7.118   9.129 -0.4233  0.3468 -0.4458
  180SLPC  H13X20647   6.263   7.093   9.178 -0.0302 -0.3418  0.0015
  180SLPC  H13Y20648   6.434   7.051   9.177  0.0992  1.7423  0.8166
  180SLPC  C31420649   6.375   7.091   8.980  0.4305  0.3784  0.5478
  180SLPC  H14X20650   6.380   6.980   8.972  0.0392  0.4480 -0.9006
  180SLPC  H14Y20651   6.468   7.132   8.934  0.8863  1.2210  2.1618
  180SLPC  C31520652   6.256   7.130   8.896 -0.1594 -0.4191  0.5612
  180SLPC  H15X20653   6.246   7.240   8.889  1.2585 -0.2943  0.1804
  180SLPC  H15Y20654   6.164   7.090   8.944  0.1963 -1.7554  0.1824
  180SLPC  C31620655   6.258   7.064   8.758 -0.4063  0.1788  0.2115
  180SLPC  H16X20656   6.159   7.097   8.719 -0.3290  3.4665  2.3740
  180SLPC  H16Y20657   6.255   6.954   8.752  0.1833  0.1147  0.9822
  180SLPC  C31720658   6.369   7.110   8.673 -0.1855  0.0520  0.3062
  180SLPC  H17X20659   6.466   7.079   8.717 -0.3502  0.6523  1.1134
  180SLPC  H17Y20660   6.368   7.221   8.676 -1.6155  0.0412  2.3198
  180SLPC  C31820661   6.355   7.061   8.523  0.5651  0.5447 -0.8963
  180SLPC  H18X20662   6.382   6.954   8.513  1.3158  0.4424  1.5837
  180SLPC  H18Y20663   6.429   7.113   8.458 -0.5654 -1.9183 -4.5196
  180SLPC  H18Z20664   6.261   7.083   8.467  0.7487  0.1674 -1.3677
  181SLPC     N20665   4.917   4.838  11.051  0.0341 -0.1259 -0.8398
  181SLPC   C1320666   5.000   4.850  10.929 -0.2460 -0.0607 -0.5406
  181SLPC  H13A20667   5.024   4.751  10.892 -0.1820 -0.1177 -0.3518
  181SLPC  H13B20668   4.949   4.910  10.855 -1.5097 -0.6778 -0.1946
  181SLPC  H13C20669   5.096   4.897  10.945  0.6283 -1.7909 -0.4161
  181SLPC   C1420670   4.792   4.752  11.022 -0.3876 -0.4798  0.1083
  181SLPC  H14A20671   4.825   4.657  10.983 -0.0889 -0.7393  0.9650
  181SLPC  H14B20672   4.720   4.728  11.100 -2.8441 -0.3969 -2.0134
  181SLPC  H14C20673   4.740   4.811  10.948  0.0696  0.6295  0.6381
  181SLPC   C1520674   4.876   4.974  11.102  0.8909  0.1739  0.2693
  181SLPC  H15A20675   4.955   5.047  11.116  0.9727  0.5118 -1.7099
  181SLPC  H15B20676   4.809   5.005  11.024  0.2956  3.0851  1.7982
  181SLPC  H15C20677   4.824   4.964  11.196 -0.9573 -2.3813 -0.9275
  181SLPC   C1220678   5.002   4.771  11.150  0.1167  0.2175 -0.2260
  181SLPC  H12A20679   4.937   4.763  11.235 -0.0082  1.5395 -0.1785
  181SLPC  H12B20680   5.088   4.834  11.168  0.4726  0.0426 -1.2158
  181SLPC   C1120681   5.053   4.630  11.120  0.3293  0.1260 -0.0381
  181SLPC  H11A20682   5.105   4.589  11.210  1.4649 -2.3831 -1.7165
  181SLPC  H11B20683   5.127   4.634  11.038 -0.1677 -0.2359 -0.5106
  181SLPC     P20684   4.994   4.404  11.013  0.2702  0.3542 -0.0962
  181SLPC   O1320685   5.111   4.353  11.084 -0.1416 -0.2327  0.3280
  181SLPC   O1420686   4.878   4.316  11.005  0.0424 -0.4142 -0.1319
  181SLPC   O1220687   4.946   4.535  11.087  0.4007  0.8611  0.0436
  181SLPC   O1120688   5.041   4.448  10.871  1.1705 -0.7161  0.0890
  181SLPC    C120689   4.956   4.519  10.778  0.1695 -0.0807 -0.3994
  181SLPC    HA20690   4.883   4.589  10.823  1.5438  1.4646 -0.4529
  181SLPC    HB20691   5.017   4.586  10.713 -1.2864 -1.3348 -3.2505
  181SLPC    C220692   4.879   4.426  10.684 -0.2043  0.2439  0.1882
  181SLPC    HS20693   4.803   4.372  10.745 -0.1176  0.2401  0.2914
  181SLPC   O2120694   4.981   4.324  10.642 -0.2574 -0.2226  0.0638
  181SLPC   C2120695   4.935   4.207  10.583  0.8538 -0.2277  0.1288
  181SLPC   O2220696   4.815   4.189  10.561 -0.2350  0.1025 -0.3942
  181SLPC   C2220697   5.042   4.110  10.570  0.8184 -0.6782 -0.0649
  181SLPC   H2R20698   5.139   4.149  10.605  1.3110 -2.2750  0.4478
  181SLPC   H2S20699   5.019   4.019  10.629  0.7156  0.3293  1.5024
  181SLPC    C320700   4.802   4.488  10.566  0.0299  0.0590 -0.1057
  181SLPC    HX20701   4.729   4.558  10.612  0.2640 -0.3520  0.9164
  181SLPC    HY20702   4.742   4.408  10.516 -1.2032 -0.1836  1.6737
  181SLPC   O3120703   4.885   4.574  10.479  0.1865 -0.2103  0.4691
  181SLPC   C3120704   4.898   4.555  10.344 -0.7145 -0.2857  0.0736
  181SLPC   O3220705   4.851   4.458  10.286  0.4892  0.2685 -0.6682
  181SLPC   C3220706   4.966   4.679  10.280 -0.5877  0.1798  0.1207
  181SLPC   H2X20707   5.046   4.647  10.211 -1.5881 -0.1535 -0.9290
  181SLPC   H2Y20708   5.002   4.742  10.364  1.7126  0.2331 -0.8300
  181SLPC   C2320709   5.056   4.068  10.422 -0.1468 -0.3878 -0.5660
  181SLPC   H3R20710   4.965   4.065  10.358  0.0170 -0.5663 -0.7942
  181SLPC   H3S20711   5.086   3.962  10.429 -0.9801 -0.6369 -0.6464
  181SLPC   C2420712   5.160   4.131  10.334 -0.1543 -0.9525  0.2295
  181SLPC   H4R20713   5.245   4.138  10.406  0.4839  1.2359 -0.6344
  181SLPC   H4S20714   5.127   4.234  10.309  1.2148 -0.7190 -0.7787
  181SLPC   C2520715   5.200   4.052  10.203  0.8467  0.0808 -0.5166
  181SLPC   H5R20716   5.255   3.962  10.238  2.0634  0.5876 -1.0497
  181SLPC   H5S20717   5.283   4.118  10.169  1.1962  0.9222  1.7601
  181SLPC   C2620718   5.095   4.008  10.110 -0.1307 -0.5585 -0.4093
  181SLPC   H6R20719   5.016   3.957  10.169 -1.3789  0.6445 -0.9874
  181SLPC   H6S20720   5.131   3.938  10.033 -2.6557 -1.9942 -0.3956
  181SLPC   C2720721   5.024   4.133  10.050  0.3339 -0.0955  0.4139
  181SLPC   H7R20722   4.977   4.193  10.130  0.2882  0.2004  0.1659
  181SLPC   H7S20723   4.941   4.092   9.988 -0.2497 -1.7510  2.1869
  181SLPC   C2820724   5.125   4.218   9.963 -0.0070 -0.1492 -0.7430
  181SLPC   H8R20725   5.187   4.149   9.901  0.8992 -2.1747  2.1761
  181SLPC   H8S20726   5.187   4.271  10.039 -0.2168  0.7961 -1.2228
  181SLPC   C2920727   5.043   4.312   9.883  0.5920 -1.1062  0.2270
  181SLPC   H9R20728   4.982   4.376   9.949  1.2320 -0.9742  0.7059
  181SLPC  C21020729   5.040   4.326   9.750  0.0188  0.3918  0.5025
  181SLPC  H10R20730   4.960   4.388   9.707 -3.2454 -1.6526  3.0897
  181SLPC  C21120731   5.129   4.242   9.659 -0.0221  0.6114  0.3103
  181SLPC  H11R20732   5.094   4.139   9.634 -2.2977  1.9677 -2.7718
  181SLPC  H11S20733   5.232   4.247   9.701  0.9461 -0.3654 -1.7989
  181SLPC  C21220734   5.130   4.302   9.521  0.5934 -0.5615 -0.3309
  181SLPC  H12R20735   5.098   4.407   9.521  2.2841  0.0275  1.5806
  181SLPC  C21320736   5.166   4.250   9.405 -0.1033  0.1521  0.0043
  181SLPC  H13R20737   5.150   4.312   9.315 -0.9767 -0.3058 -0.1701
  181SLPC  C21420738   5.232   4.111   9.383  0.3372  0.6865  0.2602
  181SLPC  H14R20739   5.235   4.048   9.475 -0.2718  0.7274  0.3125
  181SLPC  H14S20740   5.336   4.114   9.345  0.4761 -0.6664  0.4815
  181SLPC  C21520741   5.133   4.051   9.283  0.6488  0.7450  0.1895
  181SLPC  H15R20742   5.135   4.115   9.193  0.7437 -0.5754 -0.7690
  181SLPC  H15S20743   5.032   4.055   9.329  0.0583  1.4745 -1.1306
  181SLPC  C21620744   5.167   3.911   9.233 -0.0704  0.2753  0.2285
  181SLPC  H16R20745   5.277   3.910   9.221  0.0713 -1.6385  1.2923
  181SLPC  H16S20746   5.107   3.889   9.142 -1.0031 -0.9643  1.1042
  181SLPC  C21720747   5.135   3.801   9.336 -0.1353 -0.4653  0.2850
  181SLPC  H17R20748   5.194   3.827   9.426 -1.9772  2.9590  0.6826
  181SLPC  H17S20749   5.166   3.702   9.297  1.5068 -0.3060  1.1079
  181SLPC  C21820750   4.985   3.795   9.358  0.0548  0.0971  0.8661
  181SLPC  H18R20751   4.953   3.872   9.432 -1.2948  0.4983 -0.0849
  181SLPC  H18S20752   4.966   3.697   9.406  0.2987 -0.8083 -0.8290
  181SLPC  H18T20753   4.926   3.803   9.265  2.0581 -1.0921 -0.5734
  181SLPC   C3320754   4.864   4.754  10.184  0.5471 -0.1781 -0.2123
  181SLPC   H3X20755   4.798   4.820  10.244  0.9682  0.9280 -0.9366
  181SLPC   H3Y20756   4.803   4.668  10.149  2.3252 -1.9882  0.9532
  181SLPC   C3420757   4.917   4.828  10.062 -0.7355  0.0271  0.0658
  181SLPC   H4X20758   5.019   4.865  10.082 -1.0576  0.0553  1.8291
  181SLPC   H4Y20759   4.858   4.919  10.039  0.5525  0.7371 -0.5080
  181SLPC   C3520760   4.898   4.739   9.936  0.8244  0.2507  0.3220
  181SLPC   H5X20761   4.790   4.716   9.927  0.6733  1.2501 -0.5351
  181SLPC   H5Y20762   4.944   4.639   9.948 -0.3520 -0.4095 -0.5500
  181SLPC   C3620763   4.945   4.798   9.805  0.3895 -0.6040  0.3619
  181SLPC   H6X20764   5.043   4.850   9.815 -0.0628  0.1752  0.9002
  181SLPC   H6Y20765   4.877   4.885   9.788  0.9246  0.1652  1.9049
  181SLPC   C3720766   4.944   4.700   9.685 -0.0193  0.2446 -0.2812
  181SLPC   H7X20767   4.851   4.640   9.689  0.7088 -0.8583  0.5338
  181SLPC   H7Y20768   5.035   4.635   9.683 -1.4762 -1.8875 -0.9527
  181SLPC   C3820769   4.931   4.768   9.549  0.4152  0.1209 -0.2428
  181SLPC   H8X20770   5.024   4.828   9.537 -0.3191  1.3030 -0.1825
  181SLPC   H8Y20771   4.840   4.832   9.544 -0.8272 -1.5504  0.3180
  181SLPC   C3920772   4.913   4.663   9.445 -0.1172 -0.0148  0.6005
  181SLPC   H9X20773   4.803   4.645   9.449  0.0416 -1.3514 -0.4738
  181SLPC   H9Y20774   4.975   4.571   9.452  0.0658  0.1071  0.6016
  181SLPC  C31020775   4.946   4.706   9.300 -0.3994 -0.1578  0.6501
  181SLPC  H10X20776   5.055   4.692   9.284 -0.8515 -0.4523 -3.2883
  181SLPC  H10Y20777   4.910   4.811   9.291 -2.3795 -0.6859  1.6527
  181SLPC  C31120778   4.878   4.618   9.185  0.0085  0.6166 -0.3246
  181SLPC  H11X20779   4.898   4.509   9.195  0.2978  0.5606 -1.3375
  181SLPC  H11Y20780   4.925   4.652   9.090  0.1687 -1.1474 -0.9251
  181SLPC  C31220781   4.726   4.638   9.176 -0.5151 -0.2194  0.2703
  181SLPC  H12X20782   4.704   4.741   9.139 -1.7180 -0.7102 -0.4269
  181SLPC  H12Y20783   4.689   4.629   9.280 -0.8165  2.7535  0.5084
  181SLPC  C31320784   4.653   4.532   9.082 -0.5549 -0.6807  0.1126
  181SLPC  H13X20785   4.546   4.536   9.112 -0.3161  1.4301  0.8398
  181SLPC  H13Y20786   4.689   4.432   9.112  1.4257  0.5072  2.0120
  181SLPC  C31420787   4.665   4.564   8.926 -0.4627 -0.1705  0.0514
  181SLPC  H14X20788   4.774   4.586   8.920 -1.1343  3.6476 -0.5460
  181SLPC  H14Y20789   4.613   4.659   8.906 -1.5611 -1.1941 -2.4038
  181SLPC  C31520790   4.599   4.452   8.849 -0.0083 -0.1515  0.5175
  181SLPC  H15X20791   4.495   4.429   8.878 -0.4964 -0.4413 -1.3601
  181SLPC  H15Y20792   4.656   4.359   8.869 -2.3623 -1.9116 -0.4771
  181SLPC  C31620793   4.610   4.478   8.695 -0.2449 -0.5703  0.7742
  181SLPC  H16X20794   4.575   4.381   8.654 -0.9224 -0.2958  0.7015
  181SLPC  H16Y20795   4.716   4.486   8.662  0.4519 -1.1146  2.7196
  181SLPC  C31720796   4.528   4.589   8.634  0.4288 -0.0099  0.4690
  181SLPC  H17X20797   4.590   4.611   8.544 -0.1942  1.0628  0.2875
  181SLPC  H17Y20798   4.530   4.688   8.685 -0.1631  1.5585 -2.2855
  181SLPC  C31820799   4.387   4.552   8.587 -0.4630  0.4387 -0.3077
  181SLPC  H18X20800   4.386   4.458   8.528  1.3620 -2.4044  3.7098
  181SLPC  H18Y20801   4.347   4.638   8.529  2.9330  1.4574 -1.4149
  181SLPC  H18Z20802   4.317   4.523   8.668  0.9500 -1.8028  0.1940
  182SLPC     N20803   1.642   6.302  11.192 -0.0618  0.0371  0.4742
  182SLPC   C1320804   1.515   6.224  11.173 -0.2478  0.7183  0.1050
  182SLPC  H13A20805   1.529   6.122  11.204  2.5617  0.6076 -1.1745
  182SLPC  H13B20806   1.431   6.271  11.223 -0.2891 -0.3188  1.0306
  182SLPC  H13C20807   1.478   6.229  11.072 -0.8280  0.0278  0.2817
  182SLPC   C1420808   1.753   6.196  11.181 -0.0767  0.0678  0.3162
  182SLPC  H14A20809   1.755   6.149  11.084 -0.4166  0.6627  0.0120
  182SLPC  H14B20810   1.853   6.234  11.199  0.9721 -1.3495 -2.0377
  182SLPC  H14C20811   1.738   6.124  11.259  2.1577  1.1400  1.8487
  182SLPC   C1520812   1.646   6.357  11.332  0.6773 -0.2520 -0.2758
  182SLPC  H15A20813   1.573   6.437  11.333 -1.2243 -1.9223 -0.5972
  182SLPC  H15B20814   1.631   6.282  11.408 -1.3655 -0.4614 -0.8370
  182SLPC  H15C20815   1.737   6.404  11.367  0.3829 -0.3680  0.6719
  182SLPC   C1220816   1.677   6.404  11.094  0.0971  0.2840  0.1091
  182SLPC  H12A20817   1.776   6.440  11.116 -0.6762  2.9312 -0.4728
  182SLPC  H12B20818   1.611   6.488  11.106 -1.1516 -0.1955 -2.6603
  182SLPC   C1120819   1.686   6.358  10.941 -0.2417  0.0806 -0.1641
  182SLPC  H11A20820   1.667   6.448  10.879 -0.7319 -0.8003 -1.3302
  182SLPC  H11B20821   1.598   6.290  10.933  1.9544 -2.8421 -1.1988
  182SLPC     P20822   1.937   6.366  10.889  0.0019 -0.0177  0.2196
  182SLPC   O1320823   1.976   6.450  11.004  0.6343  0.5223 -0.5966
  182SLPC   O1420824   2.033   6.264  10.854 -0.9080  0.0220 -0.0396
  182SLPC   O1220825   1.808   6.285  10.922 -0.1082  0.3503 -0.1413
  182SLPC   O1120826   1.888   6.457  10.762 -0.0354  0.0309 -0.1193
  182SLPC    C120827   1.888   6.398  10.634 -0.0679  0.8745  1.1074
  182SLPC    HA20828   1.889   6.287  10.625 -1.9625  0.8771  0.4575
  182SLPC    HB20829   1.791   6.424  10.587 -0.0527  0.9787  1.1352
  182SLPC    C220830   2.004   6.437  10.538 -0.0434 -0.6702 -0.0707
  182SLPC    HS20831   2.013   6.543  10.567  0.2133 -0.5525 -0.5695
  182SLPC   O2120832   1.958   6.404  10.394  0.4213  0.4102 -0.4539
  182SLPC   C2120833   1.965   6.509  10.317  0.6389  0.6032 -0.2233
  182SLPC   O2220834   1.982   6.624  10.352 -0.3858  0.4073 -0.2508
  182SLPC   C2220835   1.922   6.464  10.177 -0.3164  0.0018  0.0646
  182SLPC   H2R20836   1.983   6.374  10.152  1.2853  1.0427  0.0863
  182SLPC   H2S20837   1.812   6.448  10.175 -0.2429 -0.5115 -0.2544
  182SLPC    C320838   2.139   6.363  10.571 -0.0599  0.6619  0.1061
  182SLPC    HX20839   2.126   6.254  10.552 -1.9987 -0.0960  4.5887
  182SLPC    HY20840   2.157   6.379  10.679  0.4926  0.0141  0.1138
  182SLPC   O3120841   2.242   6.411  10.481 -0.1733  0.5831  0.0852
  182SLPC   C3120842   2.293   6.524  10.510 -0.0186  0.3595  0.3329
  182SLPC   O3220843   2.261   6.597  10.601 -0.1038 -0.0499  0.6408
  182SLPC   C3220844   2.401   6.565  10.408  0.2383 -0.1515  0.1423
  182SLPC   H2X20845   2.470   6.479  10.395 -1.0625 -0.9086 -2.2133
  182SLPC   H2Y20846   2.467   6.641  10.456 -1.9963  1.5703  0.6438
  182SLPC   C2320847   1.962   6.568  10.070 -0.1972 -0.0975  1.0338
  182SLPC   H3R20848   2.072   6.583  10.063 -0.5137  1.6431 -2.3528
  182SLPC   H3S20849   1.902   6.658  10.092 -1.0634 -1.2774  3.9885
  182SLPC   C2420850   1.923   6.517   9.929 -0.2474 -0.1297 -0.2096
  182SLPC   H4R20851   1.822   6.476   9.911  0.9523 -2.8476 -1.3545
  182SLPC   H4S20852   1.989   6.432   9.899  0.5283  0.1247  0.7296
  182SLPC   C2520853   1.937   6.619   9.822  0.3025 -0.3414  0.1821
  182SLPC   H5R20854   2.042   6.656   9.823  0.0084  0.5380 -0.2500
  182SLPC   H5S20855   1.876   6.707   9.853  1.8847  0.9439 -0.1968
  182SLPC   C2620856   1.906   6.565   9.683 -0.3570  0.6711  0.2818
  182SLPC   H6R20857   1.808   6.512   9.685  0.3069 -0.7178 -1.3516
  182SLPC   H6S20858   1.964   6.471   9.675  1.6946  1.2165  5.2536
  182SLPC   C2720859   1.913   6.672   9.577  0.7707  0.6522 -0.1359
  182SLPC   H7R20860   2.017   6.706   9.558  0.5315  0.7835 -1.3155
  182SLPC   H7S20861   1.855   6.753   9.626  0.1891 -0.5120  1.1394
  182SLPC   C2820862   1.846   6.647   9.441 -0.0022 -0.1818  1.2215
  182SLPC   H8R20863   1.841   6.747   9.394 -1.7476 -0.5213  0.6276
  182SLPC   H8S20864   1.743   6.606   9.449 -0.8859  1.9634  1.4011
  182SLPC   C2920865   1.924   6.554   9.350  0.0721 -0.1443 -0.6710
  182SLPC   H9R20866   1.987   6.477   9.396  0.6899 -0.1226 -1.4699
  182SLPC  C21020867   1.921   6.559   9.212 -0.1983  0.1528  0.1357
  182SLPC  H10R20868   1.977   6.480   9.159  0.4256  0.9252 -0.3790
  182SLPC  C21120869   1.834   6.646   9.120  0.0327  0.7252  0.1400
  182SLPC  H11R20870   1.869   6.613   9.020  0.4719  0.4192  0.3846
  182SLPC  H11S20871   1.872   6.750   9.123  1.0403  0.4319 -1.2331
  182SLPC  C21220872   1.686   6.626   9.133  0.0671 -0.1485  0.6855
  182SLPC  H12R20873   1.659   6.559   9.216 -1.4155 -1.6963 -0.9559
  182SLPC  C21320874   1.597   6.688   9.051 -0.2950  0.7526  0.4229
  182SLPC  H13R20875   1.489   6.685   9.072 -0.8178  2.0264 -1.8206
  182SLPC  C21420876   1.641   6.784   8.941  0.6874  0.1625  0.1554
  182SLPC  H14R20877   1.751   6.799   8.942  0.9035 -1.1816 -0.7010
  182SLPC  H14S20878   1.591   6.882   8.953  0.3663  0.0812 -0.4608
  182SLPC  C21520879   1.618   6.727   8.795  0.0213 -0.5847 -0.1627
  182SLPC  H15R20880   1.510   6.723   8.769 -0.0083  2.2632 -0.8448
  182SLPC  H15S20881   1.655   6.623   8.784  0.4519 -0.3614 -0.9003
  182SLPC  C21620882   1.669   6.816   8.688 -0.0709 -0.3744  0.0547
  182SLPC  H16R20883   1.779   6.803   8.695 -0.0460  0.3154  1.2172
  182SLPC  H16S20884   1.649   6.919   8.726 -0.7956 -0.5518  0.1827
  182SLPC  C21720885   1.620   6.791   8.551 -0.7339 -0.6323 -0.6315
  182SLPC  H17R20886   1.650   6.867   8.476 -0.1390  0.4504  0.6665
  182SLPC  H17S20887   1.509   6.779   8.544 -0.7719 -0.1027 -1.0085
  182SLPC  C21820888   1.676   6.660   8.492  0.5178 -0.1274  0.6450
  182SLPC  H18R20889   1.787   6.654   8.499  0.4956  1.0698  2.6337
  182SLPC  H18S20890   1.635   6.665   8.389 -1.1587  0.2996  1.2956
  182SLPC  H18T20891   1.625   6.575   8.543  1.6999 -0.2495  1.6547
  182SLPC   C3320892   2.353   6.610  10.271  0.1966 -0.1547 -0.0887
  182SLPC   H3X20893   2.265   6.549  10.242 -0.1523  0.2952  0.0172
  182SLPC   H3Y20894   2.432   6.598  10.194  0.0381  0.0546 -0.2861
  182SLPC   C3420895   2.332   6.761  10.269 -0.1098  1.1110 -0.1435
  182SLPC   H4X20896   2.429   6.811  10.287  1.0703 -1.7947  2.4587
  182SLPC   H4Y20897   2.267   6.769  10.358 -0.0920 -2.0248  0.2552
  182SLPC   C3520898   2.272   6.811  10.129 -0.1025  0.0208 -0.3690
  182SLPC   H5X20899   2.250   6.917  10.153  0.2541  0.3012 -1.2329
  182SLPC   H5Y20900   2.176   6.757  10.116 -0.1011  0.2396 -1.4361
  182SLPC   C3620901   2.372   6.800  10.014 -0.3695 -0.2879  0.3478
  182SLPC   H6X20902   2.386   6.695   9.982  1.1396  0.3576 -1.2774
  182SLPC   H6Y20903   2.469   6.833  10.057 -0.8099 -0.1249  1.2308
  182SLPC   C3720904   2.343   6.883   9.891  1.0682  0.4079 -0.4415
  182SLPC   H7X20905   2.328   6.992   9.907 -5.1029 -0.3863  1.5779
  182SLPC   H7Y20906   2.244   6.854   9.850  0.1217  1.6992  0.8042
  182SLPC   C3820907   2.455   6.868   9.790 -0.4130  0.5810  0.4025
  182SLPC   H8X20908   2.474   6.758   9.783 -1.4450  0.4208 -0.1519
  182SLPC   H8Y20909   2.549   6.914   9.827 -0.8105  1.3596  0.4547
  182SLPC   C3920910   2.437   6.912   9.642  0.3566 -0.0264  0.6344
  182SLPC   H9X20911   2.529   6.944   9.588 -1.0239  3.4328  0.0911
  182SLPC   H9Y20912   2.375   7.004   9.646 -0.3688 -0.4028 -0.9533
  182SLPC  C31020913   2.372   6.815   9.553 -0.6253 -0.4291  0.4972
  182SLPC  H10X20914   2.299   6.760   9.616  0.2464 -0.0504  1.8689
  182SLPC  H10Y20915   2.454   6.752   9.513 -0.8072 -0.5993  0.3943
  182SLPC  C31120916   2.302   6.874   9.431 -0.0980  0.0586  0.0948
  182SLPC  H11X20917   2.372   6.941   9.377 -1.3740  0.5754 -0.9771
  182SLPC  H11Y20918   2.215   6.939   9.456  0.9949  1.7352 -0.2970
  182SLPC  C31220919   2.266   6.775   9.317 -0.4273  0.1527  0.1308
  182SLPC  H12X20920   2.196   6.699   9.358  1.0132 -1.2824  0.0537
  182SLPC  H12Y20921   2.355   6.720   9.279  0.5444  0.9040  1.2255
  182SLPC  C31320922   2.195   6.840   9.194 -0.0154  0.2503 -1.0328
  182SLPC  H13X20923   2.221   6.947   9.188  1.4279 -0.0635 -0.7820
  182SLPC  H13Y20924   2.084   6.835   9.199 -0.1463  0.5699 -2.8751
  182SLPC  C31420925   2.229   6.768   9.061 -0.1420  0.1730  0.4108
  182SLPC  H14X20926   2.237   6.660   9.084  1.8991  0.0671 -0.5601
  182SLPC  H14Y20927   2.331   6.806   9.040  0.1091  0.1108  1.4695
  182SLPC  C31520928   2.142   6.807   8.944  0.2621  0.4327  0.0632
  182SLPC  H15X20929   2.129   6.917   8.945  1.9172  0.6613 -0.5199
  182SLPC  H15Y20930   2.039   6.767   8.959 -0.5610  2.7675  1.0511
  182SLPC  C31620931   2.196   6.767   8.805  0.4133  0.2728  0.2406
  182SLPC  H16X20932   2.267   6.846   8.770  2.2607 -1.3287  0.2140
  182SLPC  H16Y20933   2.104   6.775   8.745 -1.2840 -1.1513  2.4983
  182SLPC  C31720934   2.246   6.624   8.789 -0.4367 -0.1590 -0.9587
  182SLPC  H17X20935   2.177   6.549   8.835  0.8762  0.6424  2.7259
  182SLPC  H17Y20936   2.345   6.624   8.840 -1.2759  1.1598  0.8049
  182SLPC  C31820937   2.263   6.571   8.646  0.3366  0.1667  0.4837
  182SLPC  H18X20938   2.217   6.642   8.574  1.1102  1.1325  0.9248
  182SLPC  H18Y20939   2.220   6.469   8.630 -0.1061  0.6316 -1.6748
  182SLPC  H18Z20940   2.370   6.578   8.616  0.0587 -0.8819 -0.8541
  183SLPC     N20941   3.883   1.733  10.736  0.4381  0.3713 -0.5366
  183SLPC   C1320942   3.992   1.782  10.654 -0.4488  0.4138  0.5350
  183SLPC  H13A20943   4.015   1.888  10.662 -3.1071  1.2352 -1.2150
  183SLPC  H13B20944   4.077   1.726  10.690 -0.7215  0.9679  2.0980
  183SLPC  H13C20945   3.984   1.756  10.549 -1.5720  1.1298  0.4315
  183SLPC   C1420946   3.911   1.761  10.878 -0.0991  0.2082  1.1751
  183SLPC  H14A20947   3.921   1.869  10.879  0.0265  0.2658 -1.3774
  183SLPC  H14B20948   3.829   1.726  10.939 -1.0012 -1.9993 -1.1292
  183SLPC  H14C20949   4.000   1.717  10.922  0.5883  0.7793  0.3877
  183SLPC   C1520950   3.877   1.583  10.726 -0.1824 -1.2035 -0.1748
  183SLPC  H15A20951   3.850   1.554  10.626  1.2269 -0.6239 -0.7615
  183SLPC  H15B20952   3.976   1.548  10.750  0.7090  0.0869 -1.7182
  183SLPC  H15C20953   3.792   1.557  10.787 -1.1772 -0.2791 -1.1328
  183SLPC   C1220954   3.756   1.783  10.689  0.4981  0.8165  0.2482
  183SLPC  H12A20955   3.724   1.720  10.606  1.5819 -1.5849  1.5583
  183SLPC  H12B20956   3.762   1.888  10.663  1.9761  0.7107  0.0933
  183SLPC   C1120957   3.633   1.770  10.782  0.4102  0.4102  0.2658
  183SLPC  H11A20958   3.544   1.819  10.736  1.6620 -0.0344 -2.9312
  183SLPC  H11B20959   3.652   1.823  10.877 -1.8187 -1.2977  1.7661
  183SLPC     P20960   3.465   1.597  10.865  0.2034  0.2149  0.1478
  183SLPC   O1320961   3.475   1.480  10.949 -0.0280 -0.3513 -0.0217
  183SLPC   O1420962   3.393   1.713  10.921 -0.6965 -0.8682  0.0886
  183SLPC   O1220963   3.606   1.632  10.802  1.0247 -0.2154 -0.8535
  183SLPC   O1120964   3.378   1.549  10.736 -0.3279 -0.6241 -0.2562
  183SLPC    C120965   3.438   1.551  10.608 -0.3676 -0.4774 -0.2729
  183SLPC    HA20966   3.460   1.654  10.571 -0.1707  0.0291  1.1734
  183SLPC    HB20967   3.530   1.489  10.612  1.0309  1.1874 -3.1658
  183SLPC    C220968   3.337   1.496  10.501  0.0910 -0.0376 -0.4514
  183SLPC    HS20969   3.245   1.556  10.488  1.3699  1.6778 -2.3585
  183SLPC   O2120970   3.299   1.363  10.537 -0.3792  0.6571 -0.5042
  183SLPC   C2120971   3.184   1.316  10.479  0.1355  0.0934 -1.0239
  183SLPC   O2220972   3.098   1.387  10.431 -0.5294 -0.0049 -0.1288
  183SLPC   C2220973   3.179   1.162  10.503  0.1526 -0.0089  0.2205
  183SLPC   H2R20974   3.223   1.115  10.412  1.4490 -0.2661  0.9716
  183SLPC   H2S20975   3.241   1.140  10.592  2.3236 -1.6314 -1.5676
  183SLPC    C320976   3.418   1.502  10.360 -0.3571  0.5662 -0.5114
  183SLPC    HX20977   3.516   1.451  10.373 -0.7291 -0.6119 -2.0535
  183SLPC    HY20978   3.450   1.606  10.335  1.0529 -0.1067 -1.6336
  183SLPC   O3120979   3.353   1.435  10.256  0.0378  0.7880  0.0619
  183SLPC   C3120980   3.261   1.502  10.183 -0.2587  0.0593 -1.2026
  183SLPC   O3220981   3.244   1.623  10.189 -0.0158 -0.1038 -0.1493
  183SLPC   C3220982   3.187   1.396  10.100 -0.3735 -0.4002 -0.7304
  183SLPC   H2X20983   3.175   1.299  10.154 -0.9618  0.3217  0.4879
  183SLPC   H2Y20984   3.246   1.381  10.007  0.2167 -2.3221 -0.0931
  183SLPC   C2320985   3.037   1.106  10.542 -0.5683 -0.6499  1.0498
  183SLPC   H3R20986   3.009   1.160  10.635 -0.5180  0.8982  0.1959
  183SLPC   H3S20987   3.044   0.999  10.570  1.7623  0.0996  3.8351
  183SLPC   C2420988   2.934   1.123  10.429  0.1846  0.1595 -0.0303
  183SLPC   H4R20989   2.900   1.228  10.417 -1.7371 -0.2319  1.5875
  183SLPC   H4S20990   2.844   1.068  10.463 -0.4743  1.8820  1.1777
  183SLPC   C2520991   2.973   1.075  10.289  0.2072 -0.1118  0.1393
  183SLPC   H5R20992   3.030   1.153  10.233 -1.6622  1.6619  0.5689
  183SLPC   H5S20993   2.882   1.070  10.225  2.2551 -0.7892 -2.9662
  183SLPC   C2620994   3.039   0.941  10.274 -0.3970 -0.1168 -0.2667
  183SLPC   H6R20995   2.963   0.864  10.302  0.6219 -1.7359 -1.7363
  183SLPC   H6S20996   3.123   0.938  10.346  1.5488 -0.1812 -2.4321
  183SLPC   C2720997   3.100   0.912  10.139 -0.2818 -0.0649 -0.5804
  183SLPC   H7R20998   3.164   0.822  10.137 -1.5599 -0.9943 -1.1031
  183SLPC   H7S20999   3.162   1.003  10.123  0.6501 -0.7573 -0.9464
  183SLPC   C2821000   2.995   0.896  10.035 -0.2410 -0.5340  0.5781
  183SLPC   H8R21001   3.037   0.908   9.933 -3.5586 -1.5688 -1.0638
  183SLPC   H8S21002   2.934   0.989  10.039  0.5025  0.0019 -0.1578
  183SLPC   C2921003   2.908   0.772  10.045 -0.3287  0.2647  0.0759
  183SLPC   H9R21004   2.932   0.711  10.134  3.1653 -1.0997 -1.6037
  183SLPC  C21021005   2.822   0.711   9.952 -0.4223  0.0122  0.2704
  183SLPC  H10R21006   2.774   0.616   9.976 -0.7190  0.1914  0.3913
  183SLPC  C21121007   2.793   0.769   9.811 -0.0795  0.0169  0.1112
  183SLPC  H11R21008   2.838   0.712   9.727  2.5568  0.1339  1.3264
  183SLPC  H11S21009   2.820   0.876   9.803 -3.2630  0.8975 -0.3789
  183SLPC  C21221010   2.645   0.763   9.791  0.1048  0.4704  0.0717
  183SLPC  H12R21011   2.604   0.661   9.798 -1.2807  0.6729 -3.3463
  183SLPC  C21321012   2.552   0.858   9.762  0.0808 -0.2617 -0.2064
  183SLPC  H13R21013   2.445   0.832   9.756  0.3663 -2.0975  1.6527
  183SLPC  C21421014   2.583   1.010   9.738  0.3744  0.2660  0.1778
  183SLPC  H14R21015   2.685   1.034   9.776  0.5307  0.7773 -0.5506
  183SLPC  H14S21016   2.510   1.063   9.803 -0.3982 -0.0885 -0.3906
  183SLPC  C21521017   2.552   1.045   9.594 -0.7772  0.0648 -0.2412
  183SLPC  H15R21018   2.561   1.155   9.587  0.9804 -0.0630 -0.5754
  183SLPC  H15S21019   2.444   1.036   9.571 -0.8559  1.2330 -0.3658
  183SLPC  C21621020   2.629   0.969   9.482  0.7697 -0.9348  0.5150
  183SLPC  H16R21021   2.626   0.860   9.503 -0.3738 -0.6335  2.0602
  183SLPC  H16S21022   2.732   1.008   9.494  0.2231  0.3212  1.2987
  183SLPC  C21721023   2.583   1.003   9.348  0.1955 -0.7747  0.1073
  183SLPC  H17R21024   2.585   1.114   9.351  0.0819 -0.7488 -0.6082
  183SLPC  H17S21025   2.477   0.981   9.325 -0.2092  2.1646 -1.3124
  183SLPC  C21821026   2.662   0.941   9.236  0.0417 -0.5231 -0.6683
  183SLPC  H18R21027   2.662   0.830   9.230  1.7789 -0.4778 -4.7889
  183SLPC  H18S21028   2.766   0.974   9.216  0.7475 -2.0793  0.3399
  183SLPC  H18T21029   2.619   0.973   9.138  2.6575  0.3930 -1.6037
  183SLPC   C3321030   3.051   1.455  10.073  0.0271  0.0199 -0.1010
  183SLPC   H3X21031   3.041   1.549  10.015 -1.7291 -2.0016 -3.4189
  183SLPC   H3Y21032   3.018   1.477  10.177  0.7712  1.3346 -0.1227
  183SLPC   C3421033   2.942   1.361  10.010 -0.3856  0.2091 -0.2369
  183SLPC   H4X21034   2.847   1.415   9.992 -0.9516 -0.3290  1.0220
  183SLPC   H4Y21035   2.927   1.268  10.069  1.2869 -0.4031 -0.6973
  183SLPC   C3521036   2.991   1.315   9.872 -0.6377 -0.1512 -0.0472
  183SLPC   H5X21037   3.059   1.228   9.887 -0.8978 -0.2088  0.8513
  183SLPC   H5Y21038   3.056   1.390   9.824  0.2170 -0.9095 -0.1034
  183SLPC   C3621039   2.867   1.270   9.791  0.7339  0.3552  0.4158
  183SLPC   H6X21040   2.796   1.355   9.805 -0.3487 -0.5211  0.3517
  183SLPC   H6Y21041   2.818   1.181   9.835 -3.0456  1.9652 -0.1582
  183SLPC   C3721042   2.876   1.238   9.638  0.6448  0.1557 -0.0099
  183SLPC   H7X21043   2.772   1.219   9.606  0.3983 -0.1781  0.9530
  183SLPC   H7Y21044   2.941   1.148   9.640  0.4462 -0.0022 -0.5837
  183SLPC   C3821045   2.923   1.348   9.545 -0.3942  0.4560 -0.5825
  183SLPC   H8X21046   3.032   1.367   9.561 -0.0787 -0.8378 -1.0440
  183SLPC   H8Y21047   2.881   1.449   9.560  0.4457  1.0743 -2.1487
  183SLPC   C3921048   2.909   1.302   9.399  0.0830  0.1621  0.0490
  183SLPC   H9X21049   2.802   1.277   9.383  0.1508 -0.1443  0.0694
  183SLPC   H9Y21050   2.966   1.212   9.369  0.5916  0.2193  0.8113
  183SLPC  C31021051   2.943   1.415   9.291  0.1291  1.3692  1.0997
  183SLPC  H10X21052   3.047   1.454   9.298 -0.0276  2.2145 -0.7216
  183SLPC  H10Y21053   2.878   1.504   9.304 -1.4769  1.0211 -3.0759
  183SLPC  C31121054   2.897   1.365   9.150  0.4754 -1.0304  0.7619
  183SLPC  H11X21055   2.792   1.330   9.144  1.0506 -2.6602 -0.5415
  183SLPC  H11Y21056   2.949   1.268   9.133 -0.8025 -1.7621  0.9375
  183SLPC  C31221057   2.911   1.471   9.036 -0.1313  0.3889  0.1163
  183SLPC  H12X21058   3.018   1.496   9.022  0.7916 -1.0537  3.4064
  183SLPC  H12Y21059   2.846   1.558   9.058 -1.3989 -0.9176  1.9127
  183SLPC  C31321060   2.861   1.410   8.901  0.6192 -0.1138  0.5116
  183SLPC  H13X21061   2.750   1.417   8.895  0.5657  0.6034  2.0276
  183SLPC  H13Y21062   2.877   1.301   8.894  1.3250  0.0743 -1.4689
  183SLPC  C31421063   2.927   1.494   8.792  0.6138 -0.3551  0.2658
  183SLPC  H14X21064   3.036   1.472   8.792  0.9861  1.3169  0.0239
  183SLPC  H14Y21065   2.916   1.604   8.807 -1.2399 -0.6583  1.4209
  183SLPC  C31521066   2.880   1.474   8.646 -0.6180  0.3310 -1.0695
  183SLPC  H15X21067   2.937   1.543   8.580  0.7787 -0.0249 -0.2572
  183SLPC  H15Y21068   2.773   1.503   8.636 -1.1900 -1.3893 -0.3293
  183SLPC  C31621069   2.919   1.328   8.609  0.3554 -0.5407 -0.4361
  183SLPC  H16X21070   2.861   1.254   8.667  0.4439  0.3357  0.8009
  183SLPC  H16Y21071   3.023   1.315   8.645 -0.6251 -1.6013  2.2691
  183SLPC  C31721072   2.899   1.291   8.461 -0.0923 -0.9457 -0.0837
  183SLPC  H17X21073   2.954   1.363   8.396  1.7919 -2.7069 -0.5386
  183SLPC  H17Y21074   2.789   1.296   8.443 -0.6498 -3.0945  2.1753
  183SLPC  C31821075   2.941   1.145   8.443 -0.4575  0.3102 -0.4537
  183SLPC  H18X21076   2.909   1.101   8.346  0.2660 -2.7403  0.5812
  183SLPC  H18Y21077   2.894   1.068   8.508 -3.1415 -0.6115 -3.2410
  183SLPC  H18Z21078   3.050   1.134   8.460  0.0463  2.8051 -1.6085
  184SLPC     N21079   6.455   3.037  10.798 -0.7146 -0.1172  0.3071
  184SLPC   C1321080   6.497   2.893  10.801  0.0222 -0.1813  0.0498
  184SLPC  H13A21081   6.550   2.866  10.711 -2.0479 -1.2356 -0.9185
  184SLPC  H13B21082   6.539   2.863  10.896  2.4703 -1.6999 -1.4252
  184SLPC  H13C21083   6.404   2.841  10.784 -0.3755  0.8969 -1.2724
  184SLPC   C1421084   6.402   3.078  10.665 -0.3073 -0.0330 -0.1274
  184SLPC  H14A21085   6.303   3.041  10.642 -1.1389  2.4447 -0.8090
  184SLPC  H14B21086   6.393   3.185  10.668  1.8674  0.1765  1.6129
  184SLPC  H14C21087   6.456   3.051  10.575  0.3751  1.8061 -0.3087
  184SLPC   C1521088   6.584   3.115  10.817 -0.5199 -0.1197 -0.0735
  184SLPC  H15A21089   6.565   3.221  10.805 -0.5296 -0.2824 -1.6136
  184SLPC  H15B21090   6.616   3.112  10.920  1.2260  1.4907 -0.5092
  184SLPC  H15C21091   6.663   3.081  10.752 -0.9877 -0.8011 -0.2896
  184SLPC   C1221092   6.357   3.069  10.901 -0.7322  0.0581 -0.2795
  184SLPC  H12A21093   6.402   3.062  10.999 -1.9042 -1.5132  0.2042
  184SLPC  H12B21094   6.288   2.985  10.902 -0.2725 -0.3828  2.1739
  184SLPC   C1121095   6.280   3.210  10.892 -0.0450  0.0565  0.7966
  184SLPC  H11A21096   6.201   3.209  10.970 -1.1398  2.3810 -0.1904
  184SLPC  H11B21097   6.219   3.224  10.800 -1.7538 -0.2441  1.8425
  184SLPC     P21098   6.386   3.444  10.838  0.5260 -0.0443  0.4034
  184SLPC   O1321099   6.260   3.521  10.855 -0.6614  0.3800  0.7184
  184SLPC   O1421100   6.510   3.517  10.869  0.1908 -0.6596 -0.1492
  184SLPC   O1221101   6.370   3.313  10.926  0.1134 -0.9396  0.4068
  184SLPC   O1121102   6.391   3.389  10.682 -0.2090  0.9797 -0.0607
  184SLPC    C121103   6.326   3.444  10.572  0.3215 -0.0414  0.0157
  184SLPC    HA21104   6.287   3.356  10.516  0.5290 -0.5958  0.7223
  184SLPC    HB21105   6.244   3.517  10.589  0.0792 -0.8707  2.9905
  184SLPC    C221106   6.438   3.498  10.482 -0.5408 -0.7394 -0.1976
  184SLPC    HS21107   6.480   3.591  10.527 -1.4384 -1.0410  1.3053
  184SLPC   O2121108   6.402   3.519  10.343 -0.0178 -0.0245  0.2702
  184SLPC   C2121109   6.330   3.629  10.329  0.5117 -0.1196  0.3656
  184SLPC   O2221110   6.288   3.702  10.416  0.3957 -0.2305 -0.5903
  184SLPC   C2221111   6.279   3.642  10.183  0.3683 -0.0057 -0.3311
  184SLPC   H2R21112   6.198   3.570  10.160 -1.4676  1.2951  1.6542
  184SLPC   H2S21113   6.236   3.745  10.185  1.9244  0.6873 -0.5236
  184SLPC    C321114   6.564   3.408  10.487  0.2021  0.7568  0.1724
  184SLPC    HX21115   6.527   3.304  10.473  2.3324  0.1081 -1.1416
  184SLPC    HY21116   6.612   3.400  10.587 -0.6659  0.9451  0.6143
  184SLPC   O3121117   6.653   3.454  10.385  0.0881 -0.0644  0.7696
  184SLPC   C3121118   6.708   3.363  10.307 -0.5928 -0.3201 -0.2285
  184SLPC   O3221119   6.699   3.246  10.324 -0.4424  0.7999  0.0685
  184SLPC   C3221120   6.796   3.432  10.200  0.0046 -0.1440  0.0255
  184SLPC   H2X21121   6.901   3.400  10.216  0.6136  1.6720 -0.1089
  184SLPC   H2Y21122   6.791   3.543  10.213  1.9288 -0.1675  1.4408
  184SLPC   C2321123   6.391   3.616  10.076  0.0875  0.0057 -0.5310
  184SLPC   H3R21124   6.380   3.509  10.050 -0.6494  0.0840 -0.5670
  184SLPC   H3S21125   6.492   3.647  10.110  0.4751 -0.8132 -0.9347
  184SLPC   C2421126   6.367   3.695   9.946  0.5644  0.4630  0.9245
  184SLPC   H4R21127   6.402   3.799   9.966  0.7426  0.6125 -0.1036
  184SLPC   H4S21128   6.258   3.693   9.924  0.9552 -0.7206 -1.2015
  184SLPC   C2521129   6.434   3.638   9.824  0.7470  0.0754  0.5084
  184SLPC   H5R21130   6.390   3.541   9.796  1.6508 -0.4638  0.9140
  184SLPC   H5S21131   6.541   3.612   9.843  0.1746 -0.8748  2.7974
  184SLPC   C2621132   6.426   3.723   9.699 -0.1045  0.2114  0.0507
  184SLPC   H6R21133   6.532   3.740   9.670 -0.5855  0.5211 -1.6519
  184SLPC   H6S21134   6.373   3.820   9.708 -1.9104 -0.7026 -0.2416
  184SLPC   C2721135   6.346   3.655   9.589 -0.5519 -0.3237 -0.1718
  184SLPC   H7R21136   6.242   3.642   9.626 -0.8073  1.2561 -0.2269
  184SLPC   H7S21137   6.375   3.550   9.568 -1.1726 -0.7835  1.1849
  184SLPC   C2821138   6.344   3.739   9.461  0.2313  0.3237 -0.7950
  184SLPC   H8R21139   6.313   3.842   9.485  0.6763  0.5643 -1.2246
  184SLPC   H8S21140   6.266   3.690   9.399 -0.0164  0.6461 -0.7328
  184SLPC   C2921141   6.478   3.750   9.388 -0.3411 -0.3536 -0.1211
  184SLPC   H9R21142   6.569   3.723   9.444  0.5102  0.2652 -1.1608
  184SLPC  C21021143   6.500   3.768   9.254  0.3802  0.3711  0.1934
  184SLPC  H10R21144   6.606   3.779   9.226 -0.6503  0.4954 -4.2588
  184SLPC  C21121145   6.407   3.795   9.143 -0.0333 -0.4387 -0.1618
  184SLPC  H11R21146   6.412   3.902   9.115 -0.5511 -0.6834 -1.2624
  184SLPC  H11S21147   6.302   3.774   9.171 -0.7105  2.0875 -0.5693
  184SLPC  C21221148   6.446   3.744   9.014 -0.4322 -0.5476 -0.2191
  184SLPC  H12R21149   6.537   3.792   8.975  0.0788 -1.2756  0.0696
  184SLPC  C21321150   6.390   3.652   8.938 -0.2687  0.6639  0.0102
  184SLPC  H13R21151   6.432   3.630   8.838 -1.0700 -0.0850 -0.1732
  184SLPC  C21421152   6.270   3.570   8.947 -0.0113  0.1935 -0.8410
  184SLPC  H14R21153   6.202   3.601   9.028  0.8557  1.1387 -0.4510
  184SLPC  H14S21154   6.297   3.464   8.969  2.5066  0.2399 -3.1070
  184SLPC  C21521155   6.178   3.578   8.825 -0.3786 -0.1765 -0.4814
  184SLPC  H15R21156   6.103   3.498   8.841  0.1854 -0.4700  0.8163
  184SLPC  H15S21157   6.236   3.567   8.731 -0.4470 -0.7599 -0.4591
  184SLPC  C21621158   6.112   3.713   8.823 -0.4791  0.4526 -0.2649
  184SLPC  H16R21159   6.182   3.790   8.860 -1.2593  0.8832  0.3529
  184SLPC  H16S21160   6.036   3.712   8.904 -0.0413 -0.1823  0.1439
  184SLPC  C21721161   6.044   3.755   8.692 -0.5463 -0.4633  0.1094
  184SLPC  H17R21162   6.129   3.769   8.621  0.9607  1.1917  2.0908
  184SLPC  H17S21163   5.996   3.854   8.711  0.4941 -0.2819  2.2085
  184SLPC  C21821164   5.942   3.660   8.635  0.3894 -0.1305  0.6253
  184SLPC  H18R21165   5.977   3.561   8.599 -0.6373 -0.6645  1.0592
  184SLPC  H18S21166   5.897   3.710   8.547  2.4447  1.4572  0.4085
  184SLPC  H18T21167   5.855   3.648   8.703  1.3152 -2.3878  1.5290
  184SLPC   C3321168   6.745   3.396  10.059  0.1766 -0.2512  0.4101
  184SLPC   H3X21169   6.642   3.438  10.055  0.2034 -0.0193  1.6772
  184SLPC   H3Y21170   6.742   3.287  10.037 -4.4853 -0.1009 -0.6943
  184SLPC   C3421171   6.828   3.471   9.960 -0.0629  0.0240 -0.7828
  184SLPC   H4X21172   6.932   3.460   9.998 -0.9170 -0.5891  1.5830
  184SLPC   H4Y21173   6.803   3.578   9.947  0.3297  0.3293  0.7836
  184SLPC   C3521174   6.817   3.412   9.820 -0.5970 -0.3205 -0.0712
  184SLPC   H5X21175   6.710   3.433   9.796 -0.4145  1.8439  0.7870
  184SLPC   H5Y21176   6.849   3.306   9.829 -2.1659 -0.7053  1.4280
  184SLPC   C3621177   6.905   3.460   9.709 -0.2815 -0.3068 -0.0771
  184SLPC   H6X21178   6.886   3.387   9.627  0.4095  0.0095 -0.5336
  184SLPC   H6Y21179   7.014   3.448   9.729 -0.2601  0.2453  0.1651
  184SLPC   C3721180   6.886   3.604   9.661  0.2423 -0.1167 -0.0555
  184SLPC   H7X21181   6.929   3.673   9.736  0.2934 -0.6810  0.4369
  184SLPC   H7Y21182   6.777   3.623   9.665  0.3989  0.6266  2.4050
  184SLPC   C3821183   6.947   3.631   9.525 -0.1895  0.0420 -0.4143
  184SLPC   H8X21184   7.058   3.626   9.533 -0.2389 -0.2230  0.2351
  184SLPC   H8Y21185   6.921   3.731   9.486  2.3118  0.7778 -0.3693
  184SLPC   C3921186   6.911   3.526   9.414  1.0019 -0.3414  0.8241
  184SLPC   H9X21187   6.802   3.509   9.409  1.1195 -0.8825 -2.8239
  184SLPC   H9Y21188   6.962   3.428   9.430  0.4593 -1.2808 -2.4169
  184SLPC  C31021189   6.950   3.555   9.263 -0.0649 -0.4923 -0.2838
  184SLPC  H10X21190   7.058   3.578   9.267 -0.0588 -0.4006 -0.9963
  184SLPC  H10Y21191   6.886   3.635   9.220 -1.8370 -1.1494  1.0187
  184SLPC  C31121192   6.936   3.433   9.172 -0.1448  0.5304  0.2982
  184SLPC  H11X21193   6.836   3.384   9.180 -0.1962 -0.2842 -3.2733
  184SLPC  H11Y21194   7.013   3.357   9.195  0.3237  0.6437 -0.8315
  184SLPC  C31221195   6.957   3.473   9.020  0.1337  0.0116  0.1054
  184SLPC  H12X21196   7.036   3.551   9.026  0.8018 -0.6768  0.6711
  184SLPC  H12Y21197   6.871   3.535   8.990  1.4305  0.8118 -2.1922
  184SLPC  C31321198   6.975   3.358   8.920  0.0150 -0.7233  0.9140
  184SLPC  H13X21199   6.954   3.397   8.818  2.6061 -0.0637  0.5581
  184SLPC  H13Y21200   6.914   3.270   8.949  0.4657 -1.9638 -1.6205
  184SLPC  C31421201   7.118   3.299   8.913  0.1531 -0.2634  0.1626
  184SLPC  H14X21202   7.135   3.244   9.009 -3.7811 -0.0100  1.1602
  184SLPC  H14Y21203   7.188   3.384   8.897 -0.3645 -0.2533 -2.4615
  184SLPC  C31521204   7.144   3.189   8.809 -0.0213 -0.0585  0.0154
  184SLPC  H15X21205   7.064   3.116   8.836  1.6425 -1.9185  0.1367
  184SLPC  H15Y21206   7.240   3.134   8.818 -0.2451 -0.4293  0.1627
  184SLPC  C31621207   7.103   3.218   8.664  1.0324 -0.9268 -0.1260
  184SLPC  H16X21208   7.033   3.305   8.658  0.6633 -1.1384  0.8928
  184SLPC  H16Y21209   7.036   3.136   8.632 -2.1024  2.0082 -1.7203
  184SLPC  C31721210   7.224   3.237   8.569 -0.4175 -0.1825 -0.1610
  184SLPC  H17X21211   7.291   3.148   8.577 -0.6068 -0.3366 -0.2774
  184SLPC  H17Y21212   7.278   3.325   8.609  0.6841  0.2732 -2.5345
  184SLPC  C31821213   7.189   3.243   8.419 -0.4343 -0.0505 -0.3800
  184SLPC  H18X21214   7.283   3.248   8.359 -0.2641  1.6095 -0.0194
  184SLPC  H18Y21215   7.123   3.332   8.414  0.0583  0.4184  0.9695
  184SLPC  H18Z21216   7.135   3.149   8.394 -3.1715  0.9955  1.1266
  185SLPC     N21217   4.776   0.226   6.297  0.4240 -0.6642  0.5943
  185SLPC   C1321218   4.906   0.157   6.344 -0.4524 -0.4300  0.0050
  185SLPC  H13A21219   4.986   0.150   6.272  0.7077 -0.4309  1.2590
  185SLPC  H13B21220   4.928   0.207   6.437 -1.3910  0.7706 -0.3851
  185SLPC  H13C21221   4.878   0.057   6.373  0.3153 -0.1507  1.8283
  185SLPC   C1421222   4.712   0.141   6.193  0.1979  0.3465  0.1724
  185SLPC  H14A21223   4.772   0.138   6.104 -0.3225  1.6123 -0.2588
  185SLPC  H14B21224   4.692   0.041   6.227  1.2687  0.2553  0.5660
  185SLPC  H14C21225   4.615   0.185   6.171  0.0486 -0.0173  0.0939
  185SLPC   C1521226   4.814   0.357   6.237 -0.2677  0.5492 -0.0073
  185SLPC  H15A21227   4.725   0.415   6.218 -1.2957 -0.5563  1.2080
  185SLPC  H15B21228   4.884   0.414   6.298  0.7559 -0.7605  0.0869
  185SLPC  H15C21229   4.880   0.341   6.153 -0.5760 -0.8811  0.0040
  185SLPC   C1221230   4.675   0.235   6.413 -0.6102  0.3283 -0.3629
  185SLPC  H12A21231   4.732   0.282   6.491 -0.3924  1.2284 -1.0547
  185SLPC  H12B21232   4.677   0.132   6.447  0.8661  0.0395 -1.2344
  185SLPC   C1121233   4.538   0.291   6.395  0.1168  0.2903  0.0605
  185SLPC  H11A21234   4.488   0.286   6.495  1.1162  0.4898  0.5781
  185SLPC  H11B21235   4.475   0.221   6.337 -0.0658 -0.0806  0.6882
  185SLPC     P21236   4.583   0.540   6.433  0.0069 -0.4988  0.1815
  185SLPC   O1321237   4.631   0.657   6.355 -0.1434  0.2393 -0.6659
  185SLPC   O1421238   4.465   0.562   6.522 -0.2947  0.2605 -0.9679
  185SLPC   O1221239   4.553   0.417   6.337 -0.3094 -0.2429  0.6935
  185SLPC   O1121240   4.702   0.493   6.519 -0.1405  0.2228 -0.6274
  185SLPC    C121241   4.703   0.494   6.662  1.2135 -0.0198  0.1403
  185SLPC    HA21242   4.628   0.422   6.703  1.4450 -1.9143 -2.5334
  185SLPC    HB21243   4.796   0.448   6.701  0.1532 -1.6396  0.8881
  185SLPC    C221244   4.696   0.637   6.729  0.2734 -0.2026 -0.1752
  185SLPC    HS21245   4.594   0.683   6.729  0.6046  0.5570  0.2985
  185SLPC   O2121246   4.790   0.725   6.664 -0.0935  0.1748  0.4845
  185SLPC   C2121247   4.759   0.849   6.681  0.0688  0.2144  0.0736
  185SLPC   O2221248   4.667   0.889   6.749  0.4808  0.1207 -0.2641
  185SLPC   C2221249   4.866   0.938   6.629 -0.1684  0.9034  0.1387
  185SLPC   H2R21250   4.931   0.878   6.562 -1.1354 -1.3789  1.1277
  185SLPC   H2S21251   4.824   1.024   6.572 -0.4317  0.8486  0.2486
  185SLPC    C321252   4.725   0.618   6.883 -0.7278 -0.0688  0.7779
  185SLPC    HX21253   4.738   0.717   6.932  2.3328  0.3537 -0.6763
  185SLPC    HY21254   4.829   0.580   6.882 -0.2832  1.0622 -0.8043
  185SLPC   O3121255   4.637   0.527   6.948 -0.7898  0.3271  0.0822
  185SLPC   C3121256   4.505   0.556   6.964  0.4262  0.5529  0.2000
  185SLPC   O3221257   4.452   0.659   6.924  0.0696 -0.2083  0.1520
  185SLPC   C3221258   4.440   0.443   7.050  0.0901 -0.5102 -0.3226
  185SLPC   H2X21259   4.493   0.473   7.143  1.2981 -0.8091 -0.8911
  185SLPC   H2Y21260   4.477   0.345   7.014  0.4969 -0.7368  0.6737
  185SLPC   C2321261   4.963   0.997   6.737  0.3192 -0.2301 -0.5686
  185SLPC   H3R21262   5.041   1.051   6.678  1.9640 -2.2101 -0.3040
  185SLPC   H3S21263   5.023   0.915   6.782 -0.8049 -1.1731 -0.7557
  185SLPC   C2421264   4.907   1.105   6.827 -0.1162  0.1275 -0.2902
  185SLPC   H4R21265   4.820   1.063   6.882  0.1981  1.7730  1.5832
  185SLPC   H4S21266   4.880   1.190   6.760  0.2001  1.1200  0.8006
  185SLPC   C2521267   5.002   1.149   6.939  0.2239 -0.2629  0.0098
  185SLPC   H5R21268   5.048   1.066   6.997 -1.4885 -2.2613 -1.3555
  185SLPC   H5S21269   4.935   1.206   7.007  1.9745 -0.1911  1.7638
  185SLPC   C2621270   5.103   1.258   6.883 -0.3663 -0.9819 -0.4416
  185SLPC   H6R21271   5.033   1.334   6.845 -0.2700 -1.7567 -2.3341
  185SLPC   H6S21272   5.164   1.210   6.802 -1.3802 -1.0127 -1.2035
  185SLPC   C2721273   5.211   1.310   6.989 -0.0099 -0.0066  0.0432
  185SLPC   H7R21274   5.300   1.244   6.989 -0.0993 -0.1342 -0.5041
  185SLPC   H7S21275   5.177   1.328   7.093 -0.9200 -0.1894 -0.2073
  185SLPC   C2821276   5.260   1.455   6.948 -0.1608  0.3503  0.5943
  185SLPC   H8R21277   5.279   1.461   6.839 -0.0112  1.1796  0.6556
  185SLPC   H8S21278   5.354   1.474   7.003  0.1161  2.7435 -0.5690
  185SLPC   C2921279   5.156   1.559   6.990 -0.2637 -0.1302 -0.3072
  185SLPC   H9R21280   5.090   1.596   6.910 -2.5798  1.9301  2.3621
  185SLPC  C21021281   5.127   1.611   7.113 -0.5433  0.3548 -0.7514
  185SLPC  H10R21282   5.039   1.676   7.124 -0.6010  0.0294  1.0108
  185SLPC  C21121283   5.194   1.580   7.252  0.6055 -0.2043  0.6249
  185SLPC  H11R21284   5.283   1.514   7.245 -1.1148 -2.5478 -0.6437
  185SLPC  H11S21285   5.124   1.526   7.319 -0.9413  1.8986  0.7918
  185SLPC  C21221286   5.232   1.701   7.323 -0.3903 -0.2146  0.0199
  185SLPC  H12R21287   5.179   1.789   7.284  1.4148  0.0787 -1.9723
  185SLPC  C21321288   5.311   1.704   7.433  0.3055 -0.6780 -0.5624
  185SLPC  H13R21289   5.335   1.797   7.486 -1.6326 -0.5181  0.1001
  185SLPC  C21421290   5.371   1.578   7.493 -0.1423  0.5150 -0.3150
  185SLPC  H14R21291   5.474   1.558   7.457 -0.2731 -0.7980  0.0110
  185SLPC  H14S21292   5.308   1.491   7.466 -1.1721  0.2125  2.6510
  185SLPC  C21521293   5.382   1.585   7.646 -0.4153  0.7363 -0.5529
  185SLPC  H15R21294   5.411   1.482   7.675  1.2184  1.5127  0.7437
  185SLPC  H15S21295   5.281   1.599   7.690  0.4962 -1.1566  2.4253
  185SLPC  C21621296   5.491   1.679   7.696 -0.6112  0.4060  0.5754
  185SLPC  H16R21297   5.472   1.782   7.659  0.0540 -0.1417 -1.3857
  185SLPC  H16S21298   5.582   1.631   7.656 -2.0133 -2.3575  0.4854
  185SLPC  C21721299   5.497   1.698   7.848  0.0732  0.4052 -0.4733
  185SLPC  H17R21300   5.415   1.769   7.871 -1.2616 -0.3127 -2.7124
  185SLPC  H17S21301   5.587   1.762   7.863  0.5618  0.0707 -1.7848
  185SLPC  C21821302   5.505   1.566   7.923 -0.1361 -0.0042  0.5858
  185SLPC  H18R21303   5.574   1.488   7.883  0.6296  0.5367  0.8254
  185SLPC  H18S21304   5.403   1.522   7.932  0.0813 -0.4344  0.9771
  185SLPC  H18T21305   5.552   1.595   8.019  2.1078  2.3848 -1.1038
  185SLPC   C3321306   4.285   0.445   7.051 -0.1498  0.1054  0.2475
  185SLPC   H3X21307   4.256   0.400   6.954 -0.6013  0.8657  0.0157
  185SLPC   H3Y21308   4.248   0.550   7.047  1.0675  0.5243 -0.3824
  185SLPC   C3421309   4.237   0.359   7.163 -0.0513  0.0472 -0.0165
  185SLPC   H4X21310   4.301   0.268   7.170  1.6303  1.0028 -1.8836
  185SLPC   H4Y21311   4.140   0.316   7.129  1.5032 -0.6415 -4.2843
  185SLPC   C3521312   4.221   0.438   7.298 -0.1787 -0.4006  0.4007
  185SLPC   H5X21313   4.143   0.516   7.291 -1.1336 -1.4509 -1.2864
  185SLPC   H5Y21314   4.314   0.491   7.330 -0.9321  0.1215  1.8109
  185SLPC   C3621315   4.194   0.351   7.420 -0.0884  0.3229 -0.1624
  185SLPC   H6X21316   4.159   0.414   7.504  3.9464  0.1598  1.9006
  185SLPC   H6Y21317   4.290   0.311   7.460 -1.6260 -3.4101  0.1738
  185SLPC   C3721318   4.089   0.239   7.387  0.1746  0.3598 -0.0066
  185SLPC   H7X21319   4.125   0.180   7.300 -1.6323 -0.8465  0.0074
  185SLPC   H7Y21320   3.994   0.285   7.352 -0.8855 -1.8925 -0.3271
  185SLPC   C3821321   4.067   0.158   7.514  0.1756 -0.8377 -0.1206
  185SLPC   H8X21322   3.980   0.094   7.488 -0.0662 -0.1446 -1.1265
  185SLPC   H8Y21323   4.040   0.223   7.600  0.2739 -0.7890 -0.1275
  185SLPC   C3921324   4.187   0.079   7.553 -0.3371 -0.1588  0.2584
  185SLPC   H9X21325   4.259   0.140   7.611  0.2678 -1.1089  0.5105
  185SLPC   H9Y21326   4.247   0.052   7.464 -1.4848  2.1910 -1.3528
  185SLPC  C31021327   4.159  -0.050   7.628 -0.6506  0.1291 -0.6798
  185SLPC  H10X21328   4.253  -0.109   7.635  0.7883  2.2694 -1.1545
  185SLPC  H10Y21329   4.086  -0.105   7.565 -0.0779 -0.2610 -1.0118
  185SLPC  C31121330   4.100  -0.043   7.772 -0.4776  0.0554 -0.3070
  185SLPC  H11X21331   4.069  -0.147   7.798  0.9381  0.1703  2.1861
  185SLPC  H11Y21332   4.012   0.024   7.762  0.9878  2.5737  2.2043
  185SLPC  C31221333   4.195   0.023   7.862 -0.3806 -0.0457 -0.9321
  185SLPC  H12X21334   4.220   0.128   7.834  1.5896 -0.2556 -0.1435
  185SLPC  H12Y21335   4.297  -0.020   7.861  0.1936  1.2685 -1.4512
  185SLPC  C31321336   4.143   0.008   8.000  0.1984 -0.0344 -0.0377
  185SLPC  H13X21337   4.231   0.008   8.069 -1.5679 -0.8167  2.3465
  185SLPC  H13Y21338   4.111  -0.098   8.001  2.6798 -0.8726  2.1827
  185SLPC  C31421339   4.036   0.103   8.042  0.6616  0.8199 -0.3900
  185SLPC  H14X21340   3.954   0.109   7.967 -1.6580 -1.8392  1.6804
  185SLPC  H14Y21341   4.071   0.208   8.054 -1.4352  2.0049 -3.3674
  185SLPC  C31521342   3.976   0.079   8.183  0.0177  0.5934 -0.6884
  185SLPC  H15X21343   4.055   0.082   8.262 -0.0681  3.1256 -0.6080
  185SLPC  H15Y21344   3.925  -0.019   8.189 -0.0786  0.6940  0.5530
  185SLPC  C31621345   3.879   0.187   8.226  0.3257  0.2109 -0.3053
  185SLPC  H16X21346   3.781   0.168   8.177 -0.0553  1.1450  0.0582
  185SLPC  H16Y21347   3.917   0.283   8.187  0.9010 -0.5831 -1.7724
  185SLPC  C31721348   3.856   0.173   8.376 -0.0004 -0.0740 -0.2917
  185SLPC  H17X21349   3.949   0.192   8.435  1.0481  0.2639 -1.9899
  185SLPC  H17Y21350   3.827   0.066   8.381  1.2092 -0.4508 -0.9183
  185SLPC  C31821351   3.734   0.262   8.429  0.2144  0.1250 -0.3772
  185SLPC  H18X21352   3.656   0.254   8.350  0.7208  1.3135 -1.0211
  185SLPC  H18Y21353   3.750   0.371   8.422 -0.2712  0.1258 -1.9408
  185SLPC  H18Z21354   3.699   0.232   8.530  1.1416 -0.0828 -0.1066
  186SLPC     N21355   3.437   3.349   6.298 -0.3659  0.9468 -0.6082
  186SLPC   C1321356   3.350   3.336   6.177 -0.3723 -0.7132  0.6006
  186SLPC  H13A21357   3.247   3.327   6.206 -0.8250 -2.7136 -1.3738
  186SLPC  H13B21358   3.354   3.421   6.109  0.3379 -0.6057  0.7643
  186SLPC  H13C21359   3.382   3.253   6.116 -1.0561 -0.6380  0.1278
  186SLPC   C1421360   3.415   3.226   6.381 -0.5586 -0.7824  0.1607
  186SLPC  H14A21361   3.395   3.134   6.328 -3.6590 -1.6091  2.4857
  186SLPC  H14B21362   3.495   3.219   6.453 -0.2752 -1.7534 -0.2268
  186SLPC  H14C21363   3.319   3.226   6.430 -0.0299  0.9357  1.2744
  186SLPC   C1521364   3.407   3.461   6.390  0.0568 -0.0025  0.0149
  186SLPC  H15A21365   3.385   3.554   6.339 -1.4128 -0.3421 -0.0259
  186SLPC  H15B21366   3.340   3.438   6.472 -2.5504  0.1405 -1.9351
  186SLPC  H15C21367   3.499   3.491   6.438 -0.7741  2.5485  0.1762
  186SLPC   C1221368   3.588   3.340   6.265 -1.2036 -0.2069  0.0649
  186SLPC  H12A21369   3.616   3.256   6.203 -0.0344  1.7364 -2.2446
  186SLPC  H12B21370   3.648   3.326   6.354  0.9554 -1.2591 -1.4424
  186SLPC   C1121371   3.646   3.456   6.183 -0.2053  0.1254 -0.1373
  186SLPC  H11A21372   3.590   3.465   6.087 -0.8055  1.0607  0.2889
  186SLPC  H11B21373   3.749   3.430   6.150 -0.6951 -1.6712 -0.3748
  186SLPC     P21374   3.752   3.617   6.355  0.1074  0.6035 -0.5566
  186SLPC   O1321375   3.843   3.713   6.289  0.2814  0.2791  0.5237
  186SLPC   O1421376   3.699   3.667   6.480  0.1233  0.0436 -0.3669
  186SLPC   O1221377   3.640   3.588   6.252 -0.2557 -0.4524  0.5489
  186SLPC   O1121378   3.821   3.475   6.377 -0.4440  0.4735  0.0882
  186SLPC    C121379   3.936   3.467   6.469 -0.5287 -0.3340 -0.0447
  186SLPC    HA21380   4.019   3.437   6.401 -0.0328  0.5731  0.1376
  186SLPC    HB21381   3.974   3.563   6.511 -0.2557 -0.1672 -0.6633
  186SLPC    C221382   3.916   3.360   6.585  0.1524 -0.4036  0.6205
  186SLPC    HS21383   3.879   3.263   6.545 -0.3460  0.1677 -0.3342
  186SLPC   O2121384   3.834   3.417   6.689  0.6737 -0.1805  0.2553
  186SLPC   C2121385   3.707   3.419   6.661 -0.1790  0.8913  0.1129
  186SLPC   O2221386   3.645   3.361   6.573 -0.4334  0.8969 -0.4517
  186SLPC   C2221387   3.639   3.468   6.789  0.2118 -0.1830  0.7336
  186SLPC   H2R21388   3.592   3.382   6.841 -0.5558  1.2866  2.5672
  186SLPC   H2S21389   3.717   3.507   6.857  0.8828 -0.4917  0.1615
  186SLPC    C321390   4.054   3.346   6.649 -0.5251 -0.6601  0.6477
  186SLPC    HX21391   4.092   3.449   6.665 -2.0348  0.0387 -0.0592
  186SLPC    HY21392   4.116   3.298   6.570 -2.9122  0.6659 -2.2551
  186SLPC   O3121393   4.056   3.285   6.778 -0.4211 -0.1870 -0.2048
  186SLPC   C3121394   4.029   3.157   6.786  0.7460  0.8405  0.3073
  186SLPC   O3221395   3.995   3.089   6.693 -0.2164  0.4277 -0.1598
  186SLPC   C3221396   4.045   3.099   6.926 -0.3721 -1.0337  1.1857
  186SLPC   H2X21397   4.146   3.055   6.939 -1.1673 -2.5456  2.6742
  186SLPC   H2Y21398   3.970   3.017   6.929 -1.2609 -0.2796  0.4003
  186SLPC   C2321399   3.524   3.577   6.765  0.5506  0.1664 -0.0178
  186SLPC   H3R21400   3.465   3.545   6.677  0.8102  0.1689 -0.1941
  186SLPC   H3S21401   3.574   3.670   6.732  1.8683 -1.2966 -2.4753
  186SLPC   C2421402   3.439   3.595   6.888 -0.1450 -0.7406  0.7519
  186SLPC   H4R21403   3.367   3.511   6.892  0.7834 -1.5358  1.3120
  186SLPC   H4S21404   3.387   3.693   6.879  1.1807 -0.0071  0.8271
  186SLPC   C2521405   3.525   3.603   7.014  0.2360  1.1281 -0.0014
  186SLPC   H5R21406   3.607   3.676   6.998 -0.3692  1.3259 -2.6947
  186SLPC   H5S21407   3.586   3.511   7.025 -0.3283  0.5712 -1.3490
  186SLPC   C2621408   3.454   3.628   7.150  0.3760  0.7642 -0.7154
  186SLPC   H6R21409   3.371   3.556   7.166  0.9269  0.2755  0.0045
  186SLPC   H6S21410   3.397   3.724   7.145 -3.3303 -1.3403 -2.7469
  186SLPC   C2721411   3.554   3.629   7.266 -0.0323 -0.0296  0.0016
  186SLPC   H7R21412   3.637   3.696   7.236 -2.1115  2.2281 -1.0101
  186SLPC   H7S21413   3.601   3.528   7.267  0.7549  0.3182 -0.8900
  186SLPC   C2821414   3.494   3.666   7.404  0.1640 -0.3747  0.6337
  186SLPC   H8R21415   3.412   3.594   7.425 -0.8168  0.5090 -0.0489
  186SLPC   H8S21416   3.439   3.760   7.379 -2.5796 -2.0779 -0.0906
  186SLPC   C2921417   3.595   3.685   7.511  0.3662 -0.5319  0.6121
  186SLPC   H9R21418   3.681   3.749   7.485 -1.0471  1.4630  0.6076
  186SLPC  C21021419   3.595   3.637   7.636  0.7189 -0.5151  0.1600
  186SLPC  H10R21420   3.683   3.668   7.693 -0.9376  1.2659  1.8973
  186SLPC  C21121421   3.481   3.552   7.691 -0.2399 -0.3580  0.5277
  186SLPC  H11R21422   3.435   3.498   7.605  1.1671 -0.7107 -0.0175
  186SLPC  H11S21423   3.404   3.608   7.749  0.7687 -0.9795  2.5886
  186SLPC  C21221424   3.547   3.446   7.781 -0.5226 -0.3781  0.7430
  186SLPC  H12R21425   3.606   3.367   7.733 -1.4081 -0.7960  0.3124
  186SLPC  C21321426   3.554   3.470   7.909  0.1678  0.1718 -0.1570
  186SLPC  H13R21427   3.612   3.392   7.960  1.2672 -0.3218 -2.0780
  186SLPC  C21421428   3.499   3.590   7.984  0.1371  0.0746  0.2523
  186SLPC  H14R21429   3.419   3.556   8.054 -1.9809  2.1040 -1.0457
  186SLPC  H14S21430   3.444   3.670   7.930 -1.3121 -0.4393  0.9006
  186SLPC  C21521431   3.622   3.637   8.062  0.1573  0.0979 -0.1619
  186SLPC  H15R21432   3.669   3.565   8.131  0.2029  0.7096  0.4551
  186SLPC  H15S21433   3.587   3.728   8.115  1.2939 -1.4064  3.4814
  186SLPC  C21621434   3.738   3.704   7.978  1.1533 -0.6020 -0.5657
  186SLPC  H16R21435   3.703   3.801   7.937  0.4038 -1.0087 -0.9005
  186SLPC  H16S21436   3.767   3.635   7.896  2.0888 -1.1117  0.1670
  186SLPC  C21721437   3.866   3.725   8.062  0.7701  0.2914  0.2864
  186SLPC  H17R21438   3.936   3.787   8.002 -0.9944  3.9417  1.6912
  186SLPC  H17S21439   3.916   3.627   8.073 -4.0101 -2.5801 -0.4627
  186SLPC  C21821440   3.837   3.791   8.204  0.3937  0.5742  0.5746
  186SLPC  H18R21441   3.800   3.895   8.186  1.6167  0.7509 -1.1917
  186SLPC  H18S21442   3.934   3.789   8.257 -0.3937  0.0358  2.0566
  186SLPC  H18T21443   3.761   3.738   8.266  0.9427 -0.6791  0.2004
  186SLPC   C3321444   4.004   3.203   7.031  0.0097 -0.0096 -0.6664
  186SLPC   H3X21445   3.893   3.205   7.019 -0.2094 -1.4571  0.7260
  186SLPC   H3Y21446   4.044   3.303   7.003  0.3722  0.1631  0.4271
  186SLPC   C3421447   4.041   3.161   7.170  0.5630 -0.2312 -0.0115
  186SLPC   H4X21448   4.148   3.134   7.180  0.3722 -0.9222  0.2326
  186SLPC   H4Y21449   3.987   3.067   7.195 -1.2026  0.7944  0.2133
  186SLPC   C3521450   3.992   3.269   7.273 -1.0879 -0.1039 -0.8981
  186SLPC   H5X21451   3.884   3.295   7.260 -1.3433 -0.6360  0.0572
  186SLPC   H5Y21452   4.057   3.355   7.248  0.1182 -0.1529  1.7371
  186SLPC   C3621453   4.023   3.234   7.420  0.7071 -0.4660  0.0813
  186SLPC   H6X21454   4.133   3.218   7.419  0.7103 -0.4332 -0.5153
  186SLPC   H6Y21455   3.971   3.140   7.449  1.6531 -0.3664  2.3292
  186SLPC   C3721456   3.991   3.338   7.524  0.1801  0.4433 -1.2884
  186SLPC   H7X21457   3.881   3.351   7.524 -0.2197 -1.5590  2.1375
  186SLPC   H7Y21458   4.030   3.439   7.500 -0.9332  0.7883 -1.6944
  186SLPC   C3821459   4.033   3.294   7.670  0.1717 -0.6948 -0.3292
  186SLPC   H8X21460   4.136   3.251   7.669  0.5951  0.2556 -1.6080
  186SLPC   H8Y21461   3.960   3.215   7.698 -4.0346  1.4877 -3.8589
  186SLPC   C3921462   4.022   3.417   7.762 -0.3497 -0.0134 -0.7696
  186SLPC   H9X21463   3.927   3.470   7.742 -1.0648 -0.6851  0.7535
  186SLPC   H9Y21464   4.088   3.499   7.726 -2.6901  1.5318 -1.7415
  186SLPC  C31021465   4.040   3.383   7.910 -0.3185 -0.6491 -0.6663
  186SLPC  H10X21466   3.984   3.455   7.973  1.4746 -0.9135  1.3509
  186SLPC  H10Y21467   4.142   3.415   7.941 -0.7643 -0.2406  0.4285
  186SLPC  C31121468   4.028   3.233   7.954 -0.1441 -0.5011 -0.3589
  186SLPC  H11X21469   4.090   3.173   7.884 -0.8047 -2.8767  0.9900
  186SLPC  H11Y21470   3.927   3.190   7.937 -0.3503 -0.1531 -0.0606
  186SLPC  C31221471   4.067   3.201   8.097 -0.2614  0.0016 -0.1341
  186SLPC  H12X21472   4.048   3.092   8.090  1.2802 -0.2553 -0.5252
  186SLPC  H12Y21473   4.000   3.255   8.167 -1.6273 -2.9297  0.9921
  186SLPC  C31321474   4.216   3.233   8.131  0.2577 -0.4040  0.7059
  186SLPC  H13X21475   4.218   3.329   8.186 -0.8491 -0.1884  0.3837
  186SLPC  H13Y21476   4.276   3.245   8.038 -0.4724 -1.8983  0.0173
  186SLPC  C31421477   4.282   3.125   8.213 -0.2908 -0.1854  0.1116
  186SLPC  H14X21478   4.392   3.142   8.218  0.4281 -3.8882 -0.7411
  186SLPC  H14Y21479   4.271   3.024   8.169  1.5848 -0.2754 -0.2393
  186SLPC  C31521480   4.242   3.122   8.359  0.1753  0.4767 -0.1575
  186SLPC  H15X21481   4.132   3.110   8.356  0.3152 -0.8996 -1.8320
  186SLPC  H15Y21482   4.270   3.212   8.417  3.0873 -0.0803 -0.5001
  186SLPC  C31621483   4.304   2.995   8.429 -0.3571  0.1373 -0.5800
  186SLPC  H16X21484   4.287   2.901   8.371  3.5400 -0.8626 -0.3939
  186SLPC  H16Y21485   4.250   2.965   8.521 -1.3297 -1.4622 -1.6262
  186SLPC  C31721486   4.451   3.018   8.476  0.4909  0.1757 -0.1544
  186SLPC  H17X21487   4.464   3.006   8.585  0.7671  0.1161 -0.1935
  186SLPC  H17Y21488   4.464   3.128   8.462  0.0292  0.1971 -0.4571
  186SLPC  C31821489   4.547   2.950   8.391 -0.9568 -0.3314 -0.1166
  186SLPC  H18X21490   4.541   2.987   8.287  2.1785 -1.3973 -0.8017
  186SLPC  H18Y21491   4.525   2.842   8.397 -0.2888 -0.4323  0.7996
  186SLPC  H18Z21492   4.649   2.959   8.436 -0.1352 -1.6773 -1.6034
  187SLPC     N21493   4.073   6.145   6.018  0.2526  0.5834 -0.7004
  187SLPC   C1321494   4.196   6.220   5.981  0.0252  0.9416  0.2036
  187SLPC  H13A21495   4.276   6.190   6.048 -1.0962 -0.5991  0.9150
  187SLPC  H13B21496   4.234   6.180   5.888  2.0270 -4.4560  2.8973
  187SLPC  H13C21497   4.185   6.327   5.971 -0.0074  1.0809  1.5567
  187SLPC   C1421498   4.085   5.995   5.982  0.0670  0.4113  0.2335
  187SLPC  H14A21499   3.990   5.946   5.972 -0.1922  1.2041 -1.7266
  187SLPC  H14B21500   4.125   5.991   5.882 -0.9884  2.1633 -0.2911
  187SLPC  H14C21501   4.134   5.932   6.055 -0.0656  0.0430  0.0066
  187SLPC   C1521502   3.955   6.198   5.937  0.0152 -0.2251  0.2390
  187SLPC  H15A21503   3.872   6.128   5.942 -0.2393  0.1033  0.6959
  187SLPC  H15B21504   3.919   6.295   5.969  3.7437  1.4480 -0.1890
  187SLPC  H15C21505   3.975   6.198   5.831 -1.5653 -2.8892 -0.1621
  187SLPC   C1221506   4.049   6.161   6.171 -0.3598 -0.3300  0.0418
  187SLPC  H12A21507   3.947   6.135   6.199  0.0291 -2.5539 -0.4680
  187SLPC  H12B21508   4.067   6.265   6.196  0.2643 -0.3152 -0.4456
  187SLPC   C1121509   4.128   6.075   6.271  0.1653 -0.7978  0.0713
  187SLPC  H11A21510   4.138   6.123   6.371  1.3805  2.7751 -1.5815
  187SLPC  H11B21511   4.237   6.068   6.249  0.0540  0.6821 -1.1554
  187SLPC     P21512   3.960   5.910   6.361 -0.0614 -0.0129  0.5733
  187SLPC   O1321513   3.849   6.007   6.326 -0.1982  0.3018  0.0538
  187SLPC   O1421514   3.936   5.760   6.354 -0.3920 -0.8662 -0.7395
  187SLPC   O1221515   4.085   5.939   6.274 -0.0203  0.0014  0.0659
  187SLPC   O1121516   4.020   5.942   6.505 -0.1357 -0.0870  0.5320
  187SLPC    C121517   4.042   5.844   6.607  0.0697 -0.2522 -0.2343
  187SLPC    HA21518   3.946   5.795   6.633  0.9110 -2.2705 -0.7303
  187SLPC    HB21519   4.106   5.759   6.574  0.5965 -0.2295  0.6912
  187SLPC    C221520   4.121   5.895   6.729 -0.1610  0.3318  0.0818
  187SLPC    HS21521   4.231   5.889   6.712 -0.4027  1.4672 -2.2539
  187SLPC   O2121522   4.074   5.817   6.836  0.1275  0.2634 -0.3903
  187SLPC   C2121523   4.162   5.788   6.937 -0.1358  0.1510 -0.6717
  187SLPC   O2221524   4.283   5.815   6.935 -0.4836 -0.0366 -0.4977
  187SLPC   C2221525   4.101   5.735   7.059  0.3071  0.0773 -0.3160
  187SLPC   H2R21526   3.995   5.709   7.038  0.4527 -1.7181  0.8950
  187SLPC   H2S21527   4.151   5.639   7.085 -0.8232 -1.0439 -2.0372
  187SLPC    C321528   4.105   6.054   6.762 -0.0714  0.6449  0.3407
  187SLPC    HX21529   3.995   6.062   6.763 -0.3401 -1.8616 -0.5138
  187SLPC    HY21530   4.145   6.111   6.676 -2.5337  0.5975 -0.9206
  187SLPC   O3121531   4.171   6.100   6.885  0.6760  0.3184 -0.5016
  187SLPC   C3121532   4.300   6.101   6.881 -0.3472 -0.6370  0.1119
  187SLPC   O3221533   4.369   6.062   6.787  0.0262 -0.5154 -0.0597
  187SLPC   C3221534   4.353   6.163   7.009  0.6640  0.3118 -0.4851
  187SLPC   H2X21535   4.311   6.108   7.096 -2.8624 -0.8704 -2.7332
  187SLPC   H2Y21536   4.308   6.263   7.027  0.7247  0.5576 -1.6233
  187SLPC   C2321537   4.114   5.825   7.184 -0.8414  0.6828  0.3472
  187SLPC   H3R21538   4.084   5.929   7.159  0.0561  1.4377  2.2524
  187SLPC   H3S21539   4.221   5.828   7.214 -0.4802 -0.7395 -0.6634
  187SLPC   C2421540   4.033   5.764   7.302 -0.1877  0.3067 -0.3810
  187SLPC   H4R21541   4.095   5.736   7.389 -1.5939  0.3311  0.6536
  187SLPC   H4S21542   3.982   5.676   7.256  0.9305 -0.6363  0.1338
  187SLPC   C2521543   3.922   5.855   7.365 -0.0652  0.3131  0.3546
  187SLPC   H5R21544   3.854   5.878   7.280 -0.2791 -1.2390  0.0754
  187SLPC   H5S21545   3.990   5.938   7.393  2.2514 -0.8761 -1.3281
  187SLPC   C2621546   3.839   5.800   7.483 -0.6787  1.0051  0.2415
  187SLPC   H6R21547   3.899   5.726   7.539 -1.7575  1.0536  1.5011
  187SLPC   H6S21548   3.758   5.735   7.444  1.0173 -1.1836  0.1861
  187SLPC   C2721549   3.804   5.903   7.596  0.6916  0.6935  0.7594
  187SLPC   H7R21550   3.699   5.936   7.586 -0.2197 -1.8882  1.0461
  187SLPC   H7S21551   3.868   5.994   7.585  2.1318 -0.2979  0.6572
  187SLPC   C2821552   3.816   5.843   7.740 -0.1402 -0.3045  0.4803
  187SLPC   H8R21553   3.781   5.738   7.741  0.7465 -0.7939 -3.3037
  187SLPC   H8S21554   3.732   5.898   7.786  0.1924 -0.1117  0.8678
  187SLPC   C2921555   3.950   5.848   7.803  0.0408 -0.4205 -0.1794
  187SLPC   H9R21556   4.029   5.851   7.727  1.1884 -1.0698  0.9533
  187SLPC  C21021557   3.994   5.842   7.930 -0.3534 -0.7241 -0.2441
  187SLPC  H10R21558   4.101   5.836   7.956  0.0134  0.4251 -1.3578
  187SLPC  C21121559   3.905   5.830   8.053  0.3375  0.5288  0.7614
  187SLPC  H11R21560   3.808   5.883   8.046 -1.6776 -2.8178  1.5757
  187SLPC  H11S21561   3.951   5.883   8.140  2.0344  0.0932  0.1765
  187SLPC  C21221562   3.874   5.686   8.076 -0.1336  0.0683 -0.6948
  187SLPC  H12R21563   3.859   5.627   7.985 -3.6535 -1.2904  0.5937
  187SLPC  C21321564   3.878   5.612   8.193  0.3325  0.1603  0.1239
  187SLPC  H13R21565   3.839   5.510   8.200 -1.7446  0.9571  1.0434
  187SLPC  C21421566   3.906   5.657   8.336 -0.0515 -0.2951  0.3323
  187SLPC  H14R21567   3.820   5.631   8.400 -0.4553 -0.4817 -0.2786
  187SLPC  H14S21568   3.919   5.768   8.339  1.3907 -0.4623  2.1614
  187SLPC  C21521569   4.037   5.603   8.403  0.3427 -0.1779  0.1291
  187SLPC  H15R21570   4.056   5.502   8.361  3.1205  0.8103 -1.1957
  187SLPC  H15S21571   4.021   5.600   8.513 -1.2888  0.8411 -0.0364
  187SLPC  C21621572   4.148   5.700   8.368 -0.4971 -0.5076  0.2506
  187SLPC  H16R21573   4.123   5.802   8.402  1.0498  0.9582 -2.5864
  187SLPC  H16S21574   4.156   5.701   8.257  0.0574  1.0075  0.2789
  187SLPC  C21721575   4.282   5.658   8.432  0.7537 -0.7107  0.1580
  187SLPC  H17R21576   4.363   5.660   8.356  0.1667 -2.0871 -0.5545
  187SLPC  H17S21577   4.272   5.550   8.456  0.1129 -0.4926  0.9090
  187SLPC  C21821578   4.323   5.733   8.559 -0.0778  0.3689  0.4273
  187SLPC  H18R21579   4.312   5.843   8.551 -0.4047  0.2273 -1.3438
  187SLPC  H18S21580   4.429   5.714   8.588  0.4811  1.0941 -1.0319
  187SLPC  H18T21581   4.255   5.715   8.646  1.6498 -0.0936  1.7499
  187SLPC   C3321582   4.504   6.170   7.021 -0.4267 -0.5662  0.2603
  187SLPC   H3X21583   4.550   6.208   6.927 -1.1597 -0.1038  0.0796
  187SLPC   H3Y21584   4.539   6.065   7.030 -1.0140 -0.7173  0.7701
  187SLPC   C3421585   4.564   6.250   7.145 -0.3351 -1.2507  0.3691
  187SLPC   H4X21586   4.547   6.359   7.132 -1.8598 -1.7149 -2.4868
  187SLPC   H4Y21587   4.675   6.243   7.147 -0.2717 -0.8263 -0.8961
  187SLPC   C3521588   4.514   6.206   7.281  0.5812  0.8668  0.1287
  187SLPC   H5X21589   4.532   6.098   7.304 -3.1799 -0.2751 -1.5478
  187SLPC   H5Y21590   4.405   6.214   7.299  0.3485 -1.2789  0.0060
  187SLPC   C3621591   4.589   6.283   7.391 -0.9373  0.6991 -0.3995
  187SLPC   H6X21592   4.595   6.394   7.383  2.9787  0.6780  0.2283
  187SLPC   H6Y21593   4.693   6.244   7.389 -1.6078 -1.1364 -1.2504
  187SLPC   C3721594   4.532   6.255   7.533 -0.0924 -0.2621 -0.0936
  187SLPC   H7X21595   4.421   6.253   7.536 -0.0959 -2.7074  1.9353
  187SLPC   H7Y21596   4.560   6.150   7.558 -2.0715 -0.4337  1.6612
  187SLPC   C3821597   4.580   6.358   7.631 -0.1563 -0.1465 -0.2191
  187SLPC   H8X21598   4.605   6.455   7.581  0.2052 -0.6169 -0.9760
  187SLPC   H8Y21599   4.673   6.319   7.679  0.6729  1.8045 -0.1314
  187SLPC   C3921600   4.488   6.400   7.746 -0.0387 -0.0813 -0.6723
  187SLPC   H9X21601   4.467   6.309   7.805  0.1830 -0.1367 -0.6787
  187SLPC   H9Y21602   4.392   6.439   7.704  1.1911  2.9056 -1.0026
  187SLPC  C31021603   4.548   6.495   7.851  0.5274 -0.2006  0.4697
  187SLPC  H10X21604   4.563   6.594   7.804 -3.1517  1.7584  2.9425
  187SLPC  H10Y21605   4.645   6.458   7.890 -0.1483 -1.6785  0.8561
  187SLPC  C31121606   4.443   6.526   7.962  0.4432  0.6931 -0.0260
  187SLPC  H11X21607   4.410   6.432   8.010 -1.2398  0.8267 -0.8647
  187SLPC  H11Y21608   4.349   6.569   7.922  0.4080  1.0698  0.4462
  187SLPC  C31221609   4.503   6.612   8.074 -0.1811  0.2976 -0.8585
  187SLPC  H12X21610   4.417   6.641   8.139  0.7182 -0.8922  0.9627
  187SLPC  H12Y21611   4.553   6.698   8.026 -0.4173  0.4343 -0.8629
  187SLPC  C31321612   4.604   6.536   8.164  0.2975 -0.3882  0.2410
  187SLPC  H13X21613   4.674   6.487   8.093  0.2629  0.5458 -0.4652
  187SLPC  H13Y21614   4.559   6.452   8.220 -1.5121 -1.2961 -2.3733
  187SLPC  C31421615   4.672   6.627   8.263  0.1559  0.0471  0.4526
  187SLPC  H14X21616   4.717   6.721   8.223  0.9605 -0.2351  0.6694
  187SLPC  H14Y21617   4.754   6.571   8.312 -1.5304 -0.6631  2.5917
  187SLPC  C31521618   4.577   6.683   8.374 -0.1681 -0.0133 -0.2134
  187SLPC  H15X21619   4.511   6.598   8.402 -0.4988  0.5500  0.7832
  187SLPC  H15Y21620   4.509   6.756   8.325  1.4342  1.9092  0.2921
  187SLPC  C31621621   4.650   6.757   8.488  0.0970  0.1569 -0.2736
  187SLPC  H16X21622   4.720   6.830   8.442 -1.4544  2.5001  0.8636
  187SLPC  H16Y21623   4.703   6.686   8.555 -0.1446  1.4531  1.3765
  187SLPC  C31721624   4.561   6.834   8.583 -0.0578 -0.1278  0.2390
  187SLPC  H17X21625   4.474   6.767   8.603  0.6877 -0.6451  1.9399
  187SLPC  H17Y21626   4.524   6.922   8.527 -0.2960  1.8046  3.2592
  187SLPC  C31821627   4.633   6.877   8.711 -0.0558  0.0802  0.0116
  187SLPC  H18X21628   4.728   6.929   8.689  0.8407 -1.0804  1.0487
  187SLPC  H18Y21629   4.656   6.789   8.775  2.0185  0.6097  0.0626
  187SLPC  H18Z21630   4.562   6.943   8.766 -1.2263 -1.4473  0.4066
  188SLPC     N21631   5.803   2.157   6.081  0.6041 -0.2870 -0.4322
  188SLPC   C1321632   5.818   2.165   5.934  0.3787 -0.7083  0.2019
  188SLPC  H13A21633   5.734   2.215   5.887  1.7344 -0.8318 -2.5417
  188SLPC  H13B21634   5.898   2.226   5.895  0.1356  0.1660  1.0311
  188SLPC  H13C21635   5.818   2.073   5.877  0.7469  0.2826 -1.4755
  188SLPC   C1421636   5.925   2.098   6.140 -0.1844  0.2072  0.7203
  188SLPC  H14A21637   6.004   2.171   6.134 -2.2687  2.5142 -0.4910
  188SLPC  H14B21638   5.913   2.065   6.243 -0.7207  1.0112  0.9219
  188SLPC  H14C21639   5.959   2.012   6.085 -0.5638  0.4292  0.1349
  188SLPC   C1521640   5.671   2.083   6.100  0.3547  0.7543 -0.6788
  188SLPC  H15A21641   5.689   1.979   6.074  2.1529  0.8429  0.0313
  188SLPC  H15B21642   5.663   2.065   6.206  3.5682 -2.9013 -0.8142
  188SLPC  H15C21643   5.583   2.120   6.050  0.1119  0.1390 -0.7158
  188SLPC   C1221644   5.793   2.301   6.125  0.7019 -0.6778  0.5800
  188SLPC  H12A21645   5.721   2.353   6.062  1.5919  0.3058  0.3395
  188SLPC  H12B21646   5.882   2.361   6.114  0.3934 -0.3145  0.0074
  188SLPC   C1121647   5.742   2.331   6.271 -0.0946  0.5758  0.5169
  188SLPC  H11A21648   5.645   2.279   6.283 -0.5746  1.3427  0.0543
  188SLPC  H11B21649   5.716   2.439   6.274 -3.1133  0.0179 -1.2154
  188SLPC     P21650   5.942   2.368   6.416  0.2844  0.4544  0.2933
  188SLPC   O1321651   6.044   2.281   6.482  0.1063  0.2181 -0.5753
  188SLPC   O1421652   5.996   2.449   6.304  0.1368 -0.1784  0.1007
  188SLPC   O1221653   5.828   2.271   6.365  0.0362 -0.3389 -0.3042
  188SLPC   O1121654   5.882   2.470   6.526  0.1196  0.0135  0.1877
  188SLPC    C121655   5.843   2.428   6.659 -0.6206 -0.0417 -1.1318
  188SLPC    HA21656   5.902   2.339   6.688 -1.3168  0.1274  0.9455
  188SLPC    HB21657   5.877   2.509   6.726  2.1278  1.2038 -3.7756
  188SLPC    C221658   5.692   2.381   6.668  0.0881 -0.2291 -0.5023
  188SLPC    HS21659   5.672   2.330   6.571 -2.0249  1.4183 -0.9992
  188SLPC   O2121660   5.602   2.493   6.677  0.1848 -0.4732  0.6576
  188SLPC   C2121661   5.489   2.476   6.608 -0.8729 -0.3110  0.3006
  188SLPC   O2221662   5.449   2.370   6.555  0.0584 -0.3765 -0.0644
  188SLPC   C2221663   5.405   2.608   6.621  0.1095  0.2684 -0.2042
  188SLPC   H2R21664   5.470   2.693   6.650 -0.2316 -0.1111  1.7762
  188SLPC   H2S21665   5.349   2.631   6.528  1.7940 -0.9997 -1.6314
  188SLPC    C321666   5.680   2.286   6.795 -0.9308 -0.3419  1.1206
  188SLPC    HX21667   5.710   2.363   6.870  0.0623  1.6857 -1.2352
  188SLPC    HY21668   5.755   2.204   6.797  0.0773  0.4459 -1.0972
  188SLPC   O3121669   5.553   2.241   6.837  0.1192  0.0664  0.7816
  188SLPC   C3121670   5.500   2.257   6.954 -0.2557 -0.0430  0.7728
  188SLPC   O3221671   5.550   2.323   7.047 -0.2146  0.4269 -0.0388
  188SLPC   C3221672   5.360   2.209   6.947  1.2443  0.4292 -0.6850
  188SLPC   H2X21673   5.356   2.099   6.965  0.4841  0.2139 -2.0157
  188SLPC   H2Y21674   5.320   2.218   6.844 -0.7321 -2.2312 -0.2753
  188SLPC   C2321675   5.310   2.620   6.740 -0.1417 -0.3363 -0.1539
  188SLPC   H3R21676   5.236   2.538   6.747  1.2067 -1.5621  0.3060
  188SLPC   H3S21677   5.243   2.707   6.725  0.4356  0.4364  1.5328
  188SLPC   C2421678   5.378   2.631   6.881 -0.7747  0.1846 -0.5595
  188SLPC   H4R21679   5.450   2.714   6.894 -0.4595 -0.0575 -0.7202
  188SLPC   H4S21680   5.443   2.544   6.903 -1.0649  0.1461  0.1582
  188SLPC   C2521681   5.269   2.638   6.994  0.4033  0.4407 -1.1996
  188SLPC   H5R21682   5.200   2.552   6.976 -1.1889  1.1210  1.1437
  188SLPC   H5S21683   5.232   2.742   6.992  0.7339  0.5613 -1.0522
  188SLPC   C2621684   5.339   2.639   7.125 -0.3488  0.7791 -0.0315
  188SLPC   H6R21685   5.428   2.707   7.126  0.6304 -0.4392 -1.0741
  188SLPC   H6S21686   5.376   2.536   7.144 -1.8292 -0.0314 -1.3931
  188SLPC   C2721687   5.248   2.699   7.235  0.6328  0.1491  0.0128
  188SLPC   H7R21688   5.149   2.649   7.231  0.0092  1.3015  0.6188
  188SLPC   H7S21689   5.219   2.806   7.226  1.7116  0.4920  0.4940
  188SLPC   C2821690   5.299   2.688   7.380 -0.1347 -1.1221  0.0138
  188SLPC   H8R21691   5.222   2.718   7.455  0.4632 -3.4397  1.6549
  188SLPC   H8S21692   5.383   2.760   7.388 -1.7836  0.8310  0.8938
  188SLPC   C2921693   5.339   2.555   7.427 -0.0979 -0.0617  0.6904
  188SLPC   H9R21694   5.361   2.491   7.340 -2.8953  0.1890 -0.2874
  188SLPC  C21021695   5.344   2.507   7.550  0.2221 -0.1797  0.2719
  188SLPC  H10R21696   5.369   2.400   7.560  1.0941 -0.0562 -0.4818
  188SLPC  C21121697   5.313   2.586   7.674 -0.4455  0.0896 -0.4291
  188SLPC  H11R21698   5.248   2.675   7.656 -2.6435 -0.9871  1.6507
  188SLPC  H11S21699   5.404   2.630   7.720 -0.3304  2.2135 -2.5059
  188SLPC  C21221700   5.222   2.507   7.772  0.2450 -0.0592  0.3327
  188SLPC  H12R21701   5.138   2.452   7.727  0.7591 -0.7928  0.2504
  188SLPC  C21321702   5.221   2.507   7.905 -0.0824 -0.0089 -0.1185
  188SLPC  H13R21703   5.152   2.440   7.958  0.7697  0.7034  1.9878
  188SLPC  C21421704   5.311   2.584   8.002  0.6524 -0.2525  0.7497
  188SLPC  H14R21705   5.253   2.615   8.092 -0.2543  4.5049 -1.1389
  188SLPC  H14S21706   5.359   2.674   7.956 -1.4195  0.2303 -0.5939
  188SLPC  C21521707   5.427   2.504   8.057 -0.1145 -0.5469 -0.2615
  188SLPC  H15R21708   5.490   2.481   7.968  0.8498 -0.4516  0.3773
  188SLPC  H15S21709   5.380   2.411   8.097 -2.6436  0.0208 -1.6893
  188SLPC  C21621710   5.507   2.576   8.167  0.0574  0.1854 -0.8199
  188SLPC  H16R21711   5.422   2.594   8.236 -0.5466 -0.0886 -1.4814
  188SLPC  H16S21712   5.553   2.665   8.120 -0.2701 -0.0948 -1.6791
  188SLPC  C21721713   5.614   2.478   8.226  0.1797 -0.1684  0.1748
  188SLPC  H17R21714   5.690   2.458   8.147  0.6721  1.0697  0.3073
  188SLPC  H17S21715   5.568   2.383   8.260 -0.7486 -0.9963 -2.9936
  188SLPC  C21821716   5.689   2.549   8.349 -0.4159  0.3175  0.8570
  188SLPC  H18R21717   5.631   2.528   8.441 -3.4702 -1.1487 -1.2179
  188SLPC  H18S21718   5.689   2.659   8.336 -0.1774  0.0769 -1.6521
  188SLPC  H18T21719   5.790   2.504   8.361 -1.0960 -1.5620  0.0866
  188SLPC   C3321720   5.262   2.263   7.058  0.1331  0.4434  0.3811
  188SLPC   H3X21721   5.163   2.283   7.013  0.2257 -0.2395 -0.1575
  188SLPC   H3Y21722   5.286   2.365   7.093 -1.4227  1.3211 -1.0009
  188SLPC   C3421723   5.259   2.173   7.186 -0.3283  0.2584 -0.4359
  188SLPC   H4X21724   5.355   2.194   7.238  0.1023  0.7358 -1.4181
  188SLPC   H4Y21725   5.249   2.065   7.160  2.2524 -0.8219  2.4548
  188SLPC   C3521726   5.133   2.206   7.271 -0.2904  0.7856 -0.0745
  188SLPC   H5X21727   5.041   2.158   7.233 -0.2658  0.7414 -0.0789
  188SLPC   H5Y21728   5.111   2.314   7.282  0.1259  0.9931 -1.1483
  188SLPC   C3621729   5.155   2.143   7.410  0.1595  0.4809 -0.2369
  188SLPC   H6X21730   5.256   2.170   7.447 -0.6954  0.2311  2.5092
  188SLPC   H6Y21731   5.151   2.032   7.402  2.3664  0.4552 -1.7453
  188SLPC   C3721732   5.039   2.190   7.502 -0.4854 -0.5343  0.5195
  188SLPC   H7X21733   4.942   2.185   7.448  0.5362  1.7786 -1.7412
  188SLPC   H7Y21734   5.056   2.296   7.529 -1.7906  0.3106 -1.7093
  188SLPC   C3821735   5.021   2.105   7.635 -0.3425 -0.0971 -0.4623
  188SLPC   H8X21736   5.016   1.997   7.606  2.8617 -0.3438 -0.4535
  188SLPC   H8Y21737   4.929   2.141   7.685  1.3560  1.1711  1.9342
  188SLPC   C3921738   5.149   2.105   7.724 -0.5033  0.7246  0.2272
  188SLPC   H9X21739   5.176   2.212   7.738  0.2052  0.7216 -0.9496
  188SLPC   H9Y21740   5.226   2.054   7.663  0.1627 -0.2541  1.8390
  188SLPC  C31021741   5.147   2.043   7.867  0.0354 -0.5419  0.4536
  188SLPC  H10X21742   5.247   2.048   7.916  0.1987 -0.1506  0.0857
  188SLPC  H10Y21743   5.132   1.935   7.849  2.0740 -0.4846 -2.1204
  188SLPC  C31121744   5.047   2.129   7.945 -0.4631  0.6773 -1.2943
  188SLPC  H11X21745   4.943   2.119   7.909 -0.4842 -2.2894 -0.6503
  188SLPC  H11Y21746   5.079   2.235   7.942 -2.5338  1.3995  0.0171
  188SLPC  C31221747   5.035   2.091   8.097 -0.2667 -0.1992 -0.4057
  188SLPC  H12X21748   5.009   1.983   8.107 -1.4078  0.0539 -0.4057
  188SLPC  H12Y21749   4.943   2.142   8.136 -0.1637  1.5562 -2.2973
  188SLPC  C31321750   5.162   2.140   8.175  0.2123  0.1604  0.1507
  188SLPC  H13X21751   5.154   2.251   8.173 -2.3757  0.0528  1.0694
  188SLPC  H13Y21752   5.259   2.095   8.143  0.6730  0.4817  1.0621
  188SLPC  C31421753   5.168   2.109   8.323  0.3214 -0.1321  0.3324
  188SLPC  H14X21754   5.169   2.001   8.347 -0.0768 -0.3310 -0.5192
  188SLPC  H14Y21755   5.085   2.159   8.377  1.0720  1.0823  0.4171
  188SLPC  C31521756   5.300   2.166   8.377  0.4340 -0.8840 -0.3987
  188SLPC  H15X21757   5.313   2.274   8.352  0.3434 -1.0142 -1.0197
  188SLPC  H15Y21758   5.388   2.117   8.330  0.3092 -2.0234  0.5106
  188SLPC  C31621759   5.310   2.164   8.522 -0.1233 -0.3823  0.1946
  188SLPC  H16X21760   5.316   2.064   8.571 -1.6846 -0.1603  0.8858
  188SLPC  H16Y21761   5.223   2.217   8.567  0.2528  1.7082 -1.3750
  188SLPC  C31721762   5.429   2.249   8.576 -0.3173 -0.1293  0.1477
  188SLPC  H17X21763   5.420   2.353   8.537 -0.4979 -1.1459 -2.6976
  188SLPC  H17Y21764   5.529   2.211   8.546  0.0754 -0.2069  1.4813
  188SLPC  C31821765   5.430   2.254   8.730  0.1118 -0.7426 -0.1819
  188SLPC  H18X21766   5.437   2.156   8.781  2.3143  0.4365  2.0131
  188SLPC  H18Y21767   5.330   2.289   8.764  0.8626  0.5173  0.8457
  188SLPC  H18Z21768   5.493   2.324   8.789 -2.9626 -0.7141  3.4153
  189SLPC     N21769   1.654   4.405   5.990  1.0583  0.3335  0.3314
  189SLPC   C1321770   1.616   4.540   5.946  0.2666 -0.0036 -0.3660
  189SLPC  H13A21771   1.533   4.548   5.877  0.0746 -0.4701 -0.1929
  189SLPC  H13B21772   1.590   4.600   6.033  0.7389  0.3685 -0.4738
  189SLPC  H13C21773   1.699   4.588   5.896 -0.9662  1.0564 -1.4684
  189SLPC   C1421774   1.800   4.402   6.017 -0.9992  0.5651 -0.1215
  189SLPC  H14A21775   1.850   4.422   5.923  0.9336 -0.6881  0.5733
  189SLPC  H14B21776   1.828   4.487   6.077  0.7665  0.9730 -1.4483
  189SLPC  H14C21777   1.835   4.309   6.059 -2.3100  0.7621  1.5151
  189SLPC   C1521778   1.621   4.305   5.883 -0.2368 -0.7322 -0.2621
  189SLPC  H15A21779   1.669   4.213   5.911 -1.0578 -0.9149  0.5762
  189SLPC  H15B21780   1.516   4.285   5.896 -1.1533  3.0821 -0.6463
  189SLPC  H15C21781   1.658   4.334   5.786 -0.4873 -1.6822 -0.6516
  189SLPC   C1221782   1.578   4.362   6.119  0.2888  0.1003  0.0000
  189SLPC  H12A21783   1.598   4.258   6.138  0.5276 -0.1681 -1.6162
  189SLPC  H12B21784   1.471   4.367   6.103  0.2291 -1.9522 -0.5167
  189SLPC   C1121785   1.605   4.437   6.251  0.4669  0.0526  0.1288
  189SLPC  H11A21786   1.714   4.441   6.269  0.5399 -1.1236  0.0512
  189SLPC  H11B21787   1.571   4.371   6.333  3.9390 -0.8104  1.0455
  189SLPC     P21788   1.389   4.578   6.269 -0.2050  0.3565  0.3369
  189SLPC   O1321789   1.346   4.713   6.239  0.0550 -0.1020 -0.0240
  189SLPC   O1421790   1.314   4.473   6.192  0.5290  0.3135  0.2975
  189SLPC   O1221791   1.548   4.568   6.254 -0.1973  0.3244 -0.5540
  189SLPC   O1121792   1.356   4.552   6.425 -0.0369  0.0957  0.1967
  189SLPC    C121793   1.233   4.582   6.482  0.2132  0.4310 -0.6110
  189SLPC    HA21794   1.170   4.626   6.402  1.3809  1.4090 -1.0231
  189SLPC    HB21795   1.177   4.493   6.519  1.9137 -0.2191  0.5214
  189SLPC    C221796   1.231   4.680   6.605 -0.2892  0.5888 -0.1132
  189SLPC    HS21797   1.269   4.775   6.561 -0.4099  0.2465 -0.9631
  189SLPC   O2121798   1.316   4.629   6.712 -0.0527  0.0592  0.1571
  189SLPC   C2121799   1.358   4.722   6.799  0.5490  0.1117 -0.6406
  189SLPC   O2221800   1.354   4.843   6.786 -0.6886 -0.2106 -0.5713
  189SLPC   C2221801   1.412   4.643   6.919  0.3637  0.1336  0.0663
  189SLPC   H2R21802   1.320   4.607   6.970  0.1273  1.2973  0.4987
  189SLPC   H2S21803   1.474   4.564   6.871 -0.2643 -0.2604 -0.0941
  189SLPC    C321804   1.085   4.726   6.650 -0.4879 -0.0217  0.3588
  189SLPC    HX21805   1.037   4.776   6.563 -0.3504 -0.3360  0.1021
  189SLPC    HY21806   1.096   4.812   6.719 -0.5029 -0.0134  0.3512
  189SLPC   O3121807   0.994   4.615   6.681  0.0631 -0.2394  0.5622
  189SLPC   C3121808   0.964   4.607   6.807 -0.3183 -0.3740 -0.7096
  189SLPC   O3221809   1.005   4.676   6.900 -0.1252  0.1808 -0.4461
  189SLPC   C3221810   0.859   4.494   6.818  0.4530 -0.2786 -0.5860
  189SLPC   H2X21811   0.924   4.404   6.811 -0.5350 -1.0186 -0.5363
  189SLPC   H2Y21812   0.784   4.497   6.736 -0.7282 -0.3682  0.4602
  189SLPC   C2321813   1.492   4.724   7.022  0.6016 -0.0755  0.3657
  189SLPC   H3R21814   1.461   4.700   7.126 -1.2466 -3.3626 -0.8260
  189SLPC   H3S21815   1.467   4.831   7.006  0.6698 -0.1849 -0.4958
  189SLPC   C2421816   1.645   4.717   7.011  0.6808  0.0446  0.1766
  189SLPC   H4R21817   1.672   4.632   6.944 -3.0135 -0.3459 -1.0453
  189SLPC   H4S21818   1.664   4.690   7.117 -0.0772 -0.6653  0.1422
  189SLPC   C2521819   1.711   4.846   6.972  0.3548  0.1457 -0.8871
  189SLPC   H5R21820   1.657   4.876   6.880 -0.4632 -1.8953 -1.1124
  189SLPC   H5S21821   1.818   4.842   6.940 -0.0170  1.1984 -2.3681
  189SLPC   C2621822   1.710   4.944   7.086 -0.6084  0.9200  0.0042
  189SLPC   H6R21823   1.799   4.923   7.150 -0.6224  2.9580  0.7807
  189SLPC   H6S21824   1.624   4.919   7.152  0.5723 -1.1547  0.8550
  189SLPC   C2721825   1.725   5.091   7.054  0.4824 -0.1062 -0.1578
  189SLPC   H7R21826   1.646   5.106   6.978  1.4423  0.0164 -1.1687
  189SLPC   H7S21827   1.819   5.114   6.999 -0.3991  2.2716 -0.7976
  189SLPC   C2821828   1.693   5.181   7.171  0.3806 -0.5630  1.3568
  189SLPC   H8R21829   1.740   5.140   7.263  0.1364 -2.3482  0.7291
  189SLPC   H8S21830   1.583   5.181   7.189 -0.0095 -0.0577 -0.7180
  189SLPC   C2921831   1.729   5.321   7.145 -0.0229 -0.3162 -0.6107
  189SLPC   H9R21832   1.738   5.346   7.038  1.9357 -3.7009 -1.3601
  189SLPC  C21021833   1.763   5.409   7.235 -0.5023 -0.3828 -0.6136
  189SLPC  H10R21834   1.780   5.513   7.203  2.0637  0.3095  2.5228
  189SLPC  C21121835   1.763   5.387   7.385  1.2268 -0.0786 -0.7399
  189SLPC  H11R21836   1.737   5.281   7.404  0.1589  0.5597  1.8339
  189SLPC  H11S21837   1.676   5.436   7.434  1.3842 -0.2183 -0.3206
  189SLPC  C21221838   1.892   5.426   7.455  0.3447  0.4509  0.3660
  189SLPC  H12R21839   1.958   5.472   7.379 -0.3914 -0.4470 -0.8517
  189SLPC  C21321840   1.912   5.419   7.591  0.1822  0.2924  0.0840
  189SLPC  H13R21841   2.008   5.446   7.638 -1.1337  2.1450  1.8912
  189SLPC  C21421842   1.821   5.364   7.705  0.0144  0.5161 -0.2674
  189SLPC  H14R21843   1.855   5.266   7.744 -0.9785  0.3419  0.2011
  189SLPC  H14S21844   1.717   5.351   7.668 -0.3788 -0.7782  1.1830
  189SLPC  C21521845   1.817   5.458   7.829  0.5355  0.7267  0.8307
  189SLPC  H15R21846   1.792   5.557   7.785  1.6326  0.4046 -0.6050
  189SLPC  H15S21847   1.916   5.453   7.879  1.0224  0.1428 -0.1419
  189SLPC  C21621848   1.702   5.421   7.917  0.1954  0.4478 -0.2467
  189SLPC  H16R21849   1.730   5.329   7.973 -0.3508  0.5992  0.2908
  189SLPC  H16S21850   1.603   5.403   7.869 -0.5160  0.5709  1.1237
  189SLPC  C21721851   1.670   5.530   8.022 -0.2465  0.4175 -0.3593
  189SLPC  H17R21852   1.622   5.619   7.976  0.0989  0.3553 -0.8422
  189SLPC  H17S21853   1.767   5.562   8.066 -0.1382 -0.1090 -0.2142
  189SLPC  C21821854   1.569   5.493   8.130 -0.5648  0.1479 -0.0670
  189SLPC  H18R21855   1.619   5.423   8.201  0.6668  0.0071 -1.0490
  189SLPC  H18S21856   1.473   5.451   8.093 -1.6573  0.8713  1.8041
  189SLPC  H18T21857   1.552   5.589   8.184  2.1957  0.4679  0.3416
  189SLPC   C3321858   0.768   4.491   6.943  0.0992 -0.0207 -0.3414
  189SLPC   H3X21859   0.670   4.447   6.915  0.3906 -0.4120 -0.7817
  189SLPC   H3Y21860   0.753   4.592   6.986  0.3720 -0.1286  0.0172
  189SLPC   C3421861   0.808   4.383   7.051  0.2461  0.2072 -0.9050
  189SLPC   H4X21862   0.903   4.415   7.099 -0.5119 -0.7996  1.4325
  189SLPC   H4Y21863   0.836   4.283   7.010 -0.3658 -0.0748 -0.6487
  189SLPC   C3521864   0.712   4.381   7.178  0.1042 -0.0343 -0.5646
  189SLPC   H5X21865   0.732   4.285   7.230  0.2191  1.2853  1.9579
  189SLPC   H5Y21866   0.609   4.400   7.140 -0.6525  1.3066  1.9096
  189SLPC   C3621867   0.741   4.500   7.269  0.0580  0.1080 -0.1023
  189SLPC   H6X21868   0.738   4.597   7.214 -0.6811 -0.2326 -0.6884
  189SLPC   H6Y21869   0.844   4.495   7.311  1.1106  0.6235 -2.4720
  189SLPC   C3721870   0.645   4.507   7.385  0.0715  0.2659  0.6548
  189SLPC   H7X21871   0.538   4.518   7.357 -0.1866  1.3210  1.9394
  189SLPC   H7Y21872   0.673   4.607   7.424  0.4531  0.2643  0.3920
  189SLPC   C3821873   0.664   4.400   7.488  0.1537  0.5656 -0.2883
  189SLPC   H8X21874   0.761   4.392   7.541 -0.8222  0.5004  1.5680
  189SLPC   H8Y21875   0.637   4.304   7.440  1.6871  0.0490 -0.1755
  189SLPC   C3921876   0.570   4.423   7.603 -0.1562  0.5487 -0.9015
  189SLPC   H9X21877   0.466   4.426   7.562 -0.2143  1.9172 -0.6949
  189SLPC   H9Y21878   0.592   4.525   7.640 -0.4772 -0.7501  3.4943
  189SLPC  C31021879   0.586   4.328   7.721 -0.4532  1.2966 -0.3872
  189SLPC  H10X21880   0.693   4.340   7.749 -0.3012  0.7086 -0.7025
  189SLPC  H10Y21881   0.585   4.227   7.675 -0.1100  1.5713 -1.0115
  189SLPC  C31121882   0.509   4.370   7.849 -0.6772  0.6643  0.1121
  189SLPC  H11X21883   0.405   4.379   7.814 -1.6910 -0.0378  2.6734
  189SLPC  H11Y21884   0.547   4.469   7.883  0.4269 -0.1451  1.3315
  189SLPC  C31221885   0.495   4.261   7.956 -0.4602 -0.0336  1.0203
  189SLPC  H12X21886   0.456   4.176   7.896 -1.0026  0.6368  0.4019
  189SLPC  H12Y21887   0.414   4.300   8.021 -1.4266  1.9520 -1.2261
  189SLPC  C31321888   0.630   4.238   8.027  0.3214  0.0617  0.5980
  189SLPC  H13X21889   0.686   4.333   8.038 -1.7427  1.5884 -1.3179
  189SLPC  H13Y21890   0.687   4.166   7.965 -1.5710 -0.2275 -0.8672
  189SLPC  C31421891   0.630   4.178   8.168 -0.2335  0.9936  0.6300
  189SLPC  H14X21892   0.569   4.243   8.234  0.2296  2.4977 -0.3610
  189SLPC  H14Y21893   0.738   4.174   8.194  0.4495 -0.6726 -2.0438
  189SLPC  C31521894   0.567   4.041   8.172 -0.0680  0.2157 -1.2228
  189SLPC  H15X21895   0.611   3.980   8.090 -1.5780 -1.5472 -0.7994
  189SLPC  H15Y21896   0.464   4.055   8.134  0.5331 -2.6219 -4.3951
  189SLPC  C31621897   0.562   3.982   8.320  0.2085 -0.1154  0.0842
  189SLPC  H16X21898   0.509   3.885   8.323 -2.1897  1.0833 -0.9289
  189SLPC  H16Y21899   0.497   4.058   8.369  1.0273  1.4953 -1.2120
  189SLPC  C31721900   0.696   3.966   8.387 -0.5326 -0.4580 -0.2112
  189SLPC  H17X21901   0.754   4.060   8.402 -2.1894  0.5105  0.3632
  189SLPC  H17Y21902   0.746   3.902   8.311 -1.2777 -1.9811  0.5351
  189SLPC  C31821903   0.694   3.898   8.523  0.5124  0.3848  0.2356
  189SLPC  H18X21904   0.635   3.805   8.507 -0.6415  1.1815 -0.3110
  189SLPC  H18Y21905   0.648   3.957   8.605  0.5461  0.8801 -0.0999
  189SLPC  H18Z21906   0.794   3.859   8.551  0.9255  1.0252 -0.3148
  190SLPC     N21907   1.197   3.366   6.386  0.4269  0.0810 -0.1231
  190SLPC   C1321908   1.267   3.335   6.518  0.2070  0.0737 -0.0053
  190SLPC  H13A21909   1.239   3.405   6.594 -0.7869  0.7574 -0.9583
  190SLPC  H13B21910   1.230   3.242   6.560 -0.7978  0.8408  0.8835
  190SLPC  H13C21911   1.373   3.326   6.502  0.3468  0.5287  0.6764
  190SLPC   C1421912   1.233   3.258   6.290 -0.2801 -0.3349 -0.6353
  190SLPC  H14A21913   1.339   3.240   6.298  0.1113  1.8944  0.0180
  190SLPC  H14B21914   1.189   3.163   6.314  1.9213 -0.8362  1.6923
  190SLPC  H14C21915   1.202   3.284   6.190 -2.7950 -4.7594 -1.2763
  190SLPC   C1521916   1.244   3.499   6.331  0.6234  0.9210 -0.5111
  190SLPC  H15A21917   1.214   3.585   6.388  0.2590  0.5817 -0.1822
  190SLPC  H15B21918   1.352   3.504   6.332  0.5482  4.1959  0.1816
  190SLPC  H15C21919   1.203   3.523   6.234  0.9446  0.4949 -0.7573
  190SLPC   C1221920   1.041   3.367   6.409 -0.2954  0.0865  0.8586
  190SLPC  H12A21921   1.004   3.269   6.435 -1.8192  0.4331  0.0908
  190SLPC  H12B21922   1.014   3.387   6.307  0.2412  2.2551  1.0837
  190SLPC   C1121923   0.981   3.471   6.507 -0.2678 -0.2238  0.6668
  190SLPC  H11A21924   1.038   3.448   6.599  0.7047  1.4172  0.5263
  190SLPC  H11B21925   0.873   3.470   6.530 -0.4676  0.6550 -0.1415
  190SLPC     P21926   0.944   3.667   6.340 -0.6615  0.2473 -0.0997
  190SLPC   O1321927   1.047   3.742   6.260 -0.3608 -0.7005 -0.5096
  190SLPC   O1421928   0.859   3.569   6.261 -0.2673 -0.1063 -0.1870
  190SLPC   O1221929   1.014   3.604   6.474  0.5225  0.4669  0.2738
  190SLPC   O1121930   0.845   3.775   6.395  0.0487 -0.1341 -0.5599
  190SLPC    C121931   0.897   3.890   6.464  0.1050 -0.4494  0.0590
  190SLPC    HA21932   1.000   3.923   6.440 -0.2602  0.3609 -0.4199
  190SLPC    HB21933   0.829   3.975   6.441  0.6173 -0.0009  0.2095
  190SLPC    C221934   0.890   3.860   6.615 -0.8057 -0.4582  0.2881
  190SLPC    HS21935   0.959   3.774   6.633  0.4034  0.6779  1.3179
  190SLPC   O2121936   0.751   3.828   6.638  0.3873 -0.2650 -0.4458
  190SLPC   C2121937   0.738   3.728   6.712 -0.3997  0.4724  0.8278
  190SLPC   O2221938   0.825   3.657   6.753 -1.2135 -0.2782  0.2696
  190SLPC   C2221939   0.590   3.689   6.730 -0.5085  0.0531  0.6750
  190SLPC   H2R21940   0.532   3.774   6.686  4.1078  2.7077 -0.9821
  190SLPC   H2S21941   0.578   3.593   6.676  0.4429 -0.5385  1.4851
  190SLPC    C321942   0.936   3.971   6.705  0.1738 -0.2964 -0.1174
  190SLPC    HX21943   0.871   4.058   6.684  0.1490 -0.9120 -2.8949
  190SLPC    HY21944   1.038   4.005   6.675 -0.6592  1.5187 -1.0094
  190SLPC   O3121945   0.923   3.942   6.847 -0.9544 -0.2892 -0.3529
  190SLPC   C3121946   1.008   3.853   6.895  0.1710 -0.3485 -0.5344
  190SLPC   O3221947   1.110   3.812   6.843  0.1412  0.8067 -0.4125
  190SLPC   C3221948   0.956   3.803   7.032  0.2225  0.9380  0.5298
  190SLPC   H2X21949   1.023   3.716   7.052 -1.8589 -0.7301  0.6622
  190SLPC   H2Y21950   0.859   3.752   7.013  1.1885 -0.4212 -1.0253
  190SLPC   C2321951   0.561   3.671   6.878 -0.3774  0.4884 -0.4903
  190SLPC   H3R21952   0.641   3.603   6.914  0.4627  0.6153 -2.0553
  190SLPC   H3S21953   0.460   3.630   6.899 -0.5616  1.0005 -0.3366
  190SLPC   C2421954   0.570   3.794   6.962  0.0629  0.1915 -0.5713
  190SLPC   H4R21955   0.499   3.863   6.912  0.2509  0.6733 -0.1883
  190SLPC   H4S21956   0.672   3.839   6.960  1.1426 -2.1154 -1.3643
  190SLPC   C2521957   0.523   3.766   7.104  0.8395 -0.2764 -0.2822
  190SLPC   H5R21958   0.562   3.673   7.151 -0.9835 -0.6731  0.5385
  190SLPC   H5S21959   0.416   3.734   7.108  0.6334  0.4604  2.3464
  190SLPC   C2621960   0.558   3.875   7.207  0.2141  0.2515  0.5492
  190SLPC   H6R21961   0.503   3.970   7.188 -0.0219  0.2360  1.1379
  190SLPC   H6S21962   0.665   3.903   7.195 -0.0208  1.6898  1.5358
  190SLPC   C2721963   0.527   3.861   7.356  0.5454  0.2225  0.3065
  190SLPC   H7R21964   0.616   3.799   7.380  1.8158  1.5080 -0.8507
  190SLPC   H7S21965   0.432   3.809   7.377  1.8820 -2.8342 -0.6634
  190SLPC   C2821966   0.546   3.988   7.443  0.0586 -0.2040  0.0333
  190SLPC   H8R21967   0.451   4.042   7.425 -0.3305 -0.7904  0.2783
  190SLPC   H8S21968   0.639   4.043   7.419 -1.2272  3.6723  3.0148
  190SLPC   C2921969   0.552   3.957   7.593  0.3736  0.0454 -0.1133
  190SLPC   H9R21970   0.652   3.924   7.623  0.7337 -1.5758 -2.8398
  190SLPC  C21021971   0.450   3.960   7.678  0.5766  0.0982  0.5281
  190SLPC  H10R21972   0.480   3.925   7.778  1.5247 -0.5205  0.0378
  190SLPC  C21121973   0.307   3.984   7.652 -0.1419  0.7771  0.2553
  190SLPC  H11R21974   0.249   3.930   7.730 -0.8893  1.3202  0.0924
  190SLPC  H11S21975   0.273   3.952   7.551 -1.1752  0.0404  0.8182
  190SLPC  C21221976   0.272   4.131   7.653  0.0628 -0.1713 -0.5632
  190SLPC  H12R21977   0.329   4.195   7.585  2.5739 -1.0708  0.5662
  190SLPC  C21321978   0.188   4.193   7.734  0.1973 -0.3777  0.3301
  190SLPC  H13R21979   0.179   4.302   7.723  3.2745  0.2243  2.3715
  190SLPC  C21421980   0.104   4.135   7.847  0.4798 -0.5775  1.0209
  190SLPC  H14R21981   0.088   4.026   7.829  0.9873 -0.5794  0.5567
  190SLPC  H14S21982   0.006   4.187   7.843  0.2266 -1.0647  0.7994
  190SLPC  C21521983   0.157   4.156   7.986 -0.0905  0.1692  0.1311
  190SLPC  H15R21984   0.197   4.259   7.990  1.6864 -0.4815  0.1178
  190SLPC  H15S21985   0.242   4.085   8.000  0.4302  0.3148 -1.9746
  190SLPC  C21621986   0.046   4.143   8.094  0.3956 -0.0385 -0.6678
  190SLPC  H16R21987   0.025   4.036   8.112 -0.9936  0.1373 -1.1252
  190SLPC  H16S21988  -0.043   4.205   8.069  0.5480  0.7352  0.6323
  190SLPC  C21721989   0.089   4.205   8.231  0.4174  0.0935  0.5936
  190SLPC  H17R21990   0.175   4.143   8.265 -0.6762 -2.6763 -1.2756
  190SLPC  H17S21991   0.010   4.192   8.307  1.3483 -1.4139  1.3484
  190SLPC  C21821992   0.116   4.352   8.221 -1.0216  0.1260 -0.5932
  190SLPC  H18R21993   0.199   4.379   8.152  0.4921  1.6505  1.6502
  190SLPC  H18S21994   0.163   4.380   8.318 -0.8841 -0.2236 -0.5548
  190SLPC  H18T21995   0.020   4.406   8.210 -0.7014  0.5188 -1.5745
  190SLPC   C3321996   0.956   3.906   7.147  0.0594  0.4415  0.3010
  190SLPC   H3X21997   0.868   3.972   7.141 -1.0114 -1.0519 -1.9367
  190SLPC   H3Y21998   1.040   3.976   7.125 -0.9393  1.6884  0.3459
  190SLPC   C3421999   0.956   3.853   7.296 -0.4342 -0.5790  0.4080
  190SLPC   H4X22000   1.050   3.802   7.324  0.9958  1.9446  0.5392
  190SLPC   H4Y22001   0.867   3.788   7.309 -1.7277  1.2311  0.9969
  190SLPC   C3522002   0.950   3.968   7.397  0.0665  0.6579 -0.1826
  190SLPC   H5X22003   0.890   4.060   7.376 -0.7763 -0.2750 -2.2055
  190SLPC   H5Y22004   1.055   4.004   7.398 -0.0259  0.9326  1.3729
  190SLPC   C3622005   0.941   3.921   7.543 -0.7393  0.8076 -0.2452
  190SLPC   H6X22006   0.996   3.828   7.565 -0.8585  1.0042  0.9251
  190SLPC   H6Y22007   0.835   3.892   7.560 -1.0351  1.7524 -0.4193
  190SLPC   C3722008   0.974   4.027   7.644  0.5290 -0.1222  0.2077
  190SLPC   H7X22009   0.916   4.118   7.617 -0.8128 -0.6352  1.2854
  190SLPC   H7Y22010   1.079   4.063   7.639  0.2909  1.4339  3.7204
  190SLPC   C3822011   0.946   3.987   7.789  0.5839 -0.1006 -0.1507
  190SLPC   H8X22012   1.027   3.913   7.809  1.8630  1.2116 -0.3116
  190SLPC   H8Y22013   0.845   3.942   7.801 -0.2909  1.8767  0.2666
  190SLPC   C3922014   0.959   4.107   7.880 -0.4896  0.2835  0.5629
  190SLPC   H9X22015   0.874   4.179   7.876 -0.7010 -0.0189 -0.9422
  190SLPC   H9Y22016   1.056   4.152   7.850 -0.0766 -2.4358 -2.8538
  190SLPC  C31022017   0.987   4.070   8.021 -0.9250 -0.3571  0.2892
  190SLPC  H10X22018   1.072   3.999   8.029 -0.1504  0.7449  3.0205
  190SLPC  H10Y22019   0.901   4.018   8.069 -1.9388  0.2894 -0.7596
  190SLPC  C31122020   1.028   4.194   8.097 -0.4967 -0.4647 -0.4826
  190SLPC  H11X22021   0.937   4.248   8.064 -1.0144 -1.9891 -1.6792
  190SLPC  H11Y22022   1.122   4.244   8.065 -0.5911  0.1318  0.1376
  190SLPC  C31222023   1.024   4.171   8.252 -0.3010 -0.2620  0.0735
  190SLPC  H12X22024   1.108   4.105   8.283  0.4700  1.3207  1.5107
  190SLPC  H12Y22025   0.928   4.119   8.275 -0.7569  0.2405 -0.6587
  190SLPC  C31322026   1.027   4.294   8.336  0.3308 -0.0901  0.1630
  190SLPC  H13X22027   0.926   4.340   8.331  0.4178  0.0128 -1.0492
  190SLPC  H13Y22028   1.095   4.365   8.284 -0.6920  0.5659 -0.3175
  190SLPC  C31422029   1.070   4.276   8.480 -0.1629 -0.0299  0.5466
  190SLPC  H14X22030   1.116   4.370   8.517  0.5347 -0.7555  1.5920
  190SLPC  H14Y22031   1.155   4.205   8.494  1.5753  1.8989  0.1351
  190SLPC  C31522032   0.958   4.232   8.585  0.4625  0.0211  0.5869
  190SLPC  H15X22033   1.007   4.224   8.684  1.5170 -1.4393 -0.0315
  190SLPC  H15Y22034   0.919   4.131   8.562  0.5040 -0.1041  1.0539
  190SLPC  C31622035   0.842   4.338   8.602 -0.0208 -0.2055 -0.1783
  190SLPC  H16X22036   0.754   4.321   8.536 -0.1717 -2.1547  0.4584
  190SLPC  H16Y22037   0.880   4.438   8.571 -0.5807 -0.5871 -2.2329
  190SLPC  C31722038   0.793   4.349   8.748 -0.7320 -0.0332  0.4265
  190SLPC  H17X22039   0.731   4.440   8.765 -0.7266  0.4185 -1.6884
  190SLPC  H17Y22040   0.880   4.356   8.818 -0.6170  1.4173  0.1693
  190SLPC  C31822041   0.717   4.229   8.800 -0.0906 -0.2797  0.3341
  190SLPC  H18X22042   0.694   4.239   8.909 -0.6353 -2.3651  0.4470
  190SLPC  H18Y22043   0.777   4.137   8.787 -0.9062 -0.6146 -1.2928
  190SLPC  H18Z22044   0.627   4.219   8.735  0.7532  2.1780 -1.3564
  191SLPC     N22045   0.991   5.710   5.463 -0.3462  0.4298  0.3531
  191SLPC   C1322046   1.109   5.624   5.515  0.6614 -0.2775  0.0793
  191SLPC  H13A22047   1.084   5.584   5.612 -0.1924 -0.3778 -0.1780
  191SLPC  H13B22048   1.142   5.555   5.438  1.5339  0.7820 -0.5227
  191SLPC  H13C22049   1.195   5.683   5.544  1.0738 -2.1129  3.0501
  191SLPC   C1422050   0.877   5.623   5.423  0.2593  1.0142 -0.2001
  191SLPC  H14A22051   0.818   5.597   5.509  0.5903 -0.2238 -0.3229
  191SLPC  H14B22052   0.801   5.680   5.372 -0.9493  0.0892  0.5431
  191SLPC  H14C22053   0.904   5.536   5.365 -1.8686 -0.4518  0.9048
  191SLPC   C1522054   1.052   5.773   5.342  0.2605 -0.7181 -0.5108
  191SLPC  H15A22055   0.985   5.832   5.281  1.0825 -1.0620 -1.7940
  191SLPC  H15B22056   1.123   5.846   5.381 -0.1687 -0.8314  0.5138
  191SLPC  H15C22057   1.110   5.706   5.280  0.3060  0.3664 -1.6786
  191SLPC   C1222058   0.946   5.825   5.553  0.8199  0.2219 -0.4456
  191SLPC  H12A22059   0.858   5.875   5.516 -0.3262  0.3356  2.2274
  191SLPC  H12B22060   1.028   5.896   5.562  0.6595  0.1940  1.9061
  191SLPC   C1122061   0.912   5.772   5.698 -0.5845 -0.0640  0.0632
  191SLPC  H11A22062   0.874   5.667   5.690 -0.2502 -0.1173 -1.1439
  191SLPC  H11B22063   0.838   5.842   5.743 -0.1821  0.5241 -0.1787
  191SLPC     P22064   1.041   5.665   5.888  0.0629  0.0099  0.1407
  191SLPC   O1322065   1.030   5.524   5.838  0.4273 -0.1335 -0.7234
  191SLPC   O1422066   1.166   5.695   5.959  0.0012 -0.3385  0.2251
  191SLPC   O1222067   1.028   5.772   5.775 -0.2251 -0.5347  0.0896
  191SLPC   O1122068   0.921   5.692   5.988  0.2702  0.0791 -1.0234
  191SLPC    C122069   0.881   5.823   6.031  0.1523 -0.1822  0.0713
  191SLPC    HA22070   0.948   5.903   5.994  0.9083 -1.0812 -0.5684
  191SLPC    HB22071   0.776   5.833   5.996  0.4688 -3.5800 -2.4636
  191SLPC    C222072   0.882   5.826   6.180  0.5053  0.1267 -0.3467
  191SLPC    HS22073   0.978   5.779   6.208  0.7234  0.4305 -0.5746
  191SLPC   O2122074   0.762   5.755   6.225  0.2367 -0.4472 -0.5575
  191SLPC   C2122075   0.775   5.677   6.328  0.0525  0.1174  0.4691
  191SLPC   O2222076   0.880   5.626   6.367 -0.3369 -0.9778 -0.3496
  191SLPC   C2222077   0.647   5.647   6.388  0.0500 -0.5761  0.3138
  191SLPC   H2R22078   0.626   5.739   6.446  3.1416 -0.0755  0.8114
  191SLPC   H2S22079   0.578   5.633   6.302  0.1480  0.5351  0.0396
  191SLPC    C322080   0.887   5.971   6.235 -0.1886 -0.4023 -0.1716
  191SLPC    HX22081   0.804   6.035   6.198 -0.2565  0.5516  1.5425
  191SLPC    HY22082   0.975   6.013   6.182 -0.4429 -1.0066 -1.1056
  191SLPC   O3122083   0.895   5.974   6.381 -0.1746  0.0182 -0.3780
  191SLPC   C3122084   0.981   6.062   6.433  0.8306  0.3370  0.1470
  191SLPC   O3222085   1.030   6.156   6.368 -0.4041  0.3831  0.0294
  191SLPC   C3222086   1.030   6.025   6.575 -0.4687  0.4914 -0.6169
  191SLPC   H2X22087   0.962   6.078   6.645  1.4730  0.7864  1.1652
  191SLPC   H2Y22088   1.134   6.063   6.582  0.3290 -1.3260 -1.7894
  191SLPC   C2322089   0.641   5.520   6.468  0.3982 -0.0052  0.3779
  191SLPC   H3R22090   0.734   5.492   6.521  0.2978 -2.2750 -0.5311
  191SLPC   H3S22091   0.628   5.443   6.390 -0.9015  1.2212 -0.6697
  191SLPC   C2422092   0.534   5.528   6.574 -0.8270 -0.0417 -0.1169
  191SLPC   H4R22093   0.510   5.428   6.616 -2.2181  0.2433 -0.1785
  191SLPC   H4S22094   0.440   5.554   6.521 -2.1783  0.4437  2.3545
  191SLPC   C2522095   0.567   5.623   6.695  0.9781  0.2503 -0.1522
  191SLPC   H5R22096   0.471   5.637   6.749 -0.0692 -1.7952 -1.3415
  191SLPC   H5S22097   0.594   5.720   6.648  1.3959  0.5115  0.6039
  191SLPC   C2622098   0.680   5.575   6.785 -0.4935  0.8040  0.9428
  191SLPC   H6R22099   0.780   5.560   6.741  0.0043 -0.7857  2.5253
  191SLPC   H6S22100   0.656   5.471   6.816  0.4372  0.5357  0.7925
  191SLPC   C2722101   0.702   5.670   6.910 -0.1697  0.1307  0.4301
  191SLPC   H7R22102   0.604   5.668   6.962  0.6454 -1.3173  2.0240
  191SLPC   H7S22103   0.725   5.772   6.875  2.1896  0.1971  1.9502
  191SLPC   C2822104   0.797   5.612   7.016 -0.7177 -0.1626  0.0776
  191SLPC   H8R22105   0.894   5.581   6.972 -0.8540 -2.5677  1.2914
  191SLPC   H8S22106   0.755   5.511   7.035 -0.4441 -0.2560  0.1886
  191SLPC   C2922107   0.814   5.692   7.147  0.8047  0.7388 -0.3787
  191SLPC   H9R22108   0.902   5.758   7.157  0.6682  0.6046  2.5131
  191SLPC  C21022109   0.726   5.688   7.250  0.3226  0.1094  0.2291
  191SLPC  H10R22110   0.748   5.744   7.341  0.3539  0.0205  0.2770
  191SLPC  C21122111   0.604   5.594   7.264 -0.1114 -0.5645 -0.4139
  191SLPC  H11R22112   0.622   5.516   7.341 -1.5928 -0.6026 -0.0761
  191SLPC  H11S22113   0.572   5.550   7.166  0.2504  0.4611 -1.0074
  191SLPC  C21222114   0.481   5.656   7.332 -0.3554  0.2751  0.4830
  191SLPC  H12R22115   0.401   5.684   7.262  1.2424  1.2789 -1.0552
  191SLPC  C21322116   0.465   5.694   7.460  0.1855 -0.7980  0.1287
  191SLPC  H13R22117   0.370   5.743   7.488 -0.4524 -1.6701 -0.4308
  191SLPC  C21422118   0.567   5.672   7.569 -0.2883  0.1958  0.2882
  191SLPC  H14R22119   0.655   5.613   7.536 -0.0323  0.0289  1.2301
  191SLPC  H14S22120   0.524   5.607   7.649  0.4949  1.4539  1.7844
  191SLPC  C21522121   0.611   5.815   7.627 -0.3672  0.2843 -0.0055
  191SLPC  H15R22122   0.536   5.894   7.645  1.5109  1.7425  1.9540
  191SLPC  H15S22123   0.673   5.865   7.549  0.8999 -1.8735 -0.4672
  191SLPC  C21622124   0.698   5.800   7.745  0.5776 -0.5246 -0.0380
  191SLPC  H16R22125   0.784   5.734   7.722  0.7082 -0.1683 -0.6214
  191SLPC  H16S22126   0.641   5.753   7.827 -0.9656  1.4745  0.1397
  191SLPC  C21722127   0.764   5.925   7.801  0.4583 -0.0111 -0.1334
  191SLPC  H17R22128   0.685   5.990   7.844  0.1854  0.8777 -1.8676
  191SLPC  H17S22129   0.811   5.969   7.710 -1.8065 -0.2449 -1.5157
  191SLPC  C21822130   0.866   5.890   7.907  0.0189 -0.1583 -0.2435
  191SLPC  H18R22131   0.813   5.842   7.992 -1.5968  0.3916 -0.8948
  191SLPC  H18S22132   0.927   5.979   7.933 -1.4690  0.8776 -0.1632
  191SLPC  H18T22133   0.934   5.817   7.858  0.2336  1.2093 -2.0858
  191SLPC   C3322134   1.030   5.874   6.600  0.2778 -0.1068  0.7847
  191SLPC   H3X22135   1.093   5.826   6.522  0.1796  1.7375 -0.5048
  191SLPC   H3Y22136   0.936   5.819   6.579  0.7780 -0.7469  0.1793
  191SLPC   C3422137   1.067   5.848   6.743  0.0383 -0.4616 -0.2792
  191SLPC   H4X22138   0.986   5.873   6.815 -1.0587 -3.3203 -0.3756
  191SLPC   H4Y22139   1.151   5.915   6.774 -1.3584  0.5646  1.5009
  191SLPC   C3522140   1.121   5.705   6.780 -0.0193  0.0077 -0.0945
  191SLPC   H5X22141   1.194   5.675   6.702  0.4654  0.3861  0.2039
  191SLPC   H5Y22142   1.054   5.616   6.783 -1.3761  0.9392 -1.2863
  191SLPC   C3622143   1.197   5.706   6.913 -0.0749  0.8178  0.4517
  191SLPC   H6X22144   1.141   5.767   6.987 -1.3739  0.5413 -0.2746
  191SLPC   H6Y22145   1.299   5.747   6.896  0.5727 -0.3047  1.4903
  191SLPC   C3722146   1.224   5.564   6.966  0.5182  0.2724 -0.1180
  191SLPC   H7X22147   1.276   5.504   6.887  1.3457  0.4287  0.2975
  191SLPC   H7Y22148   1.131   5.513   6.997  0.6957 -0.0606 -0.1252
  191SLPC   C3822149   1.317   5.579   7.088 -0.2515 -0.1153  0.0254
  191SLPC   H8X22150   1.281   5.654   7.162 -0.2169 -0.7963  0.7465
  191SLPC   H8Y22151   1.420   5.605   7.054  0.7298  0.9601  3.3682
  191SLPC   C3922152   1.332   5.443   7.154  0.0440  0.3632  0.3331
  191SLPC   H9X22153   1.389   5.380   7.082 -1.3978  1.6733 -2.1034
  191SLPC   H9Y22154   1.235   5.392   7.170 -0.1581 -0.1501 -2.1476
  191SLPC  C31022155   1.403   5.441   7.289  0.8183  0.4433  0.7677
  191SLPC  H10X22156   1.498   5.498   7.280 -0.4917  2.5613 -0.5926
  191SLPC  H10Y22157   1.442   5.341   7.315 -0.2663 -0.3249 -0.4408
  191SLPC  C31122158   1.318   5.507   7.397  0.8181  0.3757 -0.4768
  191SLPC  H11X22159   1.218   5.461   7.412  1.1294  0.2147  1.3715
  191SLPC  H11Y22160   1.292   5.613   7.374  1.8639  1.0777  1.3203
  191SLPC  C31222161   1.393   5.503   7.532  0.0280  0.5300  0.4421
  191SLPC  H12X22162   1.497   5.540   7.522 -0.2235  1.9590  2.4712
  191SLPC  H12Y22163   1.400   5.394   7.548  1.6615  0.7722  1.6387
  191SLPC  C31322164   1.331   5.572   7.654  0.8907  0.5915 -0.0053
  191SLPC  H13X22165   1.304   5.677   7.628  2.7497  0.4984 -2.8627
  191SLPC  H13Y22166   1.395   5.572   7.744 -0.9856 -0.3683  1.3775
  191SLPC  C31422167   1.206   5.493   7.699 -1.0291 -0.3111 -0.0420
  191SLPC  H14X22168   1.223   5.384   7.711 -1.4423 -0.3915 -0.1819
  191SLPC  H14Y22169   1.129   5.493   7.619 -1.2358  0.1107  0.1557
  191SLPC  C31522170   1.141   5.554   7.819 -0.5138 -0.5032 -0.4123
  191SLPC  H15X22171   1.032   5.530   7.818 -0.6797 -0.1360  2.2607
  191SLPC  H15Y22172   1.149   5.665   7.817  1.0751 -0.5775 -2.4513
  191SLPC  C31622173   1.210   5.516   7.955  0.2246  0.5246 -0.0319
  191SLPC  H16X22174   1.309   5.565   7.949  0.1695  0.4429 -2.2987
  191SLPC  H16Y22175   1.237   5.408   7.950  1.3235  0.7937 -0.1925
  191SLPC  C31722176   1.113   5.549   8.070 -0.2411 -0.6379 -0.6400
  191SLPC  H17X22177   1.020   5.493   8.050 -0.8066 -0.0701  0.2775
  191SLPC  H17Y22178   1.090   5.658   8.067 -3.7130 -1.2474 -0.2901
  191SLPC  C31822179   1.172   5.517   8.209 -0.5430 -0.9898 -0.0030
  191SLPC  H18X22180   1.188   5.407   8.215 -0.2857 -1.1256 -2.3265
  191SLPC  H18Y22181   1.109   5.555   8.293  1.6944  1.0866  0.8391
  191SLPC  H18Z22182   1.270   5.567   8.220 -0.8810 -0.6922  2.2224
  192SLPC     N22183   1.766   5.840   5.989 -0.8698 -0.6115  0.0585
  192SLPC   C1322184   1.807   5.733   6.090  0.4659 -0.2300  0.0048
  192SLPC  H13A22185   1.829   5.771   6.189  0.5023  0.6682 -0.3412
  192SLPC  H13B22186   1.722   5.667   6.086  1.0185 -0.9481 -0.2636
  192SLPC  H13C22187   1.885   5.666   6.057  0.0607 -0.0992 -1.2984
  192SLPC   C1422188   1.738   5.772   5.864 -0.0905  0.2073 -0.4990
  192SLPC  H14A22189   1.719   5.843   5.784 -0.3083 -0.7684 -1.3230
  192SLPC  H14B22190   1.813   5.700   5.835  0.3966 -0.0691  1.3280
  192SLPC  H14C22191   1.647   5.716   5.877  1.0494 -1.6192 -0.0168
  192SLPC   C1522192   1.883   5.933   5.963  0.1448  0.2117  0.2072
  192SLPC  H15A22193   1.954   5.869   5.913 -1.2823 -3.5480  2.4890
  192SLPC  H15B22194   1.852   6.016   5.902 -0.6457 -0.3920 -0.2387
  192SLPC  H15C22195   1.923   5.963   6.059 -0.3898 -0.0508  0.5201
  192SLPC   C1222196   1.644   5.920   6.031 -0.2318  0.4345 -0.1764
  192SLPC  H12A22197   1.560   5.852   6.026  0.2741 -0.4168  1.8169
  192SLPC  H12B22198   1.619   5.993   5.956 -0.3580 -0.9633 -1.5280
  192SLPC   C1122199   1.650   5.991   6.167  0.6035  0.3470 -0.4582
  192SLPC  H11A22200   1.563   6.060   6.174  1.5833  1.4395  2.1154
  192SLPC  H11B22201   1.737   6.060   6.163  0.7877  0.1141 -3.5684
  192SLPC     P22202   1.738   5.927   6.406 -0.0822  0.2070 -0.0923
  192SLPC   O1322203   1.691   5.825   6.506  0.1063 -0.3421 -0.2981
  192SLPC   O1422204   1.881   5.927   6.369 -0.1014 -0.6090  0.0996
  192SLPC   O1222205   1.656   5.909   6.282  0.7697  0.6274  0.2660
  192SLPC   O1122206   1.712   6.075   6.451  1.1241  0.4569 -0.0097
  192SLPC    C122207   1.593   6.155   6.429  0.6673  0.6059  0.3952
  192SLPC    HA22208   1.622   6.242   6.366 -0.4798 -0.3684 -1.5860
  192SLPC    HB22209   1.503   6.103   6.390  0.6893  1.4191 -0.7932
  192SLPC    C222210   1.545   6.205   6.565 -0.6143  1.4628 -0.5676
  192SLPC    HS22211   1.624   6.267   6.613 -0.2248  2.3765 -2.2809
  192SLPC   O2122212   1.508   6.089   6.636 -0.2045  0.4527  0.0753
  192SLPC   C2122213   1.598   6.048   6.735  1.1516  0.5233 -0.1260
  192SLPC   O2222214   1.700   6.105   6.773  0.1938 -0.4243  0.1731
  192SLPC   C2222215   1.559   5.912   6.784 -0.7504  0.0689 -0.8682
  192SLPC   H2R22216   1.452   5.903   6.755 -1.1130 -4.4265  1.0461
  192SLPC   H2S22217   1.617   5.829   6.738  2.0872 -0.0154  2.5050
  192SLPC    C322218   1.428   6.300   6.554  0.5455 -0.0698  0.6807
  192SLPC    HX22219   1.347   6.234   6.517 -0.6073 -0.0435  2.9987
  192SLPC    HY22220   1.443   6.369   6.468 -1.4444  2.4783  2.2332
  192SLPC   O3122221   1.386   6.374   6.673 -0.4811 -0.2805 -0.4706
  192SLPC   C3122222   1.465   6.483   6.697 -0.8384 -0.4448  0.3243
  192SLPC   O3222223   1.564   6.509   6.626  0.0931  0.1307 -0.0287
  192SLPC   C3222224   1.410   6.563   6.819  0.3170  0.4508 -0.6606
  192SLPC   H2X22225   1.309   6.598   6.790  0.0367  0.7224  0.5864
  192SLPC   H2Y22226   1.481   6.647   6.831 -0.2856  1.0633 -1.2887
  192SLPC   C2322227   1.574   5.906   6.940  0.1113 -0.0112  0.4759
  192SLPC   H3R22228   1.522   5.813   6.970 -1.9508  0.7225 -0.6127
  192SLPC   H3S22229   1.523   5.991   6.990  1.4694  0.0985  1.7300
  192SLPC   C2422230   1.706   5.872   7.003  0.3943 -0.2684  0.1897
  192SLPC   H4R22231   1.784   5.925   6.945  1.2149 -0.6487  0.9108
  192SLPC   H4S22232   1.716   5.762   6.989 -1.5701 -0.2879 -1.6127
  192SLPC   C2522233   1.731   5.916   7.140  0.2028 -0.2148 -0.5567
  192SLPC   H5R22234   1.720   6.026   7.153 -0.4731 -0.4045  0.6380
  192SLPC   H5S22235   1.833   5.880   7.168 -0.0381 -0.6021 -0.1589
  192SLPC   C2622236   1.648   5.841   7.247  0.0663 -0.3558 -0.5525
  192SLPC   H6R22237   1.667   5.732   7.241  2.6733  0.0329 -0.7710
  192SLPC   H6S22238   1.542   5.870   7.230  0.1991  1.6734  1.6121
  192SLPC   C2722239   1.680   5.891   7.393  0.0512  0.0717 -0.1598
  192SLPC   H7R22240   1.661   6.000   7.393  1.3444  0.3663  2.0623
  192SLPC   H7S22241   1.786   5.868   7.416 -0.5831 -0.9601  2.0553
  192SLPC   C2822242   1.587   5.836   7.505 -0.3354 -0.1919 -0.3405
  192SLPC   H8R22243   1.510   5.762   7.474 -1.0844 -0.2194  1.5018
  192SLPC   H8S22244   1.536   5.925   7.546 -1.2161  0.3703 -2.5151
  192SLPC   C2922245   1.666   5.775   7.615  0.0107  0.5251  0.0382
  192SLPC   H9R22246   1.707   5.675   7.593  0.6898  0.6699  0.6408
  192SLPC  C21022247   1.668   5.821   7.745  0.4636 -0.8583  0.1939
  192SLPC  H10R22248   1.714   5.754   7.820  0.2484 -1.8330 -0.5361
  192SLPC  C21122249   1.595   5.943   7.803 -0.2257  0.4850  0.5392
  192SLPC  H11R22250   1.601   6.025   7.728 -0.9617  0.5525  0.5510
  192SLPC  H11S22251   1.635   5.973   7.902  0.2308  0.9357  0.2227
  192SLPC  C21222252   1.449   5.908   7.825 -0.9308  0.2403 -0.2387
  192SLPC  H12R22253   1.399   5.936   7.731 -2.2678  0.5867  0.5526
  192SLPC  C21322254   1.376   5.863   7.927 -0.0954  0.4674  0.3065
  192SLPC  H13R22255   1.268   5.848   7.910 -0.0404 -2.5038  1.8930
  192SLPC  C21422256   1.422   5.835   8.069  0.0294  0.0968  0.3187
  192SLPC  H14R22257   1.530   5.861   8.065  0.6443 -2.2638 -0.5663
  192SLPC  H14S22258   1.405   5.729   8.098 -2.8226 -0.0881 -1.5654
  192SLPC  C21522259   1.356   5.922   8.179 -0.4557 -0.4261 -0.4326
  192SLPC  H15R22260   1.370   6.025   8.139  0.1498  0.2077  1.3393
  192SLPC  H15S22261   1.414   5.900   8.271  3.1691 -0.3778 -2.5188
  192SLPC  C21622262   1.206   5.883   8.206 -1.4657 -0.3661 -0.5167
  192SLPC  H16R22263   1.196   5.775   8.233 -1.2469  0.3956  3.1093
  192SLPC  H16S22264   1.150   5.900   8.112 -1.4156  0.0986 -0.4661
  192SLPC  C21722265   1.138   5.959   8.323  0.1579  0.4027  0.3540
  192SLPC  H17R22266   1.146   6.066   8.295  1.1598  0.1602 -0.3518
  192SLPC  H17S22267   1.035   5.920   8.333  0.1379 -0.1553 -1.6412
  192SLPC  C21822268   1.206   5.941   8.458 -0.8180  0.1469  0.0929
  192SLPC  H18R22269   1.213   5.836   8.493  2.7919 -0.0807 -0.8921
  192SLPC  H18S22270   1.149   5.998   8.534 -0.3541 -0.7218  1.1185
  192SLPC  H18T22271   1.305   5.991   8.451 -0.7265 -0.1079 -0.4419
  192SLPC   C3322272   1.414   6.472   6.946 -0.2634 -0.0840 -0.2404
  192SLPC   H3X22273   1.497   6.399   6.940  0.0758  0.2758  0.0440
  192SLPC   H3Y22274   1.324   6.408   6.932 -0.6454  0.4248 -0.1765
  192SLPC   C3422275   1.413   6.535   7.086 -0.2425  0.0669 -0.1695
  192SLPC   H4X22276   1.329   6.607   7.099  0.1934  0.4554  0.6008
  192SLPC   H4Y22277   1.509   6.591   7.090 -0.4343  0.3243  2.4402
  192SLPC   C3522278   1.396   6.431   7.199 -0.0721 -0.4940 -0.6984
  192SLPC   H5X22279   1.472   6.353   7.178  0.7015 -0.7557  2.5554
  192SLPC   H5Y22280   1.293   6.389   7.200 -0.1843 -0.2614  1.2667
  192SLPC   C3622281   1.420   6.484   7.351  0.0564 -0.4733  0.0195
  192SLPC   H6X22282   1.351   6.566   7.381 -0.3944 -0.7987 -0.1153
  192SLPC   H6Y22283   1.527   6.516   7.358 -0.8272  3.0477 -0.4697
  192SLPC   C3722284   1.407   6.363   7.452  0.1217 -1.1697 -0.2279
  192SLPC   H7X22285   1.464   6.279   7.406  4.9404  1.3779  0.5459
  192SLPC   H7Y22286   1.300   6.337   7.470 -0.0954  1.1667  2.6315
  192SLPC   C3822287   1.484   6.403   7.585  0.9626 -0.2649 -0.1111
  192SLPC   H8X22288   1.452   6.507   7.606  1.6039  0.2054 -1.3223
  192SLPC   H8Y22289   1.593   6.390   7.570  1.0901  0.9986 -0.4138
  192SLPC   C3922290   1.431   6.338   7.713 -0.4345 -0.1966 -0.3066
  192SLPC   H9X22291   1.476   6.236   7.708 -0.7712 -0.4024  0.7537
  192SLPC   H9Y22292   1.321   6.319   7.711 -0.3184 -1.0198  0.6410
  192SLPC  C31022293   1.468   6.396   7.849  0.1971  0.0635  0.1366
  192SLPC  H10X22294   1.412   6.489   7.871  0.0174 -0.0632  0.2163
  192SLPC  H10Y22295   1.576   6.423   7.855  0.2725 -0.1994 -0.0294
  192SLPC  C31122296   1.436   6.299   7.957  0.1102 -0.0169 -0.1978
  192SLPC  H11X22297   1.492   6.204   7.942  0.6935 -0.1307  2.2220
  192SLPC  H11Y22298   1.327   6.281   7.954 -0.2252  1.8053  0.0342
  192SLPC  C31222299   1.483   6.348   8.090  0.2378 -1.3188 -0.6499
  192SLPC  H12X22300   1.438   6.450   8.091  1.4998 -0.7494  0.5814
  192SLPC  H12Y22301   1.592   6.367   8.085 -0.1929  1.6177 -0.6626
  192SLPC  C31322302   1.458   6.272   8.216 -0.5655  1.2024 -0.1318
  192SLPC  H13X22303   1.522   6.182   8.201 -0.7431  1.2937 -1.6064
  192SLPC  H13Y22304   1.351   6.239   8.221  0.2800 -2.1105 -1.0767
  192SLPC  C31422305   1.505   6.338   8.347  0.0402 -0.0637  0.2725
  192SLPC  H14X22306   1.444   6.431   8.355 -2.3019 -1.2997 -1.7828
  192SLPC  H14Y22307   1.613   6.363   8.350  0.1203 -0.3088 -0.3928
  192SLPC  C31522308   1.469   6.249   8.470  1.2318 -0.0457 -0.6898
  192SLPC  H15X22309   1.496   6.143   8.449  0.5289 -0.1109 -1.2928
  192SLPC  H15Y22310   1.358   6.255   8.478  1.3853  0.7932  1.5743
  192SLPC  C31622311   1.520   6.286   8.604 -0.6200 -0.3580  0.5959
  192SLPC  H16X22312   1.478   6.382   8.640 -0.2222 -0.6950  2.0397
  192SLPC  H16Y22313   1.626   6.315   8.587 -1.0942  1.4784  0.5511
  192SLPC  C31722314   1.507   6.176   8.712 -0.1700 -0.1897  0.1894
  192SLPC  H17X22315   1.546   6.234   8.799 -0.6939 -1.5500  1.3679
  192SLPC  H17Y22316   1.588   6.100   8.703 -0.1025 -0.0819 -0.1294
  192SLPC  C31822317   1.374   6.120   8.751  0.4458 -0.0533 -0.1752
  192SLPC  H18X22318   1.298   6.194   8.784 -1.0203 -0.7410 -1.8641
  192SLPC  H18Y22319   1.387   6.055   8.840 -0.9405 -0.4861 -0.2773
  192SLPC  H18Z22320   1.334   6.050   8.675  0.7650 -1.9725  1.3571
  193SOD    SOD22321   1.769   4.101  11.261 -0.1849  0.2238  0.3240
  194SOD    SOD22322   1.989   6.705  12.639 -0.1449  0.0561 -0.1258
  195SOD    SOD22323   5.162   5.826  16.283 -0.5582 -0.0753 -0.7790
  196SOD    SOD22324   3.577   0.949   6.403 -0.2845  0.2441 -0.0684
  197SOD    SOD22325   4.119   3.464   5.976  0.2994 -0.4846  0.3333
  198SOD    SOD22326   6.169   1.375  10.541 -0.2329 -0.0717  0.4031
  199SOD    SOD22327   2.581   3.732  10.854  0.0588 -0.4098 -0.0915
  200SOD    SOD22328   0.605   1.353  15.735  0.4687  0.4341  0.4497
  201SOD    SOD22329   5.366   1.582  12.106 -0.2923 -0.1508 -0.3928
  202SOD    SOD22330   1.374   5.948   3.339  0.0191 -0.3327 -0.1313
  203SOD    SOD22331   3.109   2.742  12.768  0.3393  0.1552 -0.0378
  204SOD    SOD22332   1.906   6.230   6.359  0.2931  0.4317 -0.2062
  205SOD    SOD22333   0.963   3.648   5.700  0.1038 -0.1058  0.0191
  206SOD    SOD22334   5.002   6.657   0.230  0.3032 -0.4694 -0.0679
  207SOD    SOD22335   3.056   6.707  13.289 -0.1777 -0.4424  0.3978
  208SOD    SOD22336   4.019   2.745  14.940 -0.1105 -0.1200  0.3418
  209SOD    SOD22337   6.682   3.295   0.008  0.6895  0.4262 -0.1081
  210SOD    SOD22338   4.187   2.613  16.031  0.1531  0.1875 -0.1789
  211SOD    SOD22339   6.569   3.842  14.232 -0.1770 -0.0836 -0.1826
  212SOD    SOD22340   0.437   5.776  14.377 -0.2193 -0.0361 -0.1550
  213SOD    SOD22341   3.329   3.438   0.274  0.2239  0.4616  0.1768
  214SOD    SOD22342   2.875   4.404   0.435  0.5742 -0.4264 -0.4583
  215SOD    SOD22343   6.046   0.541   3.665  0.2125  0.2705  0.0893
  216SOD    SOD22344   6.323   3.935  12.773 -0.0699  0.3161 -0.0998
  217SOD    SOD22345   4.432   4.736   3.853  0.0933 -0.0157  0.5577
  218SOD    SOD22346   2.711   0.243  14.152 -0.0645  0.2707  0.2369
  219SOD    SOD22347   5.993   5.118  11.278 -0.1782 -0.2862  0.4915
  220SOD    SOD22348   3.600   3.335  11.394 -0.1722 -0.1099  0.0180
  221SOD    SOD22349   6.507   2.950  16.165  0.2553  0.0203  0.0807
  222SOD    SOD22350   2.419   6.536   0.049  0.5045 -0.2298 -0.3825
  223SOD    SOD22351   3.315   6.828   4.865  0.3277 -0.4319 -0.3053
  224SOD    SOD22352   0.856   4.542  10.542  0.3474 -0.2713  0.3535
  225SOD    SOD22353   1.549   6.746  10.755  0.0424  0.1015 -0.1383
  226SOD    SOD22354   2.668   2.640  10.991 -0.2049 -0.0821 -0.2361
  227SOD    SOD22355   3.452   2.141  13.331  0.1091  0.3055  0.5314
  228SOD    SOD22356   2.411   1.838   1.565  0.4048  0.4799  0.0138
  229SOD    SOD22357   1.537   1.948  13.532 -0.0053  0.5857 -0.0971
  230SOD    SOD22358   2.933   3.790   5.647  0.3195 -0.1977 -0.4565
  231SOD    SOD22359   2.992   5.708  12.567 -0.4344  0.1870 -0.2931
  232SOD    SOD22360   1.034   4.417   4.765 -0.2295 -0.0953  0.0286
  233SOD    SOD22361   4.861   6.062  15.105 -0.1135  0.5113  0.1877
  234SOD    SOD22362   2.332   4.205   3.688 -0.2597 -0.1479 -0.2879
  235SOD    SOD22363   1.287   5.903  11.885 -0.0688 -0.7499  0.3621
  236SOD    SOD22364   5.730   5.796   5.829  0.1580  0.0816  0.0995
  237SOD    SOD22365   5.215   1.878   5.703 -0.1686 -0.8202 -0.7298
  238SOD    SOD22366   5.853   3.127  11.008  0.4518 -0.0007  0.4616
  239SOD    SOD22367   5.301   6.053   1.517 -0.5801  0.4603  0.2464
  240SOD    SOD22368   4.875   5.278  11.380 -0.3915 -0.4295  0.4035
  241SOD    SOD22369   4.391   2.991   0.566 -0.0168  0.0176 -0.1374
  242SOD    SOD22370   0.811   4.770  13.184  0.0352 -0.2786 -0.6100
  243SOD    SOD22371   6.038   1.471   2.567 -0.1394 -0.0567 -0.7669
  244SOD    SOD22372   5.054   3.881   5.952  0.1012 -0.0331  0.0967
  245SOD    SOD22373   5.856   3.345   0.777  0.5714  0.0086  0.4349
  246SOD    SOD22374   2.590   2.155   3.726 -0.4777 -0.3400  0.1090
  247SOD    SOD22375   4.046   4.385   0.348  0.1849 -0.2602 -0.1213
  248SOD    SOD22376   4.394   1.543   5.258 -0.2142 -0.2252 -0.1466
  249SOD    SOD22377   0.368   1.740   2.242 -0.0925 -0.1149  0.3438
  250SOD    SOD22378   6.700   3.543  12.932 -0.6298  0.0148 -0.2259
  251SOD    SOD22379   0.316   4.620  16.564  0.0795 -0.1518 -0.2584
  252SOD    SOD22380   1.269   4.077   6.354 -0.3955  0.0662  0.0194
  253SOD    SOD22381   4.320   6.589   5.862 -0.3003  0.6743 -0.3804
  254SOD    SOD22382   4.517   3.098  16.318  0.0029  0.2659  0.1189
  255SOD    SOD22383   3.791   0.239  11.743 -0.2852  0.4014  0.1370
  256SOD    SOD22384   1.932   5.606  13.970  0.7371  0.1064 -0.4768
  257SOD    SOD22385   6.405   1.185   0.137 -0.3526  0.0507 -0.2806
  258SOD    SOD22386   5.363   0.362  14.754  0.0072 -0.2160 -0.3177
  259SOD    SOD22387   2.346   3.143   1.755 -0.3702 -0.4778 -0.4734
  260SOD    SOD22388   2.030   6.674  11.079  0.3630  0.4254  0.1814
  261SOD    SOD22389   0.170   4.808   5.910 -0.2435 -0.4545  0.0256
  262SOD    SOD22390   4.515   2.677   2.929  0.4920 -0.0911  0.3449
  263SOD    SOD22391   5.109   3.709   4.413  0.5435  0.1052 -0.1778
  264SOD    SOD22392   3.822   1.745  15.361  0.1912 -0.3368 -0.1945
  265SOD    SOD22393   3.008   1.510  13.524  0.7665  0.1099  0.2596
  266CLA    CLA22394   0.539   5.986   4.716 -0.3016  0.1651  0.0781
  267CLA    CLA22395   0.605   1.977  15.834 -0.0427  0.2262 -0.3670
  268CLA    CLA22396   6.010   2.861  14.172 -0.0383 -0.3121 -0.0250
  269CLA    CLA22397   2.908   4.499  16.975  0.5233 -0.1007 -0.3922
  270CLA    CLA22398   6.314   6.671   1.563  0.0920 -0.1354 -0.5211
  271CLA    CLA22399   1.647   1.711  12.579  0.0141  0.3259 -0.2301
  272CLA    CLA22400   4.683   3.736   0.783 -0.1316  0.3529  0.1506
  273CLA    CLA22401   2.558   1.654  13.068  0.0124  0.4424 -0.1672
  274CLA    CLA22402   3.484   4.712  13.294  0.0671 -0.1433  0.1667
  275CLA    CLA22403   2.433   4.425  12.605 -0.1926  0.0354  0.6270
  276CLA    CLA22404   4.259   5.881  12.095 -0.1847 -0.1915  0.4115
  277CLA    CLA22405   6.821   0.368  14.538 -0.2051  0.2146 -0.0057
  278CLA    CLA22406   3.573   6.172  13.682  0.2907 -0.0053  0.0180
  279CLA    CLA22407   3.001   3.526   0.865 -0.1301 -0.0787  0.0709
  280CLA    CLA22408   0.391   4.538  14.577  0.0106 -0.6085 -0.1193
  281CLA    CLA22409   3.786   1.086  14.831  0.6203 -0.3551 -0.3221
  282CLA    CLA22410   4.886   6.642  14.517  0.0968  0.0785  0.1803
  283CLA    CLA22411   0.861   0.032   5.866  0.3140 -0.4807 -0.4654
  284CLA    CLA22412   3.784   6.101   0.368 -0.2845 -0.3073  0.1044
  285CLA    CLA22413   3.145   2.936   5.157 -0.4189  0.0007  0.0592
  286CLA    CLA22414   5.946   5.685  14.272  0.3831  0.0819  0.5501
  287CLA    CLA22415   4.615   3.244  15.592 -0.1638 -0.3851  0.0681
  288CLA    CLA22416   1.041   3.939  16.528 -0.0962 -0.1611 -0.2457
  289CLA    CLA22417   6.444   4.075  15.760  0.0112  0.5970  0.1200
  290CLA    CLA22418   2.591   6.556  12.258  0.3054 -0.0717  0.1632
  291CLA    CLA22419   4.599   6.059   1.351 -0.1738 -0.1093  0.0094
  292CLA    CLA22420   1.691   1.068   0.441 -0.3290 -0.3195 -0.7405
  293CLA    CLA22421   0.126   1.301  13.647  0.0365 -0.1299  0.2895
  294CLA    CLA22422   0.847   6.546   2.175  0.1240  0.0754  0.5699
  295CLA    CLA22423   1.874   2.717   3.793 -0.5831 -0.1221  0.4134
  296CLA    CLA22424   5.532   1.486   2.639  0.2392 -0.2597 -0.0134
  297CLA    CLA22425   4.189   4.790   1.170 -0.1846  0.0483  0.3025
  298CLA    CLA22426   1.309   3.734   0.309 -0.0310  0.2641 -0.1499
  299CLA    CLA22427   4.267   5.801   2.924 -0.4811  0.2287  0.0630
  300CLA    CLA22428   2.367   4.594   2.708  0.3513 -0.0783  0.3637
  301CLA    CLA22429   6.269   1.163  15.707  0.4406  0.3799 -0.3332
  302CLA    CLA22430   5.328   3.302  15.054  0.2812  0.2844  0.0114
  303CLA    CLA22431   6.760   4.103  13.311  0.0855  0.3914 -0.1732
  304CLA    CLA22432   0.257   3.015   2.879  0.2294 -0.0902 -0.0987
  305CLA    CLA22433   6.112   2.366   3.885  0.2239 -0.0009 -0.0233
  306CLA    CLA22434   2.285   4.554  11.619 -0.0671 -0.0131  0.2863
  307CLA    CLA22435   3.833   1.809   4.576 -0.4304  0.1535  0.2486
  308CLA    CLA22436   2.695   6.815  14.067  0.0725  0.1054 -0.0250
  309CLA    CLA22437   4.439   2.179   4.490 -0.1317  0.2962 -0.2367
  310CLA    CLA22438   0.015   1.865   2.475 -0.1948 -0.3654  0.0086
  311CLA    CLA22439   1.817   6.807   2.005  0.2022  0.0322  0.1489
  312CLA    CLA22440   0.750   2.128   5.467 -0.0480 -0.5349  0.1312
  313CLA    CLA22441   0.435   5.910  13.900 -0.3801  0.0537  0.1834
  314CLA    CLA22442   3.977   5.914  15.755  0.6009  0.0915 -0.2499
  315CLA    CLA22443   2.508   2.572  13.758  0.2768  0.3427  0.2784
  316CLA    CLA22444   4.747   2.260   2.145  0.7980  0.0270 -0.3077
  317CLA    CLA22445   2.230   4.433  12.069 -0.1786 -0.0195  0.3072
  318CLA    CLA22446   4.034   4.326  15.743  0.3581 -0.0874  0.2851
  319TIP3   OH222447   3.135   2.490   5.623  0.2691  0.0146  0.1948
  319TIP3    H122448   3.157   2.406   5.583  2.5826  0.9601 -0.6915
  319TIP3    H222449   3.059   2.521   5.575  1.7589  0.1800 -2.2203
  320TIP3   OH222450   5.309   1.472   2.412  1.0397  0.3767  0.5672
  320TIP3    H122451   5.362   1.431   2.344  0.0202  0.4163 -0.2889
  320TIP3    H222452   5.368   1.481   2.487  1.7260 -1.2395  0.2761
  321TIP3   OH222453   3.970   3.464   3.467 -0.1172 -0.5258  0.0964
  321TIP3    H122454   4.026   3.535   3.436  3.2492 -2.0936  2.0376
  321TIP3    H222455   3.925   3.433   3.388 -1.2664  3.2091 -0.9284
  322TIP3   OH222456   1.937   0.794   4.427 -0.1658 -0.1118  0.1024
  322TIP3    H122457   1.935   0.870   4.369  1.6485  0.6598  0.9627
  322TIP3    H222458   1.957   0.831   4.514  2.3380 -1.6259  0.2884
  323TIP3   OH222459   2.132   5.123   5.886  0.0655  0.6432  0.0134
  323TIP3    H122460   2.160   5.091   5.800 -0.1423 -1.5703  0.6838
  323TIP3    H222461   2.197   5.088   5.946 -0.5242  1.0265  0.8942
  324TIP3   OH222462   0.297   4.254  12.325  0.7459 -0.0682  0.0665
  324TIP3    H122463   0.386   4.227  12.351  0.2825 -0.6141  1.1810
  324TIP3    H222464   0.240   4.193  12.372 -0.2009 -0.2490 -1.2855
  325TIP3   OH222465   2.300   4.644  15.579 -0.1835 -0.0443  0.1581
  325TIP3    H122466   2.251   4.689  15.511 -0.5101 -0.9725 -0.2315
  325TIP3    H222467   2.314   4.556  15.545 -1.4809 -0.9502  1.8165
  326TIP3   OH222468   3.770   1.604   2.187 -0.3556  0.4764 -0.6985
  326TIP3    H122469   3.692   1.556   2.158  0.4419 -0.9143 -0.6500
  326TIP3    H222470   3.843   1.555   2.149  0.6373  0.0032  1.6513
  327TIP3   OH222471   4.654   3.438   0.051  0.5052  1.0256 -0.5111
  327TIP3    H122472   4.583   3.480   0.098 -0.2410  1.3418 -1.8533
  327TIP3    H222473   4.733   3.464   0.098 -0.2082  1.1047  0.6863
  328TIP3   OH222474   5.963   6.763   5.876 -0.1895  0.1513  0.1671
  328TIP3    H122475   5.889   6.740   5.820 -0.2170  0.3474  0.1206
  328TIP3    H222476   5.925   6.819   5.944 -0.5429 -1.6842  1.5697
  329TIP3   OH222477   1.418   2.904   4.989  0.4152 -0.6735 -1.0691
  329TIP3    H122478   1.389   2.818   4.958  0.4816 -0.7373 -0.9562
  329TIP3    H222479   1.398   2.963   4.917  0.0385 -0.7211 -1.0105
  330TIP3   OH222480   0.991   0.756   4.624 -0.3370 -0.1328 -0.4934
  330TIP3    H122481   0.955   0.695   4.559 -0.0377 -0.7208 -0.1119
  330TIP3    H222482   0.929   0.829   4.625  0.5146  0.7314 -2.6890
  331TIP3   OH222483   5.584   6.345  14.748 -0.1316 -0.2303  0.0243
  331TIP3    H122484   5.620   6.419  14.797  1.3994 -1.1993  0.4391
  331TIP3    H222485   5.630   6.346  14.664 -0.9238 -0.0613 -0.4205
  332TIP3   OH222486   3.043   4.873   3.971 -0.2755 -0.2331  0.7730
  332TIP3    H122487   3.132   4.865   4.004 -0.0527 -0.1867  0.1808
  332TIP3    H222488   2.988   4.859   4.049  0.2336 -0.5958  1.0745
  333TIP3   OH222489   0.684   3.218  13.633  0.3294  0.3592 -0.3996
  333TIP3    H122490   0.640   3.171  13.562  1.3800  0.3890 -1.0899
  333TIP3    H222491   0.774   3.227  13.604  1.1179 -0.7457  1.5144
  334TIP3   OH222492   1.961   5.629   2.519 -0.2164  0.5619 -0.3889
  334TIP3    H122493   1.957   5.551   2.574 -2.4425 -1.7243 -3.4396
  334TIP3    H222494   2.050   5.627   2.482  0.4685  0.7785  1.1675
  335TIP3   OH222495   2.883   4.563   0.255  0.0578 -0.2250 -0.2603
  335TIP3    H122496   2.931   4.646   0.260 -0.2308  0.1196 -2.4808
  335TIP3    H222497   2.899   4.531   0.166 -1.9453 -1.2723 -0.2920
  336TIP3   OH222498   4.833   4.580  14.772 -0.5081 -0.0648 -0.1313
  336TIP3    H122499   4.828   4.596  14.867 -0.8011  2.2183 -0.4985
  336TIP3    H222500   4.881   4.497  14.766 -0.6183 -0.3643  2.0138
  337TIP3   OH222501   5.620   0.509  13.112  0.6719 -0.0318 -0.2073
  337TIP3    H122502   5.589   0.589  13.069 -0.8562  0.9718  2.5633
  337TIP3    H222503   5.548   0.447  13.102  0.8505 -0.2379 -0.2222
  338TIP3   OH222504   2.751   1.097   3.237  0.0859  0.4782  0.0880
  338TIP3    H122505   2.753   1.003   3.252  2.6033  0.3888 -0.4308
  338TIP3    H222506   2.719   1.134   3.320  1.4446 -0.7202  1.1868
  339TIP3   OH222507   6.059   3.438  13.422  0.3004 -0.0489 -0.6823
  339TIP3    H122508   6.085   3.516  13.471  2.1085 -0.9103 -0.1932
  339TIP3    H222509   6.117   3.439  13.345  0.6261 -1.1085 -0.4620
  340TIP3   OH222510   2.122   0.784  11.878 -0.1106  0.1241  0.4230
  340TIP3    H122511   2.041   0.786  11.930  0.3002 -0.7512  1.1381
  340TIP3    H222512   2.177   0.721  11.924  0.6815  0.1271 -0.5028
  341TIP3   OH222513   2.707   3.498  11.170 -0.7646  0.3377 -0.1700
  341TIP3    H122514   2.629   3.467  11.217 -1.0245 -0.5276 -1.1302
  341TIP3    H222515   2.758   3.419  11.153 -0.4158  0.7042 -0.8809
  342TIP3   OH222516   5.634   5.273   5.205 -0.3303 -0.7315 -0.2274
  342TIP3    H122517   5.563   5.209   5.207  0.3029 -1.4573  2.0991
  342TIP3    H222518   5.684   5.252   5.126 -1.3231 -1.7648 -0.6005
  343TIP3   OH222519   3.737   5.570  13.254 -0.1214  0.0544  0.8083
  343TIP3    H122520   3.833   5.571  13.254 -0.1151 -0.1794  1.6518
  343TIP3    H222521   3.713   5.555  13.345 -0.9810  1.3969  0.8302
  344TIP3   OH222522   0.804   3.448   3.983 -0.1161  0.1316  0.7494
  344TIP3    H122523   0.879   3.464   3.925 -1.5865  0.7507 -1.0797
  344TIP3    H222524   0.841   3.450   4.071  2.0533  0.1420 -0.0996
  345TIP3   OH222525   2.515   3.184   5.617 -0.3783 -0.2012 -0.0939
  345TIP3    H122526   2.611   3.178   5.609 -0.3306  1.0213 -0.6246
  345TIP3    H222527   2.501   3.213   5.707 -0.4435 -3.5779  1.1299
  346TIP3   OH222528   3.255   3.088  17.194 -0.6467 -0.3486 -0.4207
  346TIP3    H122529   3.179   3.037  17.168 -2.2696  1.6694  0.0952
  346TIP3    H222530   3.285   3.131  17.114 -0.6291 -0.4100 -0.4476
  347TIP3   OH222531   4.528   0.045   2.706 -0.2525  0.1845 -0.0801
  347TIP3    H122532   4.562   0.127   2.672 -0.8669  1.1102  1.4370
  347TIP3    H222533   4.549  -0.020   2.639  0.1328  1.5908 -1.3590
  348TIP3   OH222534   3.654   0.889   6.195 -0.7802 -0.3522  0.2571
  348TIP3    H122535   3.746   0.900   6.170 -1.2945  2.4155 -0.7780
  348TIP3    H222536   3.613   0.848   6.119 -1.3241  3.3217 -1.6409
  349TIP3   OH222537   4.706   3.794  12.569 -0.0750  0.0028  0.7536
  349TIP3    H122538   4.617   3.797  12.604 -0.2850 -0.1075  0.2485
  349TIP3    H222539   4.699   3.736  12.492  0.5163 -0.3271  0.9436
  350TIP3   OH222540   4.898   5.764   6.004  0.0018 -0.2471  0.2553
  350TIP3    H122541   4.950   5.709   6.062 -1.0736 -2.0789 -0.4400
  350TIP3    H222542   4.841   5.703   5.957 -0.8268  1.4070 -1.0088
  351TIP3   OH222543   0.529   2.658   3.420  0.3783 -0.4973  0.9783
  351TIP3    H122544   0.469   2.586   3.438  0.5622 -0.5831  1.2525
  351TIP3    H222545   0.534   2.706   3.502  1.8099 -1.3229  1.3985
  352TIP3   OH222546   0.776   4.625  16.716 -0.6025  0.3117 -0.1170
  352TIP3    H122547   0.865   4.631  16.681 -1.1015  1.6150 -1.2631
  352TIP3    H222548   0.759   4.711  16.754 -1.3510  0.0508  0.1633
  353TIP3   OH222549   5.063   5.579   2.229  0.7364 -0.2519  0.1079
  353TIP3    H122550   5.087   5.510   2.167  0.8263  0.0036 -0.1417
  353TIP3    H222551   5.131   5.575   2.296  0.3422 -0.8888  0.4850
  354TIP3   OH222552   3.644   1.129  16.798 -0.1210 -0.0606  0.2280
  354TIP3    H122553   3.669   1.102  16.710  1.5876 -0.5879  0.8369
  354TIP3    H222554   3.713   1.189  16.826 -2.5294  3.1805 -0.1337
  355TIP3   OH222555   1.856   5.807   5.565 -0.2289 -0.2674 -0.5952
  355TIP3    H122556   1.806   5.883   5.537 -0.6271  0.1776  1.1666
  355TIP3    H222557   1.793   5.735   5.564  0.0461 -0.5078 -1.8754
  356TIP3   OH222558   1.241   5.871   6.135 -1.5877  0.2195  0.3179
  356TIP3    H122559   1.318   5.829   6.175 -1.2762 -0.5582 -1.0267
  356TIP3    H222560   1.215   5.810   6.066 -1.0779  2.2796 -1.7849
  357TIP3   OH222561   5.573   1.446  10.612  0.1126 -0.2987  0.2562
  357TIP3    H122562   5.565   1.350  10.615  1.0137 -0.4031 -0.3925
  357TIP3    H222563   5.663   1.463  10.642 -0.0073  0.3399  0.2631
  358TIP3   OH222564   5.739   6.426   0.694 -0.0101  0.2063 -0.4010
  358TIP3    H122565   5.792   6.404   0.617  0.1223 -0.9802  0.0102
  358TIP3    H222566   5.763   6.360   0.759 -0.2934  1.0594  0.5852
  359TIP3   OH222567   4.486   2.071  15.741 -0.0363 -0.3430  0.0139
  359TIP3    H122568   4.543   2.133  15.697 -0.6038 -0.6198 -1.1500
  359TIP3    H222569   4.512   1.985  15.706  0.2560 -0.6997  1.0603
  360TIP3   OH222570   4.699   5.025  14.961  0.1955 -0.2271  0.1420
  360TIP3    H122571   4.620   5.079  14.962  0.3556  0.0254 -0.3674
  360TIP3    H222572   4.668   4.939  14.932 -0.0654 -0.4305  0.9940
  361TIP3   OH222573   0.600   0.474   4.609  0.3298 -0.3043  0.2245
  361TIP3    H122574   0.515   0.500   4.644  0.2544  0.3779 -0.4177
  361TIP3    H222575   0.649   0.443   4.684 -0.1300  0.2735  0.7719
  362TIP3   OH222576   4.442   4.795   5.679  0.7059  0.4919 -0.3924
  362TIP3    H122577   4.453   4.743   5.759 -0.3046 -0.1824 -0.6719
  362TIP3    H222578   4.530   4.826   5.659  1.0398  0.3768  0.7793
  363TIP3   OH222579   3.466   0.426   2.925 -0.4038  0.4662 -0.1328
  363TIP3    H122580   3.398   0.425   2.993 -0.1804 -0.1917  0.0926
  363TIP3    H222581   3.522   0.500   2.948 -0.2858  0.2020  0.4557
  364TIP3   OH222582   5.837   6.739   2.067 -0.0757  0.3769  0.2257
  364TIP3    H122583   5.914   6.686   2.087 -0.5003 -0.6147 -0.6481
  364TIP3    H222584   5.780   6.727   2.143  0.3122  0.5045  0.5404
  365TIP3   OH222585   2.149   2.608   3.309 -0.0446 -0.4387 -0.1555
  365TIP3    H122586   2.164   2.698   3.340 -2.9629  0.0936 -0.0078
  365TIP3    H222587   2.159   2.554   3.387 -1.6835  0.2228  0.5615
  366TIP3   OH222588   4.404   0.931   2.742  0.8500  0.2897 -0.1637
  366TIP3    H122589   4.484   0.932   2.689  1.5527 -0.5947  0.8175
  366TIP3    H222590   4.421   0.864   2.809 -0.7757 -0.0220 -0.0185
  367TIP3   OH222591   1.327   0.168   2.810  0.4649 -0.2589 -0.0118
  367TIP3    H122592   1.301   0.241   2.865 -0.3385  0.3684 -1.1860
  367TIP3    H222593   1.322   0.202   2.720  0.3237 -1.6603 -0.5649
  368TIP3   OH222594   1.913   6.257   5.326  0.3953 -0.2987 -0.3675
  368TIP3    H122595   1.983   6.192   5.330 -0.2138 -0.9083  0.9767
  368TIP3    H222596   1.934   6.320   5.394  0.0497 -0.0504 -0.4872
  369TIP3   OH222597   4.726   0.347  12.660 -0.2701  0.2264  0.2491
  369TIP3    H122598   4.821   0.336  12.666 -0.4129 -0.9370  0.6583
  369TIP3    H222599   4.703   0.398  12.738 -0.0917 -0.3363  0.6751
  370TIP3   OH222600   3.241   5.241  16.253  0.4336  0.7774  0.2288
  370TIP3    H122601   3.185   5.303  16.207  2.6632  2.4618 -0.3639
  370TIP3    H222602   3.280   5.291  16.324  2.3919  0.1353 -0.3260
  371TIP3   OH222603   4.320   2.215  16.309  0.2025 -0.3119 -0.1683
  371TIP3    H122604   4.228   2.190  16.300 -0.1721  0.9168  0.0924
  371TIP3    H222605   4.359   2.144  16.362 -1.5315  1.0702  3.2477
  372TIP3   OH222606   4.805   6.283  17.131 -0.3093 -0.8047 -0.1414
  372TIP3    H122607   4.768   6.195  17.136  0.2644 -1.0016  2.7604
  372TIP3    H222608   4.757   6.333  17.197  1.5253  0.1205  0.5716
  373TIP3   OH222609   1.430   1.609   3.269 -0.0341  0.0094  0.4334
  373TIP3    H122610   1.336   1.603   3.252  0.2766 -1.0657 -1.1476
  373TIP3    H222611   1.447   1.702   3.279 -1.5715  0.1098  2.8598
  374TIP3   OH222612   4.606   1.184   5.923  0.0967  0.3246  0.6486
  374TIP3    H122613   4.680   1.130   5.949 -0.3205 -0.1430  0.8699
  374TIP3    H222614   4.582   1.151   5.836  0.8414  1.2110  0.0807
  375TIP3   OH222615   0.635   0.597  10.625  0.0416 -0.1086  0.7088
  375TIP3    H122616   0.678   0.596  10.540 -0.3810  1.4357  0.4453
  375TIP3    H222617   0.626   0.505  10.649  0.1774 -0.5655 -0.9001
  376TIP3   OH222618   1.123   6.283  11.938  0.1393  0.0778 -0.4100
  376TIP3    H122619   1.124   6.189  11.918  4.4143 -0.1732 -0.0521
  376TIP3    H222620   1.154   6.325  11.858  3.0497  0.5581  0.8546
  377TIP3   OH222621   3.438   6.431  16.642 -0.3354 -0.3367 -0.0614
  377TIP3    H122622   3.485   6.352  16.668  0.4620 -0.0851 -0.7179
  377TIP3    H222623   3.411   6.471  16.725  3.1036  1.0286  0.5521
  378TIP3   OH222624   1.664   3.410   1.716 -0.6438 -0.1639  0.0409
  378TIP3    H122625   1.690   3.335   1.770 -0.0419 -0.9518 -1.2682
  378TIP3    H222626   1.645   3.480   1.778 -0.6948 -1.2486  1.2810
  379TIP3   OH222627   0.099   2.710   1.806 -0.5286  0.2316  0.1755
  379TIP3    H122628   0.029   2.771   1.781 -0.7598  0.4314  1.2501
  379TIP3    H222629   0.117   2.731   1.897  2.1436  1.3621 -0.5151
  380TIP3   OH222630   2.681   2.848   1.325  0.0155 -0.5143 -0.6296
  380TIP3    H122631   2.669   2.933   1.284  0.3714 -0.5951 -0.9105
  380TIP3    H222632   2.746   2.804   1.270  0.3988 -0.6740 -0.0581
  381TIP3   OH222633   0.527   2.983   6.361 -0.2680  0.0778 -0.0307
  381TIP3    H122634   0.529   2.970   6.266 -2.4059  1.4074 -0.3155
  381TIP3    H222635   0.440   2.955   6.387  0.9692 -2.3070  1.9588
  382TIP3   OH222636   1.031   0.250   2.824 -0.4868 -0.6708 -0.4557
  382TIP3    H122637   1.053   0.243   2.731 -0.3886  0.7363 -0.5608
  382TIP3    H222638   0.966   0.181   2.838  1.4906 -2.7384 -0.8848
  383TIP3   OH222639   2.006   4.842  13.951  0.5781 -0.5757 -0.0254
  383TIP3    H122640   2.048   4.887  13.877 -0.7447 -0.5783 -0.8011
  383TIP3    H222641   1.986   4.755  13.917 -1.7065 -0.0043 -0.3257
  384TIP3   OH222642   4.443   6.783   4.223  0.2882  0.0724 -0.5737
  384TIP3    H122643   4.508   6.848   4.249  0.0438  0.2647 -0.4389
  384TIP3    H222644   4.446   6.784   4.127  3.2222 -2.6660 -0.6707
  385TIP3   OH222645   0.928   3.719   4.072 -0.0230  0.3594  0.2074
  385TIP3    H122646   1.000   3.736   4.011  0.5122  0.5395  0.8684
  385TIP3    H222647   0.850   3.748   4.026  0.3027 -0.0480 -0.6131
  386TIP3   OH222648   2.548   2.747   0.421 -0.2636 -0.2184 -0.7459
  386TIP3    H122649   2.554   2.653   0.436 -0.9751 -0.1790 -0.1606
  386TIP3    H222650   2.604   2.786   0.488 -0.7856 -0.1856 -0.3239
  387TIP3   OH222651   0.167   6.519   2.757  0.3326  0.0864 -0.2891
  387TIP3    H122652   0.262   6.515   2.769  0.4092  0.9057 -0.5941
  387TIP3    H222653   0.131   6.511   2.846  0.7026  0.3419 -0.1163
  388TIP3   OH222654   6.267   2.976  13.230  0.1680  0.5856  0.2603
  388TIP3    H122655   6.344   3.024  13.261 -2.3001  2.7362  3.7398
  388TIP3    H222656   6.208   3.044  13.198 -1.6277 -0.6166  0.8797
  389TIP3   OH222657   1.874   0.797  15.747 -1.1469  1.1177  0.4114
  389TIP3    H122658   1.851   0.729  15.684 -0.1278  0.6690  0.5034
  389TIP3    H222659   1.804   0.862  15.739 -0.4070  1.6867 -2.0677
  390TIP3   OH222660   0.131   3.654   6.215 -0.2630  0.5247  0.3051
  390TIP3    H122661   0.143   3.564   6.246 -1.3797  0.4723  0.6414
  390TIP3    H222662   0.220   3.688   6.206  0.2036 -0.7351 -0.2148
  391TIP3   OH222663   0.554   5.327   4.411  0.1111 -0.4034  0.1039
  391TIP3    H122664   0.650   5.329   4.408  0.1816 -2.2660 -0.3609
  391TIP3    H222665   0.534   5.264   4.480 -0.7526 -0.7594 -0.4539
  392TIP3   OH222666   5.569   1.019   5.989  0.0977  0.4294 -0.1022
  392TIP3    H122667   5.620   1.094   6.020  0.6631  1.2016 -2.5990
  392TIP3    H222668   5.479   1.052   5.986 -0.0842  0.0958  1.3588
  393TIP3   OH222669   5.891   0.325  11.804  0.4034  0.4157 -0.4262
  393TIP3    H122670   5.857   0.236  11.810  0.2436  0.2400 -2.8996
  393TIP3    H222671   5.818   0.381  11.831 -1.0927 -0.0730 -3.0942
  394TIP3   OH222672   1.708   5.210   4.605 -0.3893  0.4583 -0.9694
  394TIP3    H122673   1.642   5.227   4.537 -0.1818 -1.6769 -1.7935
  394TIP3    H222674   1.783   5.264   4.580 -1.6187  2.6152 -0.2407
  395TIP3   OH222675   0.431   3.073  13.692  0.2520  0.0882  0.5326
  395TIP3    H122676   0.348   3.122  13.691 -0.6318 -1.2621  2.2157
  395TIP3    H222677   0.475   3.099  13.611 -1.6734  1.0905 -0.2613
  396TIP3   OH222678   0.296   6.247   2.588 -0.1636  0.6084  0.1859
  396TIP3    H122679   0.343   6.327   2.568  1.1250 -0.3259 -0.6637
  396TIP3    H222680   0.291   6.201   2.505  0.4905 -0.8983  0.9462
  397TIP3   OH222681   3.879   4.823   1.197 -0.4794 -0.2238 -0.1723
  397TIP3    H122682   3.972   4.814   1.175  0.4158  2.8619  1.6782
  397TIP3    H222683   3.834   4.816   1.112  1.4993 -0.9226 -1.2358
  398TIP3   OH222684   1.366   2.096  12.805  0.6230 -0.3017  0.1235
  398TIP3    H122685   1.410   2.043  12.738  1.3795  0.3703  0.0681
  398TIP3    H222686   1.408   2.182  12.799  0.6137 -0.1901  1.3685
  399TIP3   OH222687   2.466   4.399   5.538  0.3353 -0.0623 -0.1900
  399TIP3    H122688   2.376   4.370   5.555  0.7169 -0.0628  2.2539
  399TIP3    H222689   2.499   4.338   5.472 -1.1761 -0.6240 -0.4696
  400TIP3   OH222690   1.061   4.234   4.131  0.2004 -0.3691  0.0613
  400TIP3    H122691   1.135   4.211   4.187  1.5313  1.9786 -0.6096
  400TIP3    H222692   1.053   4.329   4.140 -1.0545 -0.2406 -1.8957
  401TIP3   OH222693   5.450   1.500  11.082  0.2479 -0.2943  0.4067
  401TIP3    H122694   5.489   1.588  11.084  0.1807 -0.0552 -2.8834
  401TIP3    H222695   5.358   1.514  11.100  0.4298  0.1415  1.0368
  402TIP3   OH222696   6.797   2.873   4.441 -0.2961 -0.6582 -0.0547
  402TIP3    H122697   6.816   2.799   4.384  0.6191 -1.1483  0.8641
  402TIP3    H222698   6.881   2.918   4.450 -0.3303 -0.8433  1.2679
  403TIP3   OH222699   1.567   1.574  15.385 -0.1021  0.4307  0.0057
  403TIP3    H122700   1.594   1.600  15.297  1.1975  1.6638  0.7397
  403TIP3    H222701   1.552   1.480  15.377  0.6590  0.3872 -1.3818
  404TIP3   OH222702   0.572   2.587  13.351 -0.5363  0.6241 -0.7172
  404TIP3    H122703   0.588   2.590  13.256  1.2585 -1.3442 -0.5463
  404TIP3    H222704   0.505   2.520  13.362 -0.3060  0.4192 -0.5542
  405TIP3   OH222705   0.479   4.430   2.640  0.5337  0.0622  0.1133
  405TIP3    H122706   0.392   4.462   2.619 -0.0053 -0.9610  0.7218
  405TIP3    H222707   0.475   4.336   2.623  1.1579 -0.1902  1.2621
  406TIP3   OH222708   4.164   3.839  12.735 -0.3596  0.4476 -0.0033
  406TIP3    H122709   4.126   3.847  12.822  0.5568  4.7624  0.2019
  406TIP3    H222710   4.105   3.889  12.678 -0.4530 -1.5196 -1.7911
  407TIP3   OH222711   5.973   6.205   2.046  0.1669  0.1248  0.7875
  407TIP3    H122712   5.912   6.131   2.047 -0.4777  0.6525  1.0396
  407TIP3    H222713   5.923   6.278   2.081  0.7431  0.7333  0.3659
  408TIP3   OH222714   6.438   5.648  16.319  0.6189 -0.3237 -0.4143
  408TIP3    H122715   6.419   5.647  16.225 -2.9904  0.0240  0.1949
  408TIP3    H222716   6.441   5.741  16.341 -1.6882 -0.3639  0.2768
  409TIP3   OH222717   3.007   3.541  14.619  0.7738 -0.1294  0.2602
  409TIP3    H122718   2.972   3.489  14.691  2.0419 -0.0371  0.9730
  409TIP3    H222719   3.023   3.627  14.658 -1.3454  0.8636 -0.9152
  410TIP3   OH222720   1.358   1.635   2.645  0.7379  0.4529 -0.0999
  410TIP3    H122721   1.327   1.563   2.702  0.7737  0.1417 -0.4718
  410TIP3    H222722   1.343   1.714   2.697 -0.6257  0.3033 -0.2346
  411TIP3   OH222723   1.075   2.448   5.468  0.1483  0.1631  0.5947
  411TIP3    H122724   1.154   2.458   5.520  0.3083  1.8353  0.1067
  411TIP3    H222725   1.058   2.536   5.434 -0.2834 -0.7355 -1.6830
  412TIP3   OH222726   3.582   6.459   0.840  0.1878 -0.1711 -0.2196
  412TIP3    H122727   3.605   6.551   0.832  0.1485 -0.0538  0.8784
  412TIP3    H222728   3.579   6.443   0.934  0.1862 -1.2922 -0.3955
  413TIP3   OH222729   1.708   3.229   3.834 -0.0902 -0.1810  0.2753
  413TIP3    H122730   1.746   3.159   3.780 -0.2949 -1.1487  1.3404
  413TIP3    H222731   1.629   3.189   3.871  1.0393 -0.1978  2.7937
  414TIP3   OH222732   0.981   1.757  11.018 -0.6002  0.2849  0.2347
  414TIP3    H122733   1.004   1.823  10.953 -0.9631 -0.3430 -0.5484
  414TIP3    H222734   0.918   1.700  10.974 -0.0695 -0.7619  0.7743
  415TIP3   OH222735   2.083   0.140   1.600 -0.2644  0.2862 -0.2062
  415TIP3    H122736   2.028   0.095   1.534 -1.0336  1.2328 -0.2288
  415TIP3    H222737   2.119   0.215   1.553 -0.0337  0.4244  0.1957
  416TIP3   OH222738   6.125   0.898  11.416 -0.1573 -0.4754  0.1715
  416TIP3    H122739   6.043   0.857  11.443  0.1994 -0.5307  1.2296
  416TIP3    H222740   6.146   0.959  11.487 -0.5315  1.3684 -1.2295
  417TIP3   OH222741   1.926   0.127  16.054 -0.3633  0.4644  0.1268
  417TIP3    H122742   1.986   0.099  16.123 -0.5257 -0.3265 -0.0367
  417TIP3    H222743   1.971   0.103  15.972 -1.9832 -2.7254 -0.0044
  418TIP3   OH222744   5.034   3.454   2.991 -0.1408  0.2799 -0.4656
  418TIP3    H122745   5.120   3.426   2.958  0.6190 -0.2080  1.7417
  418TIP3    H222746   5.036   3.549   2.987  0.6785  0.2880 -0.0957
  419TIP3   OH222747   3.302   3.132   3.530 -0.0293  0.5512  0.5599
  419TIP3    H122748   3.283   3.209   3.582 -0.4614  0.5141  0.4633
  419TIP3    H222749   3.230   3.127   3.467  0.1679  0.2569  0.3521
  420TIP3   OH222750   5.698   1.046   0.563  0.2259  0.0365  0.9179
  420TIP3    H122751   5.742   1.004   0.637 -1.8854  0.2582  2.3694
  420TIP3    H222752   5.606   1.047   0.587 -0.8772 -1.7525 -2.6546
  421TIP3   OH222753   3.755   0.924   6.732  0.8075  0.9531 -0.6669
  421TIP3    H122754   3.790   0.979   6.662  0.4913 -0.3539 -1.8934
  421TIP3    H222755   3.747   0.837   6.693  1.9324 -0.1624  1.4020
  422TIP3   OH222756   4.694   2.172  14.202  0.3718 -0.1062  0.0083
  422TIP3    H122757   4.660   2.202  14.118  0.5210 -0.0512 -0.0320
  422TIP3    H222758   4.729   2.084  14.183  0.2490 -0.1644  0.0510
  423TIP3   OH222759   1.276   3.360   1.882  0.6204  0.2159  0.4674
  423TIP3    H122760   1.199   3.343   1.829  0.9177  1.5579 -0.4341
  423TIP3    H222761   1.256   3.321   1.967 -1.3966  1.2316  0.5160
  424TIP3   OH222762   3.910   1.360  12.729 -0.3446 -0.7638 -0.3320
  424TIP3    H122763   3.832   1.315  12.762 -0.2650 -0.7278 -0.0982
  424TIP3    H222764   3.947   1.404  12.805 -0.0469 -0.8487 -0.4269
  425TIP3   OH222765   3.752   5.700   1.883 -0.2909 -0.3859 -0.0109
  425TIP3    H122766   3.684   5.726   1.820 -1.2207 -1.8542  0.3410
  425TIP3    H222767   3.712   5.714   1.969  0.9264  1.4860  0.2972
  426TIP3   OH222768   2.205   6.388  16.324 -0.3589  0.1721  0.4966
  426TIP3    H122769   2.233   6.378  16.233 -1.5605  0.5282  0.0713
  426TIP3    H222770   2.127   6.334  16.332 -0.8155  0.8891  1.0440
  427TIP3   OH222771   1.734   1.229  14.073  0.5652 -0.2602  0.3946
  427TIP3    H122772   1.654   1.182  14.097  0.1334 -0.2368 -0.9454
  427TIP3    H222773   1.797   1.160  14.052  0.0937 -0.2860 -1.0485
  428TIP3   OH222774   4.258   1.746  16.018 -0.1678  0.2052  0.8309
  428TIP3    H122775   4.314   1.707  16.085 -0.4928 -1.0146  0.4108
  428TIP3    H222776   4.193   1.679  15.999 -0.0313  0.4973 -0.7699
  429TIP3   OH222777   2.002   5.240  15.246  0.1474 -0.2610  0.5765
  429TIP3    H122778   1.967   5.152  15.237  1.3913 -0.8467  1.2092
  429TIP3    H222779   2.046   5.257  15.162  0.7346 -0.6306  0.8059
  430TIP3   OH222780   6.193   0.521  14.112  0.5222 -0.8189  0.1950
  430TIP3    H122781   6.250   0.460  14.065  2.0880  0.4288  0.3845
  430TIP3    H222782   6.244   0.602  14.117 -1.0378  0.1604  0.9378
  431TIP3   OH222783   5.657   0.699   3.529  0.0257 -0.1703 -0.0153
  431TIP3    H122784   5.591   0.631   3.539  1.4868 -1.4680  1.1481
  431TIP3    H222785   5.738   0.652   3.513  1.0225  1.3078  0.4674
  432TIP3   OH222786   4.980   5.079   2.009  0.3678  0.7109 -0.0874
  432TIP3    H122787   4.950   5.012   2.071  1.5425 -0.6689 -0.9449
  432TIP3    H222788   5.031   5.030   1.944  0.3763  2.3118 -1.3443
  433TIP3   OH222789   2.465   2.771  13.011 -0.2866 -0.2534  0.1223
  433TIP3    H122790   2.464   2.864  12.987 -2.7583  0.3466  2.2242
  433TIP3    H222791   2.491   2.770  13.103 -0.9023 -1.6147  0.3022
  434TIP3   OH222792   5.718   3.686   2.034  0.6459 -0.1377  0.4673
  434TIP3    H122793   5.788   3.635   2.074  0.2222 -0.7676  0.4139
  434TIP3    H222794   5.639   3.664   2.084  0.6670  1.4512  1.2844
  435TIP3   OH222795   5.058   1.047  12.473  0.1850  0.5489 -0.3487
  435TIP3    H122796   5.079   1.140  12.470 -0.1365  0.6741  0.8948
  435TIP3    H222797   5.042   1.023  12.381 -0.6530  1.9284 -0.5829
  436TIP3   OH222798   4.525   4.320  12.052 -0.2073  0.0910 -0.0777
  436TIP3    H122799   4.502   4.233  12.085 -0.1724  0.3542  0.6728
  436TIP3    H222800   4.620   4.324  12.059 -0.2989  0.6964  1.2713
  437TIP3   OH222801   6.228   0.322   3.477 -0.4627 -0.0501 -0.1821
  437TIP3    H122802   6.218   0.334   3.383  0.0952 -0.0290 -0.2410
  437TIP3    H222803   6.257   0.407   3.510 -2.5805  0.5349  0.3067
  438TIP3   OH222804   1.118   4.756  14.814 -0.6281  0.2143  0.0075
  438TIP3    H122805   1.028   4.746  14.784 -1.2035  0.5806  1.4958
  438TIP3    H222806   1.119   4.841  14.858  0.6559  0.5690 -0.6681
  439TIP3   OH222807   0.575   6.061  16.158 -0.4542  0.1046  0.1165
  439TIP3    H122808   0.627   5.998  16.107  0.9944 -0.7650  2.4790
  439TIP3    H222809   0.609   6.146  16.132  1.5146 -0.4057  0.8411
  440TIP3   OH222810   3.759   2.075  10.351  0.3735 -0.3689 -0.0911
  440TIP3    H122811   3.675   2.117  10.373  0.3759 -0.9846  1.1747
  440TIP3    H222812   3.809   2.076  10.433  1.3080 -0.6994 -0.6401
  441TIP3   OH222813   4.167   0.599   0.795 -0.2863  0.0816 -0.0847
  441TIP3    H122814   4.192   0.579   0.885 -3.1982 -0.2952  0.7570
  441TIP3    H222815   4.181   0.693   0.787  1.7061 -0.1662  0.1148
  442TIP3   OH222816   5.239   6.008   5.029 -0.1284 -0.0143 -0.3210
  442TIP3    H122817   5.151   5.979   5.054 -0.7506  2.8326  1.1192
  442TIP3    H222818   5.233   6.024   4.935 -0.2744 -2.5095 -0.8072
  443TIP3   OH222819   2.675   3.981  16.708  0.3281 -0.2256 -0.1121
  443TIP3    H122820   2.637   4.000  16.623 -0.1760  1.8137  0.5046
  443TIP3    H222821   2.611   3.924  16.751 -0.3457  0.2945 -0.4071
  444TIP3   OH222822   1.237   1.207   4.669  0.1873  0.2581 -0.3834
  444TIP3    H122823   1.264   1.280   4.725  1.6850 -1.1280  0.7880
  444TIP3    H222824   1.167   1.164   4.719  0.2797  0.0708 -0.4169
  445TIP3   OH222825   5.461   2.064   4.303 -0.3883 -0.1832  0.4960
  445TIP3    H122826   5.456   2.028   4.392  1.7184 -0.7623  0.4426
  445TIP3    H222827   5.524   2.136   4.311 -0.7268  0.2228 -0.4014
  446TIP3   OH222828   5.401   5.730   6.241  0.0482 -0.1034 -0.0260
  446TIP3    H122829   5.318   5.690   6.268 -0.7496  1.1281 -0.5300
  446TIP3    H222830   5.457   5.724   6.317 -0.0683 -2.0557 -0.0488
  447TIP3   OH222831   0.052   6.810  17.020  0.0895 -0.1551 -0.2797
  447TIP3    H122832   0.126   6.804  16.959 -0.5243 -0.9227 -0.9802
  447TIP3    H222833   0.024   6.719  17.031  0.6145 -0.1109  1.7046
  448TIP3   OH222834   3.613   3.897   1.878  0.2006  0.3835 -0.5191
  448TIP3    H122835   3.522   3.920   1.899  0.0536  0.9362 -1.6880
  448TIP3    H222836   3.619   3.908   1.784  1.2070 -0.6727 -0.6056
  449TIP3   OH222837   0.822   2.911  13.478  0.1509  0.1124  0.1602
  449TIP3    H122838   0.893   2.953  13.430  0.4811  0.3094  0.8138
  449TIP3    H222839   0.743   2.941  13.435  0.4524  0.0117 -0.4796
  450TIP3   OH222840   3.335   3.914  14.782 -0.4478  0.1205  0.2295
  450TIP3    H122841   3.337   3.950  14.870 -0.2573  1.1362 -0.1697
  450TIP3    H222842   3.427   3.906  14.756 -0.5010 -0.2006  0.1390
  451TIP3   OH222843   1.337   1.854  11.349 -0.0937 -0.2125  0.2120
  451TIP3    H122844   1.333   1.826  11.257 -0.7077 -2.6895  0.9168
  451TIP3    H222845   1.274   1.797  11.394  1.1693  0.0081  2.4010
  452TIP3   OH222846   1.566   2.090   1.862 -0.3509 -0.1979  0.0843
  452TIP3    H122847   1.555   2.035   1.784  0.7134  0.7110 -0.7349
  452TIP3    H222848   1.516   2.169   1.842 -2.4839 -1.0824  1.5587
  453TIP3   OH222849   3.179   5.385  12.900  0.5392 -0.3635  0.1020
  453TIP3    H122850   3.138   5.457  12.949 -1.5990 -1.3603 -0.1183
  453TIP3    H222851   3.203   5.321  12.967  0.2512 -0.4763  0.0980
  454TIP3   OH222852   1.057   0.209  12.074 -0.6484  0.0828 -0.1490
  454TIP3    H122853   1.127   0.257  12.029  0.0084 -0.3228  0.4159
  454TIP3    H222854   1.103   0.141  12.123 -1.5194 -0.8025 -0.5248
  455TIP3   OH222855   3.327   1.786  12.279 -0.5018  0.0894 -0.4691
  455TIP3    H122856   3.408   1.834  12.292 -0.6781  0.1045  0.6936
  455TIP3    H222857   3.337   1.743  12.194 -0.9489  3.3420 -2.2996
  456TIP3   OH222858   1.656   6.699   0.529 -0.1804 -0.7997  0.0900
  456TIP3    H122859   1.606   6.749   0.465 -0.3465 -0.1855  0.6841
  456TIP3    H222860   1.747   6.724   0.514 -0.3249  0.3148  0.8887
  457TIP3   OH222861   5.606   4.150  10.756 -0.0647 -0.2990 -0.3186
  457TIP3    H122862   5.681   4.206  10.734 -0.5527  0.6111  0.2552
  457TIP3    H222863   5.539   4.173  10.693  0.2341 -1.3597 -1.0460
  458TIP3   OH222864   4.557   6.100  10.943 -0.8972 -0.0960  0.2371
  458TIP3    H122865   4.474   6.134  10.910 -0.1692  0.8211 -0.7139
  458TIP3    H222866   4.624   6.157  10.905  0.2748 -1.6637 -0.2117
  459TIP3   OH222867   4.117   5.907   1.875  1.0725 -0.0744 -0.1495
  459TIP3    H122868   4.130   5.909   1.780 -1.4116  0.4266 -0.5504
  459TIP3    H222869   4.055   5.836   1.890  0.2212  0.8244  0.8765
  460TIP3   OH222870   1.415   1.516   0.389  0.4079  0.1822 -0.4856
  460TIP3    H122871   1.361   1.529   0.467  2.4875  0.0285  1.0673
  460TIP3    H222872   1.492   1.572   0.402  1.2550 -0.5467 -1.9778
  461TIP3   OH222873   3.892   3.485   4.945 -0.3299 -0.3131 -0.7197
  461TIP3    H122874   3.954   3.471   4.873 -1.2814 -1.7505 -1.2962
  461TIP3    H222875   3.813   3.437   4.919 -1.9227  1.8951 -0.2838
  462TIP3   OH222876   5.744   5.389  16.116 -0.5061 -0.5147  0.1419
  462TIP3    H122877   5.773   5.476  16.086 -0.8021  0.5998  2.7570
  462TIP3    H222878   5.825   5.346  16.143 -0.3823 -1.0093 -0.9648
  463TIP3   OH222879   4.413   4.169  11.516  0.0717 -0.1422  0.2881
  463TIP3    H122880   4.392   4.256  11.483 -2.2321 -0.3514  1.0501
  463TIP3    H222881   4.334   4.117  11.500  0.4204 -1.3782  2.1792
  464TIP3   OH222882   1.103   1.967   2.637 -0.3557  0.1959 -0.5484
  464TIP3    H122883   1.073   1.926   2.556 -3.3145  0.4743  0.2931
  464TIP3    H222884   1.172   1.909   2.669 -0.8145 -1.2432 -2.0161
  465TIP3   OH222885   6.424   5.744  12.481  0.3636 -0.2096  0.1162
  465TIP3    H122886   6.447   5.667  12.429  0.2826 -0.6839  0.7680
  465TIP3    H222887   6.477   5.815  12.444  2.3398 -1.1083  1.0682
  466TIP3   OH222888   1.096   3.342   0.752 -0.0658 -0.0730 -0.8581
  466TIP3    H122889   1.191   3.351   0.757  0.0339 -1.5260  0.1902
  466TIP3    H222890   1.063   3.430   0.773  0.9995 -0.1231  1.2635
  467TIP3   OH222891   2.454   1.263   5.994 -0.5440 -0.5251 -0.4226
  467TIP3    H122892   2.459   1.354   5.965  0.2398 -0.5451 -0.3712
  467TIP3    H222893   2.531   1.251   6.050  0.8072 -1.9229 -2.4422
  468TIP3   OH222894   3.227   3.611  15.668 -0.1438 -0.6028 -0.3712
  468TIP3    H122895   3.318   3.636  15.654 -0.1343 -0.6382 -0.3753
  468TIP3    H222896   3.194   3.589  15.581 -0.2368 -0.3240 -0.4074
  469TIP3   OH222897   3.919   0.921   3.866 -0.9662 -0.8289 -0.0414
  469TIP3    H122898   3.864   0.996   3.890 -0.8249 -0.0077 -2.0855
  469TIP3    H222899   3.876   0.846   3.907 -1.2175  0.3094  1.9061
  470TIP3   OH222900   3.984   3.569   2.310 -0.1859 -0.1229  0.5616
  470TIP3    H122901   4.015   3.507   2.244 -1.1818 -0.1689  0.1107
  470TIP3    H222902   3.890   3.550   2.318 -0.3505  0.8096  0.9882
  471TIP3   OH222903   0.873   0.878  14.208 -0.6555 -0.1512 -0.1040
  471TIP3    H122904   0.812   0.878  14.282 -1.6847 -0.8295 -0.9397
  471TIP3    H222905   0.822   0.913  14.135 -0.2195 -1.2221 -0.9415
  472TIP3   OH222906   6.463   5.017  15.593  0.3274 -0.3477 -0.8750
  472TIP3    H122907   6.373   5.025  15.560 -0.6663 -1.8117  1.2319
  472TIP3    H222908   6.468   5.081  15.664  1.6154  0.9985 -2.0961
  473TIP3   OH222909   2.871   0.362   5.560  0.5641 -0.4247  0.1874
  473TIP3    H122910   2.958   0.338   5.592  0.3646 -0.5943  0.6014
  473TIP3    H222911   2.878   0.454   5.536  0.6264 -0.2092  1.0179
  474TIP3   OH222912   5.920   4.925  14.418 -0.2922  0.8139  0.6996
  474TIP3    H122913   5.939   4.984  14.490  0.0063  1.0242  0.4508
  474TIP3    H222914   5.993   4.862  14.418 -1.0196 -0.0607  1.4741
  475TIP3   OH222915   2.806   6.612   6.202  0.3368 -0.3769  0.8019
  475TIP3    H122916   2.773   6.698   6.227  0.2428  0.2531 -1.3358
  475TIP3    H222917   2.763   6.593   6.119  1.3667 -1.8995  0.5890
  476TIP3   OH222918   4.606   2.875  13.315  0.3071 -0.5611  0.4949
  476TIP3    H122919   4.572   2.942  13.375  3.0181  2.1504 -0.6995
  476TIP3    H222920   4.528   2.835  13.277 -1.4702  0.6818  2.5894
  477TIP3   OH222921   3.483   4.056   5.480 -0.3277  0.0973 -0.7375
  477TIP3    H122922   3.500   4.073   5.572 -1.8716  0.6350 -0.5341
  477TIP3    H222923   3.523   4.130   5.433 -0.9359  0.6606 -0.3745
  478TIP3   OH222924   5.299   0.187   2.149 -0.1835  0.0760 -0.0886
  478TIP3    H122925   5.381   0.223   2.183 -0.2874  0.4332 -0.2189
  478TIP3    H222926   5.264   0.255   2.093 -2.1264  1.2129  2.3535
  479TIP3   OH222927   0.977   6.797  14.181 -0.5224 -0.3301 -0.2281
  479TIP3    H122928   1.024   6.770  14.260 -0.0151 -1.3095 -0.8504
  479TIP3    H222929   0.972   6.718  14.127  0.0374  0.5527 -1.6274
  480TIP3   OH222930   6.058   5.804   4.990 -0.0513  0.5009  0.6156
  480TIP3    H122931   6.074   5.745   5.064 -1.5647  0.0222  0.5948
  480TIP3    H222932   6.022   5.883   5.030 -1.5264 -0.0179  0.3742
  481TIP3   OH222933   1.596   5.639  16.474  0.2029 -0.7801  0.2151
  481TIP3    H122934   1.671   5.695  16.494 -0.4103 -0.3843  1.4809
  481TIP3    H222935   1.526   5.669  16.533 -0.3775 -2.3920  0.4137
  482TIP3   OH222936   5.523   3.988  12.505  0.2150  0.2347  0.2383
  482TIP3    H122937   5.595   4.024  12.453  0.1856  0.4665  0.3571
  482TIP3    H222938   5.559   3.978  12.593  0.8332 -1.8646 -0.1999
  483TIP3   OH222939   3.955   5.071   0.263  0.1078 -0.6941  0.0333
  483TIP3    H122940   3.978   5.110   0.348  1.6468 -0.3231 -0.5166
  483TIP3    H222941   3.906   5.139   0.217 -2.1580 -1.4376  1.1635
  484TIP3   OH222942   1.554   1.991   1.583 -0.1593  0.3476 -0.1177
  484TIP3    H122943   1.536   2.069   1.531 -0.0739  0.5266  0.1178
  484TIP3    H222944   1.563   1.921   1.519 -2.2981  0.1105 -0.2330
  485TIP3   OH222945   0.907   0.687   3.764 -0.1040  0.4341 -0.4449
  485TIP3    H122946   0.819   0.688   3.802  0.7479  0.4426  1.6731
  485TIP3    H222947   0.962   0.724   3.832  1.7436 -0.7534 -1.2388
  486TIP3   OH222948   3.053   1.303  17.181  0.5852  0.0960  0.1269
  486TIP3    H122949   3.129   1.263  17.223 -0.5944 -1.6862  0.6679
  486TIP3    H222950   3.029   1.376  17.239  1.9288  0.7870 -0.1374
  487TIP3   OH222951   2.637   0.213   4.997 -0.2052  0.3890  0.2368
  487TIP3    H122952   2.634   0.175   5.085  0.8392 -0.9055 -0.2533
  487TIP3    H222953   2.579   0.289   5.002 -1.3138 -0.4958  1.6304
  488TIP3   OH222954   2.188   2.615   1.431 -0.0819  0.2283  0.0350
  488TIP3    H122955   2.160   2.704   1.451 -1.5650 -0.1093 -0.3480
  488TIP3    H222956   2.127   2.559   1.481  0.5843 -0.5687 -0.0226
  489TIP3   OH222957   6.037   1.566  11.420 -0.2305 -0.2297  0.1517
  489TIP3    H122958   6.060   1.509  11.493 -2.4930 -1.1877  0.2259
  489TIP3    H222959   6.041   1.509  11.343  2.0322  0.7447 -0.5420
  490TIP3   OH222960   5.739   5.713   0.644 -0.1213  0.7242 -1.0042
  490TIP3    H122961   5.748   5.800   0.605  0.3997  1.1618  0.0524
  490TIP3    H222962   5.775   5.722   0.732 -0.2738 -0.5087 -0.7930
  491TIP3   OH222963   5.865   2.914  15.529  0.1480 -0.4009  0.2154
  491TIP3    H122964   5.861   2.931  15.435 -0.0929  0.7459  0.4154
  491TIP3    H222965   5.924   2.981  15.563 -0.0762 -0.5642  0.9421
  492TIP3   OH222966   4.395   0.969  14.420 -0.0984  0.2427  0.0614
  492TIP3    H122967   4.315   0.994  14.374 -0.1684 -0.6409 -0.3132
  492TIP3    H222968   4.364   0.934  14.504 -0.1554 -0.5510 -0.2769
  493TIP3   OH222969   0.654   0.730   3.209  0.0900  0.1937  0.4515
  493TIP3    H122970   0.689   0.664   3.268  0.9892  0.6993  0.5033
  493TIP3    H222971   0.679   0.701   3.121 -0.1090  0.1165  0.4192
  494TIP3   OH222972   4.310   3.189  15.677  0.3769 -0.1346 -0.0301
  494TIP3    H122973   4.257   3.258  15.637  0.7010  0.3608  0.3923
  494TIP3    H222974   4.399   3.209  15.650  0.5161 -0.1730  0.4078
  495TIP3   OH222975   4.236   3.035   5.919  0.3002 -0.0324 -0.1517
  495TIP3    H122976   4.178   3.111   5.908  1.4000  0.5751 -2.2752
  495TIP3    H222977   4.286   3.055   5.998  0.5636  1.4908 -0.6602
  496TIP3   OH222978   3.035   5.956  14.524 -0.4183 -0.9673  0.5966
  496TIP3    H122979   3.121   5.997  14.519  0.2822 -2.4424  0.0747
  496TIP3    H222980   3.045   5.885  14.588 -1.0472 -1.5890  0.0214
  497TIP3   OH222981   5.908   1.269   3.399  0.4051 -0.7424  0.1350
  497TIP3    H122982   5.984   1.216   3.377  0.3664 -1.2751  1.2451
  497TIP3    H222983   5.892   1.321   3.320  2.3698 -0.0581  0.1352
  498TIP3   OH222984   6.273   1.085  14.912 -0.5313  0.7511 -0.2277
  498TIP3    H122985   6.355   1.052  14.877 -0.3626  0.4066  0.4819
  498TIP3    H222986   6.289   1.095  15.006 -1.1459  1.1429 -0.1596
  499TIP3   OH222987   0.571   5.234  17.021 -0.3011 -0.1614  1.1448
  499TIP3    H122988   0.536   5.190  16.943  0.6649  1.1099 -0.0572
  499TIP3    H222989   0.501   5.291  17.051 -0.0581  0.7585  0.0387
  500TIP3   OH222990   4.301   1.998  16.516 -0.0430 -0.1866  0.0319
  500TIP3    H122991   4.228   1.960  16.565  0.0535 -2.0943 -1.2058
  500TIP3    H222992   4.322   2.079  16.563 -2.5766  0.1491  0.7477
  501TIP3   OH222993   0.068   3.012   1.253  0.0895  0.4106 -0.8968
  501TIP3    H122994   0.023   3.088   1.292  0.3618  0.2177 -0.1977
  501TIP3    H222995   0.149   3.004   1.302 -0.1536 -0.6261 -0.6435
  502TIP3   OH222996   3.448   3.655  13.506  0.0878 -0.1478  0.1697
  502TIP3    H122997   3.432   3.575  13.557 -1.0778  0.9956  1.6946
  502TIP3    H222998   3.398   3.723  13.552  0.0747  1.2287 -1.7632
  503TIP3   OH222999   0.820   5.733   1.296 -0.3181 -0.3350 -0.0425
  503TIP3    H123000   0.902   5.708   1.254 -0.1027 -1.2224  0.8827
  503TIP3    H223001   0.795   5.657   1.348 -0.1453  0.9647  2.0803
  504TIP3   OH223002   0.230   0.174   0.296 -0.2364 -0.3824 -0.9088
  504TIP3    H123003   0.225   0.176   0.391  0.5879 -2.9618 -0.7079
  504TIP3    H223004   0.141   0.152   0.267 -0.4069  0.0439 -0.7032
  505TIP3   OH223005   1.351   5.533   1.920  0.2291  0.8089 -0.4845
  505TIP3    H123006   1.261   5.555   1.896  0.5888  2.2672 -0.5896
  505TIP3    H223007   1.377   5.467   1.856 -0.8544  0.1277 -0.2593
  506TIP3   OH223008   3.274   2.426  13.577  0.5070  0.1432 -0.6842
  506TIP3    H123009   3.360   2.450  13.611 -0.3348  1.3280  0.7237
  506TIP3    H223010   3.231   2.510  13.558 -1.9367 -0.1124  2.8084
  507TIP3   OH223011   5.411   4.287   4.059  0.6423 -0.1767 -0.1154
  507TIP3    H123012   5.330   4.237   4.059  0.3929  0.2215 -0.1346
  507TIP3    H223013   5.424   4.312   4.151 -0.2306  1.2998 -0.3580
  508TIP3   OH223014   1.408   3.844   1.633 -0.0392 -0.1575 -0.3562
  508TIP3    H123015   1.450   3.907   1.576  1.5412 -0.8660 -0.0432
  508TIP3    H223016   1.456   3.850   1.716 -0.2169 -1.3612 -0.1361
  509TIP3   OH223017   0.570   1.039  14.632 -0.4266  0.1632 -0.2984
  509TIP3    H123018   0.585   1.100  14.560  1.4496  0.1202  0.0142
  509TIP3    H223019   0.512   0.972  14.595  0.8176 -0.0768 -1.9238
  510TIP3   OH223020   1.544   1.022  11.851 -0.1202 -0.5952 -0.0266
  510TIP3    H123021   1.600   0.946  11.837  0.7653  0.0374 -0.0322
  510TIP3    H223022   1.588   1.072  11.919  0.5845  1.0696 -1.6028
  511TIP3   OH223023   0.154   2.578  12.854 -0.6144 -0.0699 -0.2111
  511TIP3    H123024   0.101   2.617  12.923 -0.9898  0.3316 -0.7164
  511TIP3    H223025   0.094   2.570  12.779 -0.7819 -2.3085  0.0830
  512TIP3   OH223026   3.732   1.424   0.313 -0.2181 -0.2521  0.0527
  512TIP3    H123027   3.777   1.421   0.229  1.6770 -0.3635  1.0402
  512TIP3    H223028   3.658   1.484   0.298  0.6453  0.4962 -1.4186
  513TIP3   OH223029   0.377   1.743  14.479 -0.5808 -0.3555  0.7556
  513TIP3    H123030   0.364   1.655  14.514 -3.4901  0.0791  1.0756
  513TIP3    H223031   0.425   1.730  14.398  0.8405 -1.9952  1.7983
  514TIP3   OH223032   1.898   3.724  11.481  0.6825  0.1036 -0.1952
  514TIP3    H123033   1.871   3.639  11.515  2.4630 -0.7387 -0.7890
  514TIP3    H223034   1.986   3.710  11.447  0.6158  1.9341 -1.2741
  515TIP3   OH223035   3.144   4.055   1.391  0.0534  0.5020  0.1096
  515TIP3    H123036   3.225   4.057   1.443  0.3964  0.5268 -0.4100
  515TIP3    H223037   3.139   4.142   1.352  0.7483 -0.0429 -1.2862
  516TIP3   OH223038   3.437   0.010   1.163  0.5567  0.3738  0.3732
  516TIP3    H123039   3.455  -0.063   1.222 -0.3241  1.0524  1.5210
  516TIP3    H223040   3.516   0.064   1.168 -0.4253  1.7478  2.9972
  517TIP3   OH223041   6.221   1.357  13.915 -0.5834 -0.3136  0.0369
  517TIP3    H123042   6.288   1.371  13.848 -1.0125 -2.5057 -0.9466
  517TIP3    H223043   6.152   1.307  13.870 -1.7059 -0.3211  1.6704
  518TIP3   OH223044   3.100   5.413  13.416  0.3289  0.0445  0.6529
  518TIP3    H123045   3.061   5.417  13.503 -0.5823 -1.5873  0.3478
  518TIP3    H223046   3.032   5.375  13.360  1.8463 -1.5862 -0.1782
  519TIP3   OH223047   6.718   1.760  15.812 -0.2939  0.1226  0.4034
  519TIP3    H123048   6.702   1.701  15.738 -0.4754 -1.1661  1.4253
  519TIP3    H223049   6.749   1.841  15.772 -2.1206  0.1046 -1.1844
  520TIP3   OH223050   0.602   5.749  16.337 -0.4298 -0.3282  0.0834
  520TIP3    H123051   0.577   5.673  16.389  0.3657  0.2496  1.3594
  520TIP3    H223052   0.591   5.823  16.396 -0.7429  0.5089 -0.9891
  521TIP3   OH223053   0.441   3.780  13.022  0.6519  0.1226  0.5575
  521TIP3    H123054   0.445   3.871  13.054  0.5611  0.1728  0.4295
  521TIP3    H223055   0.406   3.788  12.933  0.2000 -0.0816  0.7187
  522TIP3   OH223056   4.050   5.258  13.843  0.6722  0.7915 -0.6140
  522TIP3    H123057   4.089   5.341  13.815 -0.9475  1.2027 -1.8084
  522TIP3    H223058   4.055   5.260  13.939  0.1971  2.4982 -0.6060
  523TIP3   OH223059   0.187   3.588   2.090  0.2590 -0.6250 -0.6254
  523TIP3    H123060   0.231   3.634   2.019  1.5413 -0.7670  0.0435
  523TIP3    H223061   0.254   3.578   2.158 -1.0412 -0.0745  0.8102
  524TIP3   OH223062   2.871   4.051  17.185  0.0334 -0.4167  0.2345
  524TIP3    H123063   2.936   4.029  17.118 -0.6432  0.3014 -0.6687
  524TIP3    H223064   2.909   4.125  17.232 -1.2019  1.7867 -2.0028
  525TIP3   OH223065   3.280   1.170   1.995  0.0847  0.4426 -0.1156
  525TIP3    H123066   3.276   1.249   1.941  0.7583  1.5207  1.3379
  525TIP3    H223067   3.301   1.100   1.933 -1.2632  1.2529 -1.5572
  526TIP3   OH223068   4.602   6.513   3.891  0.3080  0.1758 -0.3487
  526TIP3    H123069   4.696   6.519   3.871 -0.0080  0.5599 -1.8676
  526TIP3    H223070   4.583   6.595   3.938  0.3108  1.1822 -2.0298
  527TIP3   OH223071   4.749   1.349  12.443  0.2074 -0.5036  0.2846
  527TIP3    H123072   4.699   1.308  12.372 -2.9168  1.1799  1.3530
  527TIP3    H223073   4.710   1.316  12.523 -0.8046  2.5001  1.1695
  528TIP3   OH223074   0.927   5.666   0.030 -0.0129 -0.3501 -0.5413
  528TIP3    H123075   0.933   5.757   0.001  1.6964 -0.0330  0.6644
  528TIP3    H223076   0.843   5.635  -0.004 -0.4426  1.5488 -1.3016
  529TIP3   OH223077   6.561   6.678   0.168 -0.4543 -0.0890 -0.1182
  529TIP3    H123078   6.559   6.584   0.149 -0.9401 -0.1131  0.0276
  529TIP3    H223079   6.549   6.720   0.083  4.0219 -0.0374 -0.9302
  530TIP3   OH223080   3.462   6.172   2.744 -0.0610  0.1685 -0.0286
  530TIP3    H123081   3.526   6.101   2.740 -0.7978 -0.5012 -0.0666
  530TIP3    H223082   3.482   6.217   2.826  0.6496  0.1530 -0.1859
  531TIP3   OH223083   5.690   4.533  10.688 -0.5306  0.8029 -0.1918
  531TIP3    H123084   5.738   4.456  10.658  0.3440  0.6773  1.4383
  531TIP3    H223085   5.713   4.601  10.624  0.4167  0.2773 -0.4362
  532TIP3   OH223086   3.378   0.998   5.546 -0.4207 -0.0163 -0.3818
  532TIP3    H123087   3.381   1.064   5.477  1.1893  1.3086  0.8856
  532TIP3    H223088   3.286   0.996   5.573 -0.4262  2.1369 -0.0719
  533TIP3   OH223089   5.977   2.604   0.785  0.0806  0.7874  0.1690
  533TIP3    H123090   5.968   2.634   0.875  0.4075  0.5567  0.2761
  533TIP3    H223091   5.954   2.512   0.788  2.8000  0.0484  0.5256
  534TIP3   OH223092   1.888   5.625   0.419  0.3286  0.2962  0.0901
  534TIP3    H123093   1.870   5.532   0.433  0.0103  0.3756  0.2032
  534TIP3    H223094   1.835   5.671   0.485  0.2160  0.5742 -0.1891
  535TIP3   OH223095   3.398   5.400   4.902  0.4054  0.1105  0.0547
  535TIP3    H123096   3.480   5.434   4.940  0.9244  1.0431 -1.8002
  535TIP3    H223097   3.340   5.475   4.899 -0.6602 -0.6079  1.5950
  536TIP3   OH223098   2.175   3.261   2.931 -0.4656 -0.5348  0.2581
  536TIP3    H123099   2.164   3.176   2.975 -0.9323 -1.0301 -0.7780
  536TIP3    H223100   2.115   3.257   2.856 -0.1748  0.5442 -0.0456
  537TIP3   OH223101   3.373   0.244   0.473  0.7729 -0.3382 -0.3225
  537TIP3    H123102   3.438   0.304   0.435  1.7477 -1.4133 -0.4278
  537TIP3    H223103   3.338   0.196   0.398 -0.1204  0.1926 -0.2562
  538TIP3   OH223104   3.004   5.267   0.064 -0.2355  0.4959  0.6210
  538TIP3    H123105   2.968   5.339   0.115  1.7436  2.1602 -0.1487
  538TIP3    H223106   3.070   5.227   0.121 -0.2413  0.2947  0.4888
  539TIP3   OH223107   5.368   6.726   0.075  0.1960 -0.0282  1.0283
  539TIP3    H123108   5.273   6.729   0.073  0.2283  1.8573  0.6303
  539TIP3    H223109   5.390   6.701   0.165 -0.6520  0.2959  1.3306
  540TIP3   OH223110   6.785   6.238   2.005 -0.6731 -0.1400  0.5512
  540TIP3    H123111   6.698   6.255   2.043 -0.8938  0.7593 -0.3124
  540TIP3    H223112   6.823   6.325   1.994 -0.0663 -0.4724 -0.0152
  541TIP3   OH223113   3.868   6.184   3.968  0.7646  0.3118 -0.0502
  541TIP3    H123114   3.931   6.210   4.036  0.7950 -0.4135  0.2087
  541TIP3    H223115   3.888   6.092   3.951  0.1626  0.2419 -0.3929
  542TIP3   OH223116   0.274   0.460   0.246 -0.5592 -0.3115  0.3667
  542TIP3    H123117   0.222   0.379   0.253  0.8073 -1.1857  0.7961
  542TIP3    H223118   0.305   0.477   0.335  1.7109 -1.0889 -0.2103
  543TIP3   OH223119   4.587   5.772   4.749  0.0274 -0.3423  0.6526
  543TIP3    H123120   4.613   5.812   4.832 -0.0755 -1.0038  1.0138
  543TIP3    H223121   4.660   5.792   4.689  0.3987 -0.4046  1.0790
  544TIP3   OH223122   0.185   3.853  15.040 -0.1432  0.0728  0.5502
  544TIP3    H123123   0.238   3.779  15.008 -0.4694 -0.5521  1.4186
  544TIP3    H223124   0.229   3.930  15.006 -0.7301 -0.5442 -1.8412
  545TIP3   OH223125   2.761   6.512   5.196  0.5673 -0.3983  0.0067
  545TIP3    H123126   2.674   6.475   5.183  0.5680 -0.2275 -0.5198
  545TIP3    H223127   2.777   6.505   5.290 -0.2914  0.2021  0.2004
  546TIP3   OH223128   5.647   3.149   3.885  0.3944 -0.0191 -0.0220
  546TIP3    H123129   5.659   3.197   3.802  0.9712 -0.7328 -0.3623
  546TIP3    H223130   5.734   3.149   3.925 -0.1201  1.3498  1.1764
  547TIP3   OH223131   3.820   0.046  13.027 -0.0976 -0.2320  0.0146
  547TIP3    H123132   3.735   0.023  12.989 -0.4467 -2.3962  1.8812
  547TIP3    H223133   3.801   0.116  13.089 -0.4687 -0.3796  0.0717
  548TIP3   OH223134   4.568   0.473   5.975 -1.0534 -0.7486 -0.1831
  548TIP3    H123135   4.479   0.509   5.969 -1.0565 -0.4621  1.2324
  548TIP3    H223136   4.623   0.548   5.995 -0.1904 -0.6282 -2.6460
  549TIP3   OH223137   4.736   5.256   2.023  0.3995  0.1981  0.1608
  549TIP3    H123138   4.798   5.296   1.962 -0.9681  0.5801 -1.0189
  549TIP3    H223139   4.789   5.193   2.072  1.8861  1.0742 -0.2409
  550TIP3   OH223140   0.183   6.176  12.783  0.2280  0.0855  0.0413
  550TIP3    H123141   0.225   6.145  12.703  1.1397  1.1707  0.0553
  550TIP3    H223142   0.178   6.099  12.840  0.6231 -0.4473 -0.6320
  551TIP3   OH223143   0.943   0.647   5.714  0.4397  0.0311  0.1451
  551TIP3    H123144   0.914   0.644   5.806  0.9852 -3.1852  0.3561
  551TIP3    H223145   0.894   0.576   5.672 -0.0501  1.6502 -2.2166
  552TIP3   OH223146   6.341   4.610   5.633  0.1127  0.0987 -0.2388
  552TIP3    H123147   6.396   4.534   5.655  0.7184  0.4639 -0.4586
  552TIP3    H223148   6.261   4.597   5.684  0.5557 -0.2509  0.3877
  553TIP3   OH223149   1.304   0.558  13.780  0.3405  0.5058 -0.1464
  553TIP3    H123150   1.209   0.561  13.783  0.3864  2.1273  2.0355
  553TIP3    H223151   1.327   0.618  13.708 -0.2696  0.2702 -0.5428
  554TIP3   OH223152   2.426   6.009  17.085  0.3402 -0.7786 -0.4413
  554TIP3    H123153   2.492   5.940  17.080 -0.4990 -1.7896  1.4528
  554TIP3    H223154   2.476   6.090  17.097  1.2760 -1.3348 -0.5597
  555TIP3   OH223155   4.335   3.898   0.315 -0.5855  0.0210  0.3697
  555TIP3    H123156   4.379   3.878   0.398  0.6171 -1.6000 -0.5940
  555TIP3    H223157   4.242   3.901   0.337 -0.3374 -0.9528  1.6713
  556TIP3   OH223158   0.752   5.634   0.312  0.3893  0.0028  0.7064
  556TIP3    H123159   0.739   5.725   0.335  1.5934  0.6273 -0.8682
  556TIP3    H223160   0.830   5.634   0.256 -0.9417 -1.6524 -1.3072
  557TIP3   OH223161   4.798   4.151  13.394  0.2666  0.1036  0.6446
  557TIP3    H123162   4.879   4.183  13.432 -0.3102  1.4118  0.8513
  557TIP3    H223163   4.749   4.115  13.468  0.9941 -1.5119  0.3836
  558TIP3   OH223164   3.604   1.042  11.012 -0.6663 -0.3550  0.1855
  558TIP3    H123165   3.672   0.994  10.965  1.1856  1.3773  0.9092
  558TIP3    H223166   3.596   0.996  11.096 -0.8304 -0.9188 -0.1346
  559TIP3   OH223167   2.131   4.088  11.533  0.4406 -0.2311 -0.0506
  559TIP3    H123168   2.222   4.096  11.562 -0.4519 -0.8912  3.4442
  559TIP3    H223169   2.091   4.172  11.559 -0.1764 -0.3583 -0.5709
  560TIP3   OH223170   5.339   2.782  11.231  0.3198  0.3051  0.1633
  560TIP3    H123171   5.281   2.800  11.305  1.0442  2.8326  0.1979
  560TIP3    H223172   5.423   2.820  11.256  1.8276 -2.4151 -0.2972
  561TIP3   OH223173   5.281   2.463  15.673  0.4803  0.3054 -0.0823
  561TIP3    H123174   5.274   2.474  15.768  2.0988  1.2242 -0.0201
  561TIP3    H223175   5.195   2.433  15.645 -1.1256  3.1950  1.2622
  562TIP3   OH223176   6.379   5.723  13.626 -0.0285 -0.4008 -0.2320
  562TIP3    H123177   6.321   5.729  13.550 -1.5152 -1.7408  0.7176
  562TIP3    H223178   6.468   5.725  13.589 -0.5274  3.0509 -1.6345
  563TIP3   OH223179   6.212   1.657  10.251 -0.0898  0.3939 -0.0768
  563TIP3    H123180   6.290   1.675  10.303  0.3164 -1.3153 -0.0289
  563TIP3    H223181   6.141   1.700  10.299  0.8998  2.8102 -0.6319
  564TIP3   OH223182   5.733   2.061   4.510 -0.2677 -0.3092 -0.0149
  564TIP3    H123183   5.755   2.152   4.529  0.9143 -0.6444  0.3095
  564TIP3    H223184   5.781   2.041   4.430 -1.3640 -0.3440 -0.6737
  565TIP3   OH223185   4.984   4.374  12.677  0.3949 -0.1994 -0.2821
  565TIP3    H123186   4.905   4.422  12.651  0.6941 -0.1261 -1.0870
  565TIP3    H223187   4.990   4.302  12.614  2.7940  1.6874 -2.4272
  566TIP3   OH223188   6.352   5.049   1.327  0.6220  0.8041 -0.4626
  566TIP3    H123189   6.293   4.975   1.336 -1.0644  2.1306 -0.0869
  566TIP3    H223190   6.431   5.013   1.287 -0.2488 -1.1159 -0.5232
  567TIP3   OH223191   3.011   5.426   5.092  0.4415  0.0009 -0.4298
  567TIP3    H123192   3.086   5.411   5.149  1.4380  2.2136 -1.0751
  567TIP3    H223193   2.936   5.392   5.142  1.7763 -1.9797  0.3443
  568TIP3   OH223194   0.755   0.013   1.818  0.5092  0.2170  0.1833
  568TIP3    H123195   0.703  -0.017   1.744  0.6085  0.1432  0.1446
  568TIP3    H223196   0.838  -0.034   1.811  1.2101  1.5163 -0.6710
  569TIP3   OH223197   4.173   1.950   4.690 -0.2680 -0.5768  0.3898
  569TIP3    H123198   4.196   1.931   4.599  0.5820 -1.4199  0.7671
  569TIP3    H223199   4.222   2.029   4.712 -1.5303  0.4319 -0.2820
  570TIP3   OH223200   6.301   4.341  14.889 -0.6237 -0.3464 -0.2464
  570TIP3    H123201   6.393   4.319  14.900 -1.0139 -1.3079  1.5981
  570TIP3    H223202   6.300   4.435  14.869  0.7504 -0.3573 -0.4108
  571TIP3   OH223203   2.949   4.061   3.041 -0.6472 -0.5633  0.0230
  571TIP3    H123204   2.902   3.979   3.060 -1.0866 -0.4299 -0.4844
  571TIP3    H223205   3.007   4.039   2.969 -0.9842 -0.3527 -0.3158
  572TIP3   OH223206   4.031   1.695   6.207 -0.0375 -0.3235 -0.7272
  572TIP3    H123207   4.039   1.661   6.296  1.1491 -0.1195 -0.7391
  572TIP3    H223208   4.005   1.786   6.218  2.2062  0.3442 -0.4728
  573TIP3   OH223209   4.435   3.581   3.773 -0.2318  0.2770  0.3090
  573TIP3    H123210   4.358   3.598   3.829 -1.2339 -0.8701 -0.6693
  573TIP3    H223211   4.401   3.529   3.700  1.5923 -0.8045  0.1613
  574TIP3   OH223212   6.184   1.843  10.468 -0.0227 -0.4484 -0.3507
  574TIP3    H123213   6.262   1.834  10.523  0.2778 -0.0448 -0.7011
  574TIP3    H223214   6.150   1.930  10.489 -1.2212 -1.1817  0.8676
  575TIP3   OH223215   5.627   6.126   4.351 -0.4745  0.2396 -0.1378
  575TIP3    H123216   5.557   6.097   4.409  1.0442 -1.3258  1.0052
  575TIP3    H223217   5.702   6.141   4.409  1.2452 -1.8000 -1.6856
  576TIP3   OH223218   1.226   2.710   0.497 -0.1153 -0.5249 -0.5045
  576TIP3    H123219   1.319   2.726   0.482 -0.2405  1.0935  0.2881
  576TIP3    H223220   1.181   2.750   0.422 -0.1978 -1.1015 -0.7697
  577TIP3   OH223221   6.463   0.017   2.976 -0.5816  0.6351 -0.1203
  577TIP3    H123222   6.375   0.002   3.009 -1.2912  0.5620 -1.9244
  577TIP3    H223223   6.474  -0.049   2.907  1.0744  0.3385  0.3806
  578TIP3   OH223224   3.505   5.894  13.827 -0.2434  0.2070  0.1422
  578TIP3    H123225   3.423   5.848  13.808 -0.5345  0.1911  1.3244
  578TIP3    H223226   3.508   5.965  13.764 -1.4009  0.4657  0.3490
  579TIP3   OH223227   5.326   1.879   2.543 -0.0378 -0.1235 -0.7767
  579TIP3    H123228   5.411   1.863   2.585 -0.6181 -1.4180 -0.0214
  579TIP3    H223229   5.262   1.847   2.607 -1.0526 -0.0843 -1.7476
  580TIP3   OH223230   3.894   3.089  11.711 -0.1964 -0.2196  0.1786
  580TIP3    H123231   3.807   3.063  11.741 -0.0722  1.4999  2.2695
  580TIP3    H223232   3.881   3.115  11.620 -2.2537  1.5573  0.9053
  581TIP3   OH223233   4.299   1.775   4.860 -0.2265 -0.3128 -0.2204
  581TIP3    H123234   4.329   1.705   4.801  0.3032 -0.2543 -0.0253
  581TIP3    H223235   4.243   1.830   4.806 -0.2986 -0.6450 -0.4885
  582TIP3   OH223236   3.505   4.554   2.849  0.4280  0.4991 -0.2746
  582TIP3    H123237   3.429   4.553   2.791  0.3117 -0.9530 -0.1441
  582TIP3    H223238   3.578   4.584   2.793  0.4378 -1.4081 -1.3763
  583TIP3   OH223239   0.195   2.299   5.799 -1.0929  0.1020  0.5536
  583TIP3    H123240   0.224   2.344   5.878 -0.0694  0.5157 -0.0351
  583TIP3    H223241   0.250   2.221   5.794  0.5844  1.3106 -1.0096
  584TIP3   OH223242   3.391   6.449   4.067 -0.0768 -0.0409  0.0819
  584TIP3    H123243   3.457   6.379   4.067 -1.1883 -1.1117  0.2231
  584TIP3    H223244   3.434   6.521   4.113  0.7436 -0.9695  0.8356
  585TIP3   OH223245   3.313   3.843   2.843 -0.8349  0.9594 -0.4624
  585TIP3    H123246   3.290   3.813   2.930  0.1725 -1.5657 -0.9888
  585TIP3    H223247   3.364   3.923   2.857  0.6346 -0.2408  1.3720
  586TIP3   OH223248   5.228   0.055  16.822 -0.4219 -0.7959 -0.1129
  586TIP3    H123249   5.299   0.102  16.779 -1.0113 -2.0187 -2.5751
  586TIP3    H223250   5.157   0.119  16.828 -0.1735 -0.4728 -0.5693
  587TIP3   OH223251   6.710   0.176  16.905  0.0497  0.2438  0.4231
  587TIP3    H123252   6.708   0.265  16.942  1.4789  0.3289  0.3335
  587TIP3    H223253   6.772   0.128  16.959  0.5633 -0.2263 -0.5462
  588TIP3   OH223254   4.970   5.096   5.626 -0.1725  0.2517  0.1173
  588TIP3    H123255   4.885   5.123   5.661 -0.4549  0.5057 -0.7507
  588TIP3    H223256   4.949   5.039   5.552  0.4086  0.4262 -0.1903
  589TIP3   OH223257   6.780   4.442  10.522  0.5216 -0.2695 -0.1587
  589TIP3    H123258   6.863   4.486  10.505  0.3883 -0.3083 -0.9881
  589TIP3    H223259   6.780   4.423  10.616  1.4250 -0.2220 -0.1469
  590TIP3   OH223260   5.995   6.614   2.277 -0.2179 -0.1185  0.0329
  590TIP3    H123261   6.037   6.567   2.206 -1.3995 -1.1500 -0.0283
  590TIP3    H223262   5.932   6.551   2.313 -0.4306  0.7560  1.2572
  591TIP3   OH223263   0.597   6.062  12.020 -0.0898  0.6274  0.2204
  591TIP3    H123264   0.642   6.143  11.994 -4.7449  2.4077 -3.7342
  591TIP3    H223265   0.510   6.090  12.047 -1.6028 -2.9600 -0.3401
  592TIP3   OH223266   6.620   2.698  13.139 -0.2791 -0.4951  0.9302
  592TIP3    H123267   6.559   2.766  13.112 -0.0137 -0.0234  1.5013
  592TIP3    H223268   6.577   2.653  13.211 -0.6060 -1.1749  0.3262
  593TIP3   OH223269   2.554   4.413   1.030  0.5617  0.2554 -0.1977
  593TIP3    H123270   2.503   4.407   0.949  0.1411 -1.3483  0.1520
  593TIP3    H223271   2.610   4.336   1.028 -0.4999 -0.6315  1.7127
  594TIP3   OH223272   6.398   0.699  10.508  0.0496 -0.4981  0.1747
  594TIP3    H123273   6.359   0.750  10.579 -0.5306 -0.4388 -0.1796
  594TIP3    H223274   6.492   0.700  10.526 -0.1821 -1.5942  1.6766
  595TIP3   OH223275   1.320   1.040  14.815 -0.1732  0.1479 -0.8916
  595TIP3    H123276   1.370   0.974  14.862  2.1395  1.3767 -1.5061
  595TIP3    H223277   1.266   1.082  14.883  0.7299 -0.2250  0.0828
  596TIP3   OH223278   6.493   2.010  12.771  0.4348 -0.7242  0.6863
  596TIP3    H123279   6.519   1.950  12.841  1.7228  1.1922  1.9250
  596TIP3    H223280   6.432   2.071  12.813 -0.2976 -0.7078 -0.3661
  597TIP3   OH223281   3.434   5.357   4.029 -0.1051  0.6560 -0.4507
  597TIP3    H123282   3.354   5.365   4.081  0.1856 -5.4760  1.8072
  597TIP3    H223283   3.505   5.378   4.091  0.1361  1.3709 -0.9613
  598TIP3   OH223284   5.165   1.429  16.941  0.2137 -0.2448 -0.6132
  598TIP3    H123285   5.210   1.486  16.878 -2.3506  0.2389 -2.1265
  598TIP3    H223286   5.119   1.489  17.000 -0.4162 -0.7252 -0.6056
  599TIP3   OH223287   5.136   1.135  14.897 -0.5743  0.1902 -0.1507
  599TIP3    H123288   5.110   1.184  14.975  0.1239  1.3493 -0.6309
  599TIP3    H223289   5.122   1.195  14.824  0.7421 -0.1373 -0.7075
  600TIP3   OH223290   3.833   5.985   2.974 -1.1799  0.4276 -0.4384
  600TIP3    H123291   3.806   5.996   2.883  0.9091  0.0503 -1.1542
  600TIP3    H223292   3.777   6.047   3.022 -1.2994  1.7666 -2.1596
  601TIP3   OH223293   3.331   2.733   1.389 -0.4678 -0.0768  0.0480
  601TIP3    H123294   3.322   2.674   1.464  0.7070 -0.9380 -0.4470
  601TIP3    H223295   3.426   2.745   1.380 -0.5418 -0.5025 -1.6712
  602TIP3   OH223296   0.942   5.479  16.811  0.2248  0.1729  0.5994
  602TIP3    H123297   1.028   5.467  16.849  0.8153 -2.6515 -1.2869
  602TIP3    H223298   0.881   5.446  16.877  0.8329 -0.3935  0.8896
  603TIP3   OH223299   3.085   2.591  14.745  0.1930 -0.1182  0.1761
  603TIP3    H123300   3.038   2.671  14.722 -0.9553 -1.3673 -2.1315
  603TIP3    H223301   3.017   2.531  14.776  0.8252 -0.7306  0.4162
  604TIP3   OH223302   0.120   4.610  15.521 -0.3744  0.6437  0.2321
  604TIP3    H123303   0.079   4.618  15.436 -0.7817 -0.6778  0.2969
  604TIP3    H223304   0.091   4.526  15.555  2.2642 -0.3096  0.3305
  605TIP3   OH223305   1.784   6.652  11.412 -0.0295 -0.2632  0.0022
  605TIP3    H123306   1.694   6.674  11.384 -0.0956  2.4636  1.9366
  605TIP3    H223307   1.773   6.590  11.483 -0.7089  2.0908  2.1107
  606TIP3   OH223308   6.335   6.784  11.632  1.0440 -0.2084  0.3504
  606TIP3    H123309   6.395   6.816  11.564  1.6085 -1.0742  0.4241
  606TIP3    H223310   6.318   6.860  11.687 -0.4192  0.8567 -1.4603
  607TIP3   OH223311   4.732   0.173  11.670 -0.7459  0.0431 -0.0652
  607TIP3    H123312   4.816   0.217  11.684 -1.7436  2.1930 -0.3352
  607TIP3    H223313   4.681   0.235  11.618 -3.3846 -0.0174  2.1883
  608TIP3   OH223314   4.329   6.573  15.892 -0.3676  0.3897  0.2100
  608TIP3    H123315   4.354   6.529  15.973 -1.0830 -1.1072 -0.3511
  608TIP3    H223316   4.234   6.583  15.898 -0.4344  0.2343 -0.4370
  609TIP3   OH223317   4.225   2.556  15.593 -0.2291 -0.3859  0.5900
  609TIP3    H123318   4.142   2.603  15.603  0.2940  0.6892  0.1062
  609TIP3    H223319   4.219   2.516  15.506  0.3552  0.9920 -0.1170
  610TIP3   OH223320   5.171   5.384   1.082  0.1614  0.0452 -0.1637
  610TIP3    H123321   5.152   5.386   1.176 -1.2705 -0.1190 -0.4308
  610TIP3    H223322   5.085   5.388   1.040  0.8230  3.0154 -1.5315
  611TIP3   OH223323   5.205   2.470   0.766  0.0775 -0.1289  0.1489
  611TIP3    H123324   5.186   2.548   0.715  0.2358 -0.4162 -0.3567
  611TIP3    H223325   5.177   2.492   0.855  1.4091  0.9980  0.3210
  612TIP3   OH223326   1.490   6.151   3.627  0.5538 -0.7831 -0.4106
  612TIP3    H123327   1.584   6.163   3.641  0.5882 -1.1652 -0.3224
  612TIP3    H223328   1.470   6.067   3.667  0.0175 -0.3235  0.3207
  613TIP3   OH223329   1.223   1.379   3.559 -0.3351 -0.5872  0.4152
  613TIP3    H123330   1.214   1.297   3.512  0.7768 -1.3824  1.5059
  613TIP3    H223331   1.316   1.400   3.551 -0.6330  0.6583  0.0299
  614TIP3   OH223332   5.307   5.504   3.879 -0.2351 -0.0798 -0.0413
  614TIP3    H123333   5.258   5.558   3.941 -1.6257 -0.1644 -1.0221
  614TIP3    H223334   5.392   5.546   3.872 -0.1017  0.0195  1.7821
  615TIP3   OH223335   0.877   0.178   6.504  0.6345 -0.2377  1.1673
  615TIP3    H123336   0.955   0.191   6.557  3.1735  0.5464 -2.3629
  615TIP3    H223337   0.817   0.247   6.532  1.4096 -0.4404  3.5370
  616TIP3   OH223338   1.506   3.030   3.926  0.2501  0.1011 -0.1590
  616TIP3    H123339   1.579   2.985   3.969 -0.6457 -0.0644  1.2681
  616TIP3    H223340   1.491   2.980   3.846  0.3625 -1.1372  0.5697
  617TIP3   OH223341   4.792   4.551   0.618  0.7816 -0.0190  0.5967
  617TIP3    H123342   4.720   4.614   0.612 -0.8740 -1.9011 -0.6898
  617TIP3    H223343   4.801   4.535   0.712 -1.8496 -1.1148  0.7510
  618TIP3   OH223344   2.385   0.777  13.928 -0.7147  0.0508 -0.3103
  618TIP3    H123345   2.448   0.828  13.979 -2.5292 -0.0402  2.1841
  618TIP3    H223346   2.426   0.690  13.919 -0.3989  0.0292  1.1488
  619TIP3   OH223347   4.612   1.703   0.397  0.4999  0.3277 -0.2030
  619TIP3    H123348   4.518   1.710   0.414  0.5713  1.0325 -0.0602
  619TIP3    H223349   4.638   1.621   0.439  0.1663  0.7199  0.7972
  620TIP3   OH223350   0.241   5.405  11.981 -0.3879 -0.0141  0.1007
  620TIP3    H123351   0.149   5.380  11.981 -1.2426  2.7823 -1.1447
  620TIP3    H223352   0.259   5.433  11.891  1.3105  0.7351  0.6268
  621TIP3   OH223353   2.163   0.841   4.009 -0.2327 -0.5431  0.2286
  621TIP3    H123354   2.149   0.783   3.934 -0.0684  0.1204 -0.3323
  621TIP3    H223355   2.188   0.925   3.970  0.1850 -0.2754  1.0449
  622TIP3   OH223356   5.921   6.361  13.917 -0.1000  0.3142 -0.8846
  622TIP3    H123357   5.859   6.332  13.850  0.8013 -0.8409 -1.2552
  622TIP3    H223358   5.959   6.280  13.951  1.5353  0.9968 -1.0018
  623TIP3   OH223359   2.126   3.282  13.967 -0.3167  0.1567  0.2613
  623TIP3    H123360   2.141   3.252  13.877  0.3194 -0.3434  0.5283
  623TIP3    H223361   2.040   3.324  13.964 -1.6660 -2.4597  0.0487
  624TIP3   OH223362   4.870   3.002   5.293  0.7125  0.5054  0.5926
  624TIP3    H123363   4.820   2.935   5.340  0.7182  0.4071  0.4572
  624TIP3    H223364   4.924   2.954   5.231  0.2966  0.6667  0.0960
  625TIP3   OH223365   1.093   5.859   4.756  0.0596 -0.1839  0.2248
  625TIP3    H123366   1.115   5.825   4.843 -0.0555  2.8672  1.5546
  625TIP3    H223367   1.007   5.898   4.767  0.7951  1.8303 -0.7462
  626TIP3   OH223368   4.861   4.310   0.505  0.4071 -0.1256 -0.0291
  626TIP3    H123369   4.809   4.268   0.573 -0.0420  1.2916  0.5469
  626TIP3    H223370   4.888   4.394   0.544 -0.0971  0.8488 -1.6845
  627TIP3   OH223371   1.738   2.648  10.421  0.2121  0.5415  0.1809
  627TIP3    H123372   1.718   2.561  10.456  1.5122  0.3210  0.4287
  627TIP3    H223373   1.817   2.674  10.468 -0.9746  2.5167  1.2107
  628TIP3   OH223374   3.840   6.269   2.095 -0.2849  0.4724  0.2773
  628TIP3    H123375   3.904   6.201   2.115 -0.6229  0.5079  1.5993
  628TIP3    H223376   3.892   6.349   2.085 -0.1380  0.6883  2.2559
  629TIP3   OH223377   5.343   6.675   3.107  0.3567 -0.0090  0.1370
  629TIP3    H123378   5.346   6.580   3.111  0.0195 -0.0325 -0.0950
  629TIP3    H223379   5.252   6.697   3.129  0.2855  0.2219 -0.3581
  630TIP3   OH223380   6.657   3.413   4.296  0.0487 -0.4585 -0.3314
  630TIP3    H123381   6.680   3.321   4.290  1.0142 -0.2312 -0.3361
  630TIP3    H223382   6.718   3.448   4.362  0.1590  0.3125 -0.8367
  631TIP3   OH223383   6.449   0.631   5.759 -0.6522 -0.0047  0.5739
  631TIP3    H123384   6.447   0.721   5.791 -0.4822 -0.1792  1.0887
  631TIP3    H223385   6.483   0.580   5.833 -0.0188 -0.3810  0.0314
  632TIP3   OH223386   0.170   4.571  11.701 -0.0308 -0.2866  0.2530
  632TIP3    H123387   0.165   4.575  11.606 -0.5660 -0.1546  0.2824
  632TIP3    H223388   0.209   4.486  11.720 -1.5522 -1.0919 -0.0530
  633TIP3   OH223389   1.920   2.689  14.683 -0.2098 -0.3973 -0.2902
  633TIP3    H123390   1.968   2.676  14.765 -3.3558  0.3812  1.8442
  633TIP3    H223391   1.914   2.784  14.673  1.3126 -0.4542 -2.2526
  634TIP3   OH223392   4.389   3.860   1.627  0.4207 -0.2293  0.3500
  634TIP3    H123393   4.304   3.903   1.614  0.2369 -0.7921 -0.3986
  634TIP3    H223394   4.402   3.809   1.547  1.6387  0.1217  0.3062
  635TIP3   OH223395   4.182   4.767  11.831 -0.1498  0.4669  0.0640
  635TIP3    H123396   4.194   4.710  11.755 -0.6479  1.1906 -0.5681
  635TIP3    H223397   4.161   4.707  11.903  1.6334 -0.3502 -0.0423
  636TIP3   OH223398   2.228   6.547   2.612 -0.0355 -0.0093 -0.5439
  636TIP3    H123399   2.196   6.577   2.698 -0.4162  1.4623 -1.1705
  636TIP3    H223400   2.198   6.456   2.606  0.3437 -0.2668  1.0405
  637TIP3   OH223401   2.365   2.072  10.499 -0.0977 -0.1026  0.0348
  637TIP3    H123402   2.311   2.126  10.441 -0.0945 -0.0147  0.1119
  637TIP3    H223403   2.304   2.007  10.534  0.1736 -0.9550 -1.0374
  638TIP3   OH223404   6.147   4.203  16.940 -0.3357 -1.2925  0.0301
  638TIP3    H123405   6.162   4.283  16.990  2.5226 -0.1305 -2.3907
  638TIP3    H223406   6.180   4.133  16.995 -3.8553 -1.1603  2.6550
  639TIP3   OH223407   5.025   6.540  11.458  0.7061 -0.0629  0.1354
  639TIP3    H123408   4.995   6.615  11.509 -0.3710 -0.6349  0.3680
  639TIP3    H223409   4.946   6.506  11.415  1.5037  0.1177 -1.5653
  640TIP3   OH223410   5.977   1.541  13.860  0.1501 -0.7293  0.1275
  640TIP3    H123411   5.886   1.570  13.854  0.1944 -0.7992 -1.3535
  640TIP3    H223412   5.976   1.453  13.823  0.5783 -1.3309  1.5074
  641TIP3   OH223413   1.455   0.723   1.730  0.4158  0.6675 -0.2684
  641TIP3    H123414   1.504   0.660   1.783 -1.0942 -0.4354 -0.1197
  641TIP3    H223415   1.386   0.755   1.788 -2.2881 -1.7553 -1.8379
  642TIP3   OH223416   1.633   0.909   2.362  0.1262  0.2242  0.3443
  642TIP3    H123417   1.617   1.001   2.339  1.0517  0.7338  1.6594
  642TIP3    H223418   1.547   0.877   2.391  0.2431  1.3399  2.0384
  643TIP3   OH223419   4.060   5.994  12.822  0.2140 -0.2514 -0.4338
  643TIP3    H123420   4.093   5.925  12.879 -3.1592  0.5561  2.9532
  643TIP3    H223421   4.132   6.056  12.816  1.7709 -1.8776  0.2966
  644TIP3   OH223422   5.053   6.197   2.724  0.0235 -0.1628 -0.4808
  644TIP3    H123423   5.086   6.138   2.792 -1.3281 -1.4880 -0.9254
  644TIP3    H223424   5.096   6.281   2.743  1.9009 -1.2164  0.2609
  645TIP3   OH223425   2.196   4.678  10.895  0.2047 -0.4666 -0.0895
  645TIP3    H123426   2.243   4.615  10.841  1.9076  0.4626  0.2392
  645TIP3    H223427   2.200   4.643  10.984 -0.2962 -0.6883 -0.1483
  646TIP3   OH223428   6.086   5.838   2.885 -0.0986  0.3055 -0.1166
  646TIP3    H123429   6.006   5.886   2.867 -0.5380  0.1782  1.3725
  646TIP3    H223430   6.156   5.901   2.871 -0.3532  0.1979 -2.2332
  647TIP3   OH223431   5.480   2.318   5.242  0.7688  0.5027  0.2539
  647TIP3    H123432   5.387   2.301   5.253  1.0266  0.1283  2.0669
  647TIP3    H223433   5.489   2.413   5.250  0.6558  0.4494  1.0446
  648TIP3   OH223434   4.385   4.868   2.223 -0.4389 -0.3216 -0.0676
  648TIP3    H123435   4.427   4.951   2.199  0.3374  0.2354  2.8391
  648TIP3    H223436   4.439   4.801   2.181  1.2187  0.5212  0.6327
  649TIP3   OH223437   2.595   1.747  11.350 -0.3099  0.1343 -0.3272
  649TIP3    H123438   2.630   1.825  11.307 -0.3217  2.2801  3.2137
  649TIP3    H223439   2.620   1.675  11.291  0.3128  2.6432 -3.4197
  650TIP3   OH223440   6.562   4.519   1.905  0.4026  0.2168 -0.6931
  650TIP3    H123441   6.563   4.576   1.981  0.6585 -0.4860 -0.1667
  650TIP3    H223442   6.623   4.560   1.843 -0.6433  1.3929 -0.9823
  651TIP3   OH223443   4.507   2.031  13.374  0.5655  0.2197 -0.2544
  651TIP3    H123444   4.452   2.008  13.448  2.2495 -1.9146  0.4232
  651TIP3    H223445   4.591   2.054  13.413  1.2178 -0.0528 -1.4637
  652TIP3   OH223446   3.304   1.620  11.481 -0.0106 -0.5401 -0.7851
  652TIP3    H123447   3.390   1.604  11.444 -0.0183 -1.3069 -0.4935
  652TIP3    H223448   3.246   1.560  11.433 -0.1903 -0.8105 -0.2425
  653TIP3   OH223449   5.403   1.457  16.742  0.2331 -0.0972  0.6657
  653TIP3    H123450   5.490   1.438  16.706 -0.0243 -2.5480  1.1663
  653TIP3    H223451   5.360   1.372  16.748 -1.2794  0.7164  2.8126
  654TIP3   OH223452   5.233   1.620   0.203  0.6348 -0.2170 -0.2807
  654TIP3    H123453   5.323   1.630   0.171  0.3395 -0.6114 -1.2633
  654TIP3    H223454   5.179   1.659   0.134  0.1042  1.2515  0.8994
  655TIP3   OH223455   2.574   4.503  14.964  0.0103 -0.0701  0.0409
  655TIP3    H123456   2.609   4.592  14.970 -2.8910  1.0831  3.1481
  655TIP3    H223457   2.506   4.508  14.896  2.2996 -1.1028 -2.5606
  656TIP3   OH223458   5.876   1.427  10.753  0.0404 -0.1131  0.6151
  656TIP3    H123459   5.819   1.495  10.790  0.0772  1.3815 -1.8309
  656TIP3    H223460   5.963   1.448  10.788 -0.2902 -0.2463  1.5644
  657TIP3   OH223461   1.128   2.199   1.556 -0.1555  0.3316  0.2545
  657TIP3    H123462   1.119   2.148   1.476  1.2022  1.4255 -0.6249
  657TIP3    H223463   1.182   2.144   1.613 -0.3380 -0.0433  0.0691
  658TIP3   OH223464   4.618   4.091   1.370  0.7442  0.1097 -0.2889
  658TIP3    H123465   4.577   4.005   1.357 -2.1121  1.2836  0.0810
  658TIP3    H223466   4.587   4.143   1.295 -0.5645  1.7464  1.3019
  659TIP3   OH223467   0.455   0.427  15.257  0.1643 -0.2164 -0.6512
  659TIP3    H123468   0.483   0.517  15.272  1.1223 -0.3270 -1.6985
  659TIP3    H223469   0.361   0.433  15.240 -0.4508  0.2209  2.3130
  660TIP3   OH223470   2.143   5.653  15.043  0.0830 -0.1480 -0.6142
  660TIP3    H123471   2.060   5.696  15.022 -1.1276 -2.2489 -0.4024
  660TIP3    H223472   2.182   5.707  15.112 -1.2468  0.7199 -0.5146
  661TIP3   OH223473   0.817   0.302  13.143 -0.7974 -0.4104  1.0491
  661TIP3    H123474   0.901   0.256  13.142 -1.4389 -1.6347  1.0264
  661TIP3    H223475   0.773   0.272  13.063 -2.4180 -2.1011  2.4899
  662TIP3   OH223476   5.930   0.324   2.034  0.0219  0.2161  0.7469
  662TIP3    H123477   5.945   0.235   2.001 -0.2649 -0.0101  1.2271
  662TIP3    H223478   5.903   0.374   1.957 -1.2790 -0.4586  0.7487
  663TIP3   OH223479   4.221   0.976   0.035 -0.1839  0.1564  0.4652
  663TIP3    H123480   4.305   0.989  -0.009 -0.0595 -0.4718  0.5138
  663TIP3    H223481   4.193   0.889   0.007  0.8080 -1.0908  3.0873
  664TIP3   OH223482   1.100   5.413   5.116 -0.0846  0.0919 -0.5729
  664TIP3    H123483   1.006   5.428   5.125 -0.1283 -0.1059 -0.7155
  664TIP3    H223484   1.108   5.327   5.075  0.1855 -1.2455  2.0528
  665TIP3   OH223485   3.642   6.665   4.769 -0.4830  0.1000  0.0213
  665TIP3    H123486   3.622   6.682   4.677  0.6011  2.9077  0.2248
  665TIP3    H223487   3.737   6.652   4.771 -0.4738  0.2698  0.7854
  666TIP3   OH223488   5.842   4.489   0.149  1.1278 -0.0893 -0.3761
  666TIP3    H123489   5.844   4.510   0.243  0.3843 -0.5157 -0.2605
  666TIP3    H223490   5.934   4.474   0.126  1.2237 -0.9766  0.5202
  667TIP3   OH223491   6.110   1.767  13.949  0.0851 -0.4111 -0.7329
  667TIP3    H123492   6.031   1.713  13.945 -0.5024  0.4126 -0.5138
  667TIP3    H223493   6.085   1.850  13.908  0.1190  0.7059  1.3828
  668TIP3   OH223494   4.455   4.765   0.348 -0.5020  0.0137 -0.2628
  668TIP3    H123495   4.400   4.812   0.410  0.2929  0.6882 -0.0496
  668TIP3    H223496   4.401   4.756   0.270 -1.7078 -1.2930  0.6609
  669TIP3   OH223497   0.875   0.908  13.186 -0.1609  0.2959 -0.4085
  669TIP3    H123498   0.924   0.914  13.268  0.4173  0.3448 -0.7535
  669TIP3    H223499   0.879   0.815  13.163 -0.3320  0.2807 -0.3750
  670TIP3   OH223500   1.788   5.759   4.506  0.2485 -0.0215  0.1598
  670TIP3    H123501   1.848   5.798   4.443 -0.3934 -0.6580 -0.8828
  670TIP3    H223502   1.809   5.802   4.589  1.0873  0.8676 -0.4842
  671TIP3   OH223503   1.771   0.516   4.963 -0.0366  0.1532  0.6471
  671TIP3    H123504   1.739   0.578   5.029 -3.5243 -0.5051 -0.2216
  671TIP3    H223505   1.753   0.559   4.879 -0.8753 -1.2747  0.0656
  672TIP3   OH223506   6.758   2.699  12.718 -0.1874 -0.2231 -0.2821
  672TIP3    H123507   6.822   2.698  12.648  0.2176 -0.4197  0.0877
  672TIP3    H223508   6.698   2.771  12.695  0.7164  0.5981 -0.1339
  673TIP3   OH223509   0.861   5.271  11.097 -0.1422  0.1626 -0.0227
  673TIP3    H123510   0.906   5.325  11.033 -1.7490  0.8291 -0.6239
  673TIP3    H223511   0.794   5.225  11.048 -1.1479  0.3736  1.1015
  674TIP3   OH223512   5.927   5.131  14.938 -0.3185 -0.2579 -0.3093
  674TIP3    H123513   5.998   5.083  14.981 -0.5954 -0.0941  0.3278
  674TIP3    H223514   5.849   5.080  14.958 -0.6383  0.5417  0.5061
  675TIP3   OH223515   2.638   1.514   5.512 -0.5425 -0.4712 -0.1289
  675TIP3    H123516   2.579   1.442   5.489 -0.4840 -1.1865  1.7547
  675TIP3    H223517   2.714   1.470   5.550 -0.2605  0.5691  0.5379
  676TIP3   OH223518   1.865   5.613  16.247 -0.3289 -0.2523 -0.5303
  676TIP3    H123519   1.816   5.533  16.264 -0.6583 -0.0069 -0.2784
  676TIP3    H223520   1.800   5.672  16.208 -0.6173  0.5430  1.0482
  677TIP3   OH223521   4.288   0.440   6.285 -0.4444 -0.8883 -0.0547
  677TIP3    H123522   4.382   0.437   6.305 -0.2179  0.1345 -0.9170
  677TIP3    H223523   4.249   0.485   6.359 -0.1145 -0.4698 -0.1286
  678TIP3   OH223524   1.901   3.418  11.460  0.2583  0.0891  0.3171
  678TIP3    H123525   1.810   3.401  11.434 -0.6393  1.2179  2.4135
  678TIP3    H223526   1.912   3.369  11.541  1.1804  0.7550  0.6114
  679TIP3   OH223527   0.187   2.906  15.227  0.0004  0.1559  0.3607
  679TIP3    H123528   0.154   2.818  15.213  2.4619 -0.7621 -0.2964
  679TIP3    H223529   0.147   2.958  15.158  0.9174 -1.2054 -1.2832
  680TIP3   OH223530   1.862   3.463   2.777  0.0979  0.2861  0.4927
  680TIP3    H123531   1.831   3.406   2.848  1.0577 -1.6995 -0.5917
  680TIP3    H223532   1.957   3.458   2.782  0.1982 -0.3312 -1.2218
  681TIP3   OH223533   6.212   0.461   3.811 -0.4671  0.2369 -0.3129
  681TIP3    H123534   6.299   0.421   3.810  0.3236  1.7708  1.7557
  681TIP3    H223535   6.162   0.407   3.872  0.4602  1.9509  2.1039
  682TIP3   OH223536   4.923   1.069  15.548 -0.2279  0.2995 -0.3959
  682TIP3    H123537   4.878   1.151  15.529 -0.3412  0.1504 -0.7702
  682TIP3    H223538   4.853   1.004  15.554 -0.2966  0.4863  1.4037
  683TIP3   OH223539   0.814   1.495  11.277 -0.6617  0.2417  0.7029
  683TIP3    H123540   0.823   1.404  11.307 -0.5019  0.9696  3.0103
  683TIP3    H223541   0.742   1.491  11.214 -1.4752 -1.3081  1.6545
  684TIP3   OH223542   1.230   3.340  10.709  0.4861  0.1861 -0.4350
  684TIP3    H123543   1.247   3.294  10.626  0.0190  1.0651 -1.0242
  684TIP3    H223544   1.135   3.351  10.712  0.4427 -0.3270  0.4942
  685TIP3   OH223545   3.143   5.695   4.703  0.0320 -0.2864 -0.0038
  685TIP3    H123546   3.181   5.634   4.640 -0.3819  2.3444 -3.0190
  685TIP3    H223547   3.051   5.702   4.676 -0.5443 -0.1695  1.8604
  686TIP3   OH223548   1.895   3.174  14.350 -0.2904  0.6551  0.3050
  686TIP3    H123549   1.927   3.204  14.435  1.9604  1.5521 -0.7779
  686TIP3    H223550   1.971   3.133  14.309 -0.8714  1.5777 -1.8507
  687TIP3   OH223551   1.204   4.199   2.237  0.3757 -0.3066 -0.3998
  687TIP3    H123552   1.278   4.138   2.245  2.6150  2.3108  0.5999
  687TIP3    H223553   1.214   4.237   2.149  2.2166  2.2036  0.7506
  688TIP3   OH223554   2.422   0.463   6.416  0.7559  0.0148  0.3159
  688TIP3    H123555   2.352   0.518   6.380  1.5737  0.7931 -0.1265
  688TIP3    H223556   2.379   0.412   6.485  0.4820  3.1361  2.6667
  689TIP3   OH223557   1.462   5.154  12.687  0.3386 -0.1738  0.0734
  689TIP3    H123558   1.402   5.092  12.647 -0.5025 -2.2096  3.9228
  689TIP3    H223559   1.547   5.111  12.685  0.8426  0.8097 -1.5391
  690TIP3   OH223560   6.074   1.807  12.428 -0.0723  0.3070  0.0544
  690TIP3    H123561   6.010   1.855  12.374  0.7975  1.0772 -0.3177
  690TIP3    H223562   6.082   1.859  12.508  1.1286  0.9939 -0.4911
  691TIP3   OH223563   5.102   2.993  13.349  0.5293 -0.2027  0.0358
  691TIP3    H123564   5.021   2.941  13.349  0.7605 -0.6616 -2.2873
  691TIP3    H223565   5.172   2.928  13.353  0.8163  0.1585  1.1445
  692TIP3   OH223566   2.551   0.513   1.443  0.0477 -0.1694  1.2041
  692TIP3    H123567   2.595   0.451   1.501  4.0763  0.3129 -0.9756
  692TIP3    H223568   2.549   0.595   1.492  3.2700  0.2038  0.9473
  693TIP3   OH223569   0.673   0.220  13.396 -0.6301 -0.0722  0.0386
  693TIP3    H123570   0.672   0.125  13.408  0.0939 -0.0223  0.5011
  693TIP3    H223571   0.741   0.235  13.330  0.2797  0.2342  1.0183
  694TIP3   OH223572   6.168   5.239  15.609 -0.2889 -0.3399  0.3743
  694TIP3    H123573   6.208   5.208  15.528 -1.4258 -1.0421  0.0627
  694TIP3    H223574   6.084   5.275  15.582  0.1180  1.1874  1.0115
  695TIP3   OH223575   3.161   3.951  16.720  0.0120  0.2188 -0.2886
  695TIP3    H123576   3.139   4.035  16.679  0.0261 -0.4296 -1.6778
  695TIP3    H223577   3.081   3.926  16.767  0.5743  1.8266  1.6462
  696TIP3   OH223578   3.889   1.004  16.514 -0.0336  0.0995 -0.2469
  696TIP3    H123579   3.817   1.063  16.494 -0.0583  0.5962  1.2336
  696TIP3    H223580   3.950   1.057  16.565  0.6651 -0.7461 -0.1762
  697TIP3   OH223581   4.540   4.037  14.277  0.0033 -0.1996 -0.2878
  697TIP3    H123582   4.570   4.124  14.305  2.2884 -1.0861  0.1923
  697TIP3    H223583   4.548   4.039  14.182 -0.4351  0.2502 -0.3252
  698TIP3   OH223584   2.348   0.503  13.401 -0.0200 -0.4521  0.4491
  698TIP3    H123585   2.274   0.550  13.364 -0.4546 -2.1336 -0.9498
  698TIP3    H223586   2.423   0.533  13.350  0.0847  0.3641  1.0683
  699TIP3   OH223587   1.089   5.148   6.807 -0.3410  0.0014 -0.0009
  699TIP3    H123588   1.047   5.072   6.847  0.5893  0.7854  2.6215
  699TIP3    H223589   1.181   5.141   6.832 -0.3446  2.3174  0.8644
  700TIP3   OH223590   5.795   4.340  14.433 -0.0330 -0.7007  0.7171
  700TIP3    H123591   5.882   4.360  14.467 -0.7935 -0.9393  2.9732
  700TIP3    H223592   5.809   4.267  14.372  1.1695 -1.9315  2.3757
  701TIP3   OH223593   6.314   0.996   0.219  0.2160 -0.2283  0.0164
  701TIP3    H123594   6.266   0.983   0.301  2.0019 -0.2802  1.1050
  701TIP3    H223595   6.298   0.916   0.169 -0.2689 -0.5283  0.6304
  702TIP3   OH223596   2.287   4.144   4.724 -0.1439 -0.3639  0.6077
  702TIP3    H123597   2.195   4.139   4.699  0.2058  2.9745 -2.1104
  702TIP3    H223598   2.333   4.094   4.656  0.1607 -0.0354  0.5679
  703TIP3   OH223599   3.214   2.413  12.034 -0.0410  0.0396 -0.4590
  703TIP3    H123600   3.150   2.458  11.980  0.2741  1.5947  0.4064
  703TIP3    H223601   3.294   2.465  12.026  0.7339 -1.1013 -0.4397
  704TIP3   OH223602   1.543   2.362   2.602  0.0597  0.3815  0.7992
  704TIP3    H123603   1.634   2.386   2.584 -0.4040  0.7011 -1.3618
  704TIP3    H223604   1.507   2.439   2.648  0.1966  1.4423 -0.7730
  705TIP3   OH223605   3.110   3.065  14.909 -0.0241 -0.4908  0.0719
  705TIP3    H123606   3.026   3.041  14.870 -1.1596  2.5811  0.3424
  705TIP3    H223607   3.144   2.983  14.945 -2.4667 -2.0090 -0.8131
  706TIP3   OH223608   3.941   2.149   1.575 -0.4587 -0.6942 -0.2823
  706TIP3    H123609   3.960   2.083   1.509 -2.6777 -0.9124 -0.7680
  706TIP3    H223610   3.997   2.224   1.551  1.6680 -2.1215 -0.0458
  707TIP3   OH223611   5.122   5.044   3.203  0.0028  0.0863 -0.1272
  707TIP3    H123612   5.054   5.063   3.267  0.5184 -1.3455  0.9035
  707TIP3    H223613   5.195   5.102   3.227 -0.2395  0.4079 -0.1693
  708TIP3   OH223614   5.502   2.879  10.757 -0.2481 -0.1356 -0.0287
  708TIP3    H123615   5.573   2.887  10.693  0.9397  0.1677  1.2727
  708TIP3    H223616   5.434   2.830  10.711  1.6707 -2.4359 -0.6480
  709TIP3   OH223617   6.753   5.034   5.495  0.3001 -0.2044 -0.0563
  709TIP3    H123618   6.831   5.009   5.446  0.5053 -0.1638  0.2526
  709TIP3    H223619   6.701   4.953   5.501  0.3349 -0.2394 -0.2257
  710TIP3   OH223620   6.505   2.526   3.160  0.2130 -0.3320  0.1748
  710TIP3    H123621   6.532   2.571   3.241 -0.3064  1.1097 -0.4093
  710TIP3    H223622   6.578   2.541   3.100 -0.2047  0.2328 -0.1997
  711TIP3   OH223623   0.176   3.895  14.269  0.2921 -0.1342 -0.2051
  711TIP3    H123624   0.265   3.922  14.248 -0.5967  2.3223 -1.1082
  711TIP3    H223625   0.142   3.965  14.324 -1.4192 -0.5036 -0.7320
  712TIP3   OH223626   6.721   5.175  11.506  0.0667 -0.7436  0.0962
  712TIP3    H123627   6.777   5.119  11.561  1.9733 -0.0474 -1.0148
  712TIP3    H223628   6.713   5.127  11.423 -2.0793 -1.4019  0.6358
  713TIP3   OH223629   5.067   1.855  13.441 -0.0340  0.4975  0.3464
  713TIP3    H123630   5.039   1.933  13.393 -2.2985  0.6226  1.7381
  713TIP3    H223631   5.037   1.782  13.387  1.3184  0.5471 -0.5241
  714TIP3   OH223632   5.851   1.377   3.755 -0.6938 -0.4823 -0.5592
  714TIP3    H123633   5.801   1.355   3.834 -0.1189 -1.0507 -0.3443
  714TIP3    H223634   5.863   1.472   3.760 -2.0596 -0.2714 -0.8095
  715TIP3   OH223635   2.457   2.571  12.486 -0.0078 -0.2726 -0.3221
  715TIP3    H123636   2.518   2.500  12.506 -0.1445  0.5599  4.2059
  715TIP3    H223637   2.512   2.644  12.459  0.4461 -1.0599 -1.5622
  716TIP3   OH223638   3.074   6.377  14.965 -0.0400  0.3983  0.4849
  716TIP3    H123639   3.148   6.317  14.965 -0.1690  0.2241 -0.4767
  716TIP3    H223640   3.090   6.435  14.891 -1.1438 -0.0038 -0.0904
  717TIP3   OH223641   5.187   2.542  12.681  0.5604 -0.0643  0.0317
  717TIP3    H123642   5.110   2.594  12.705  0.0700 -0.9076  0.3318
  717TIP3    H223643   5.234   2.597  12.619 -1.4856 -0.4661 -2.0069
  718TIP3   OH223644   0.806   2.501  16.418  0.7354 -0.5826 -0.0580
  718TIP3    H123645   0.815   2.495  16.323  0.6011 -0.0428 -0.1097
  718TIP3    H223646   0.854   2.425  16.451  0.5791 -0.9091 -0.5660
  719TIP3   OH223647   3.663   4.526  13.693 -0.2238  0.3844  0.0122
  719TIP3    H123648   3.616   4.609  13.683 -0.3704  0.3682  0.5201
  719TIP3    H223649   3.708   4.534  13.777 -0.3044 -0.0774  0.1070
  720TIP3   OH223650   4.742   2.514   4.016 -0.1908  0.4728  0.4386
  720TIP3    H123651   4.754   2.586   3.954 -0.2917 -0.2671 -0.4608
  720TIP3    H223652   4.829   2.499   4.052  0.0340  0.3511 -0.1498
  721TIP3   OH223653   1.949   5.524   0.729  0.4676  0.6300  0.2053
  721TIP3    H123654   1.888   5.450   0.733  0.8164  0.1755 -1.5743
  721TIP3    H223655   1.894   5.599   0.703  0.5435  0.3423 -0.8422
  722TIP3   OH223656   6.522   5.260   2.216 -0.2271  0.0196  0.3336
  722TIP3    H123657   6.560   5.327   2.159 -1.9788  0.2353 -0.6255
  722TIP3    H223658   6.478   5.310   2.285 -1.6963 -0.0891 -0.4847
  723TIP3   OH223659   2.810   0.984  13.312 -0.1165  0.2778 -0.2370
  723TIP3    H123660   2.802   1.029  13.227 -0.4086 -0.1605 -0.4401
  723TIP3    H223661   2.777   1.048  13.375 -0.9359  0.1950 -0.5694
  724TIP3   OH223662   0.447   1.671  11.783 -0.3449  0.0703 -0.9434
  724TIP3    H123663   0.380   1.610  11.753 -0.5637 -0.4883  0.5840
  724TIP3    H223664   0.411   1.708  11.863  1.2960 -0.5247  0.1327
  725TIP3   OH223665   1.300   6.782   3.426  0.0755  0.1079  0.2501
  725TIP3    H123666   1.380   6.823   3.393  0.9325 -1.9692 -0.4168
  725TIP3    H223667   1.304   6.692   3.394 -2.4992 -0.0933  0.2816
  726TIP3   OH223668   1.358   0.358   3.337  0.5466 -0.0162  0.1162
  726TIP3    H123669   1.368   0.433   3.396  1.8849 -0.2972  0.2787
  726TIP3    H223670   1.308   0.393   3.263  1.7863  1.2712 -0.1609
  727TIP3   OH223671   5.410   2.648  11.738 -0.0588 -0.2016 -0.0147
  727TIP3    H123672   5.428   2.732  11.694 -1.5053  0.1705  0.0506
  727TIP3    H223673   5.352   2.671  11.811 -0.0210 -1.1944  0.3393
  728TIP3   OH223674   3.778   4.258   3.965 -0.4095 -0.6653  0.5024
  728TIP3    H123675   3.814   4.346   3.976 -0.2057 -0.7919  0.8632
  728TIP3    H223676   3.804   4.211   4.044  0.6514 -1.4441 -0.2722
  729TIP3   OH223677   4.042   4.668   4.463  0.0298 -0.1055  0.1118
  729TIP3    H123678   4.133   4.693   4.443 -0.7002  1.0039 -2.2321
  729TIP3    H223679   4.007   4.743   4.512  0.8294 -1.3294  2.7102
  730TIP3   OH223680   0.463   1.343  12.007  0.2610 -0.1535 -0.3537
  730TIP3    H123681   0.370   1.356  12.024  0.3227 -0.1770  0.0141
  730TIP3    H223682   0.506   1.419  12.046  0.3737 -0.0028 -0.7663
  731TIP3   OH223683   6.330   0.151   1.599  0.1959 -0.8917 -0.1911
  731TIP3    H123684   6.408   0.203   1.617 -1.1186  1.7061 -1.4195
  731TIP3    H223685   6.363   0.070   1.562  2.3401 -0.2843  0.2701
  732TIP3   OH223686   4.648   2.289  14.712 -0.0705  0.0298 -0.6126
  732TIP3    H123687   4.645   2.193  14.704 -0.0849  0.0515 -0.8684
  732TIP3    H223688   4.668   2.320  14.623 -0.8092  0.3041 -0.6840
  733TIP3   OH223689   5.764   6.248   6.120  0.1999 -0.2599  0.3155
  733TIP3    H123690   5.669   6.249   6.112  0.1886  0.3265  0.5078
  733TIP3    H223691   5.781   6.184   6.189  0.1050 -2.4676 -1.5748
  734TIP3   OH223692   5.597   2.151   1.671 -0.2691 -0.1332  0.5766
  734TIP3    H123693   5.660   2.223   1.666 -0.9998  0.6417  1.9292
  734TIP3    H223694   5.651   2.072   1.665  0.8863  0.5062  1.8936
  735TIP3   OH223695   5.351   5.915   4.008  0.0423 -0.4155  0.5021
  735TIP3    H123696   5.322   6.005   3.997 -0.0778 -0.5981 -0.7900
  735TIP3    H223697   5.351   5.901   4.103 -3.2216 -0.1396  0.6290
  736TIP3   OH223698   0.352   1.065   3.187  0.0252 -0.4283  0.2650
  736TIP3    H123699   0.444   1.041   3.174  0.4680  1.5184 -0.5258
  736TIP3    H223700   0.308   1.041   3.106 -0.1041 -1.0782  0.5261
  737TIP3   OH223701   0.993   0.151   3.368  0.3064  0.1632  0.4432
  737TIP3    H123702   0.960   0.067   3.400  1.0391  0.6092  2.5249
  737TIP3    H223703   1.029   0.131   3.281 -2.1734 -1.0355 -0.4172
  738TIP3   OH223704   0.742   2.330   0.627 -0.3481  0.0808  0.4104
  738TIP3    H123705   0.695   2.389   0.686 -0.2367 -0.7838  1.3865
  738TIP3    H223706   0.790   2.388   0.568 -2.2853  1.0052 -0.3616
  739TIP3   OH223707   3.925   2.332   5.345 -0.0453 -0.0454  0.4982
  739TIP3    H123708   3.984   2.275   5.296  0.6680  0.7390  0.4156
  739TIP3    H223709   3.878   2.381   5.278 -1.7453 -1.5520  0.5214
  740TIP3   OH223710   0.217   2.939  15.903  0.7882  0.2833  0.5913
  740TIP3    H123711   0.161   2.935  15.980  0.0509  0.1757  0.0546
  740TIP3    H223712   0.225   3.032  15.884 -0.1376  0.2504  0.0039
  741TIP3   OH223713   0.321   5.902   0.456 -0.3384 -0.1287 -0.1110
  741TIP3    H123714   0.321   5.865   0.544  1.4028  0.0314 -0.0030
  741TIP3    H223715   0.243   5.956   0.452 -0.9817 -0.9505  0.9727
  742TIP3   OH223716   5.092   0.320   2.425 -0.3167  0.1593 -0.2276
  742TIP3    H123717   5.016   0.358   2.381 -0.3809 -1.4300 -1.6109
  742TIP3    H223718   5.112   0.241   2.374  2.2749  0.5176  0.0969
  743TIP3   OH223719   4.515   2.041   3.013 -0.2160 -0.2942  0.0707
  743TIP3    H123720   4.457   2.090   3.072 -1.5977 -1.5300 -0.1886
  743TIP3    H223721   4.556   1.975   3.069  0.6942  0.3494  0.1820
  744TIP3   OH223722   1.095   2.826  12.714  0.5206 -0.0348  0.0489
  744TIP3    H123723   1.059   2.884  12.781  0.4643  2.2879 -1.8648
  744TIP3    H223724   1.156   2.769  12.761 -0.5552  0.5493  2.2517
  745TIP3   OH223725   5.340   6.654   2.538 -0.6326  0.2605  0.3021
  745TIP3    H123726   5.282   6.644   2.462 -0.7235 -0.8766  0.4924
  745TIP3    H223727   5.336   6.746   2.561 -1.3665  0.4281 -0.4798
  746TIP3   OH223728   0.230   4.236   4.197 -0.5762  0.2130 -0.5123
  746TIP3    H123729   0.278   4.224   4.280  0.2648 -0.6407 -1.0934
  746TIP3    H223730   0.177   4.156   4.189 -2.1417  1.1466  0.1193
  747TIP3   OH223731   5.409   1.029  12.478  0.1489 -0.5690 -0.0677
  747TIP3    H123732   5.446   0.955  12.429 -0.0725 -0.5459 -0.2740
  747TIP3    H223733   5.428   1.009  12.570 -0.1222 -1.0108 -0.0991
  748TIP3   OH223734   1.631   2.711  11.401 -0.8747 -0.0044 -0.5120
  748TIP3    H123735   1.637   2.617  11.420 -0.9563  0.3527  1.4654
  748TIP3    H223736   1.719   2.735  11.373 -0.7003 -0.5526 -0.4581
  749TIP3   OH223737   0.705   2.384   1.536 -0.9306  0.7691  0.1053
  749TIP3    H123738   0.740   2.306   1.579 -1.0132  0.3541 -0.5683
  749TIP3    H223739   0.717   2.454   1.600 -0.1262  0.3608  0.4136
  750TIP3   OH223740   0.406   4.734   1.632  0.1283  0.0113  0.7644
  750TIP3    H123741   0.379   4.745   1.541  1.7942  2.7657  0.4998
  750TIP3    H223742   0.352   4.661   1.664 -1.7428  0.0821 -1.8924
  751TIP3   OH223743   4.973   2.900   2.925  0.0978 -0.2491  0.0030
  751TIP3    H123744   4.938   2.977   2.972 -1.1731 -0.2712 -0.8576
  751TIP3    H223745   4.986   2.931   2.836 -1.0028 -1.1781 -0.5015
  752TIP3   OH223746   0.505   0.203   2.446 -0.1959  0.1353 -0.1873
  752TIP3    H123747   0.485   0.164   2.531  0.5606 -0.3001 -0.2081
  752TIP3    H223748   0.554   0.282   2.467 -1.3674  0.8839 -0.1639
  753TIP3   OH223749   3.561   2.393  11.438  0.4679  0.1918 -0.3930
  753TIP3    H123750   3.580   2.371  11.347 -2.1970 -2.0264 -0.5538
  753TIP3    H223751   3.492   2.460  11.433  1.5201  1.3515  0.0626
  754TIP3   OH223752   4.623   1.664   1.300  0.0392 -0.8810 -0.9031
  754TIP3    H123753   4.703   1.643   1.252  0.0515 -0.5175 -1.0466
  754TIP3    H223754   4.650   1.671   1.391  0.0689 -1.2908 -0.8755
  755TIP3   OH223755   3.756   0.420  13.394 -0.1359  0.7473  0.6682
  755TIP3    H123756   3.744   0.486  13.326 -1.7412  1.9481  2.0247
  755TIP3    H223757   3.849   0.428  13.419 -0.2219  2.3592  0.6223
  756TIP3   OH223758   4.910   2.673  16.999  0.0268 -0.0516 -0.2256
  756TIP3    H123759   4.968   2.713  17.063  1.3834  2.0379 -2.5614
  756TIP3    H223760   4.847   2.741  16.977 -1.6059 -1.3628  0.2019
  757TIP3   OH223761   3.505   3.660   5.200 -0.3739  0.5225 -0.0269
  757TIP3    H123762   3.580   3.605   5.221 -1.3350 -0.4581  0.9213
  757TIP3    H223763   3.511   3.674   5.106 -0.3618 -1.6076 -0.3811
  758TIP3   OH223764   3.542   4.902   1.194 -0.0657  0.5938 -0.0621
  758TIP3    H123765   3.559   4.868   1.282  1.0145 -0.8047 -0.7683
  758TIP3    H223766   3.604   4.974   1.183 -0.4412  1.0016  0.4310
  759TIP3   OH223767   4.593   3.574   0.531  0.2473 -0.3780  0.0727
  759TIP3    H123768   4.629   3.603   0.615 -0.7514  0.2863  0.2902
  759TIP3    H223769   4.547   3.651   0.497  2.8364  0.2266 -2.3698
  760TIP3   OH223770   5.274   2.525  17.003  0.1368  0.5157  0.2817
  760TIP3    H123771   5.325   2.510  16.924  0.7877  2.1868  0.3479
  760TIP3    H223772   5.317   2.472  17.070 -0.4825 -0.9867 -0.4813
  761TIP3   OH223773   6.709   0.646  14.352 -0.2433  0.0571 -0.4988
  761TIP3    H123774   6.740   0.597  14.429 -1.2238  0.6403  0.2863
  761TIP3    H223775   6.748   0.600  14.278  0.3438 -0.8083  0.3160
  762TIP3   OH223776   3.823   4.585  13.907 -0.2162  0.1475  0.4111
  762TIP3    H123777   3.871   4.646  13.851 -2.7799  0.0456 -2.1329
  762TIP3    H223778   3.816   4.630  13.991  3.0965  0.6540  0.5539
  763TIP3   OH223779   6.220   3.512   5.818  0.5736 -0.3200  0.1848
  763TIP3    H123780   6.175   3.462   5.749  0.6969 -0.4167  0.1743
  763TIP3    H223781   6.187   3.602   5.807  0.2372 -0.4262  0.2996
  764TIP3   OH223782   0.222   3.441  12.636 -0.6272  0.7140 -0.1760
  764TIP3    H123783   0.306   3.466  12.598 -0.6721  1.3442  0.1228
  764TIP3    H223784   0.245   3.389  12.712 -0.4573  2.0771  0.7414
  765TIP3   OH223785   2.276   0.866   5.916  0.4601 -0.4565  0.1217
  765TIP3    H123786   2.231   0.863   6.000  2.5601 -0.8062  1.3091
  765TIP3    H223787   2.288   0.774   5.892 -1.2634 -0.3750 -1.2742
  766TIP3   OH223788   1.181   4.279   5.617  0.6096  0.4266 -0.1492
  766TIP3    H123789   1.201   4.309   5.706  1.2262  0.5174 -0.3107
  766TIP3    H223790   1.086   4.287   5.609  0.4395 -0.4427  0.8130
  767TIP3   OH223791   1.100   4.651  16.783 -0.4071 -0.6016 -0.1112
  767TIP3    H123792   1.076   4.722  16.843 -0.9279 -2.1589  1.6112
  767TIP3    H223793   1.116   4.576  16.840  2.9071 -1.2165 -1.6195
  768TIP3   OH223794   0.131   6.237   4.317 -0.0955  0.1880  0.2885
  768TIP3    H123795   0.100   6.288   4.242  0.9482 -1.1267 -1.0923
  768TIP3    H223796   0.057   6.238   4.378 -2.4024 -1.5520 -2.2182
  769TIP3   OH223797   2.576   3.351  10.714  0.1652  0.6089 -0.1313
  769TIP3    H123798   2.586   3.256  10.711 -0.3214  0.4038  2.5817
  769TIP3    H223799   2.483   3.367  10.695  0.7645  0.8587 -3.4602
  770TIP3   OH223800   6.115   3.889  14.110  0.1328  0.2150  0.0073
  770TIP3    H123801   6.156   3.975  14.098  0.3426  0.3554  1.5519
  770TIP3    H223802   6.060   3.899  14.188  0.3568 -1.1222  0.3558
  771TIP3   OH223803   6.006   1.455  13.173 -0.1076  0.0007  0.1689
  771TIP3    H123804   6.081   1.465  13.115 -0.0414 -1.4959 -0.0335
  771TIP3    H223805   6.041   1.475  13.260 -0.0109  1.4198 -0.1660
  772TIP3   OH223806   3.505   3.908  11.206 -0.2033  0.5693  0.0770
  772TIP3    H123807   3.532   3.818  11.187  0.8429  1.0462 -0.7826
  772TIP3    H223808   3.547   3.928  11.289  0.3622  0.5906 -0.2133
  773TIP3   OH223809   1.506   2.928  10.707  0.2384 -0.5726 -0.0724
  773TIP3    H123810   1.473   2.838  10.712 -1.8853  0.1837  0.5874
  773TIP3    H223811   1.461   2.974  10.778  1.1334  1.0664 -0.5231
  774TIP3   OH223812   6.336   4.077  14.067 -0.8038 -0.0965 -1.0983
  774TIP3    H123813   6.394   4.001  14.065 -0.5482  0.1052 -1.5966
  774TIP3    H223814   6.356   4.124  13.986 -0.5983  0.7663 -0.5534
  775TIP3   OH223815   4.773   4.222   0.752 -0.5423  0.6386  0.7337
  775TIP3    H123816   4.749   4.142   0.799  0.0632  0.3445  0.5532
  775TIP3    H223817   4.848   4.257   0.801  1.0155 -0.4175 -0.7486
  776TIP3   OH223818   6.311   6.589   5.114 -0.0823  0.2219 -0.5300
  776TIP3    H123819   6.238   6.528   5.122  0.2840 -0.0424  4.6135
  776TIP3    H223820   6.273   6.668   5.076 -2.8381 -0.3465  0.7674
  777TIP3   OH223821   4.902   3.495  12.080  0.2607  0.7389 -0.3894
  777TIP3    H123822   4.923   3.501  11.987 -1.6629  0.9002 -0.8680
  777TIP3    H223823   4.806   3.498  12.083  0.2760  0.7622  1.6036
  778TIP3   OH223824   6.435   1.134   1.389 -0.0617 -0.0347 -0.2976
  778TIP3    H123825   6.493   1.060   1.409  1.0602  1.0739  0.6730
  778TIP3    H223826   6.456   1.157   1.298 -0.2927 -0.7867 -0.5478
  779TIP3   OH223827   0.022   6.372  12.848 -0.3347  0.1974  0.4494
  779TIP3    H123828   0.085   6.443  12.858  0.2259 -0.4731  1.9537
  779TIP3    H223829   0.074   6.297  12.820 -0.1627 -0.7121  2.9552
  780TIP3   OH223830   6.364   5.676   2.204  0.3444 -0.4210  0.2742
  780TIP3    H123831   6.298   5.707   2.266 -0.8652 -0.6218 -0.8793
  780TIP3    H223832   6.336   5.587   2.181  1.4826 -0.8318  0.3870
  781TIP3   OH223833   4.765   5.483   6.068 -0.3660  0.0919 -1.0281
  781TIP3    H123834   4.834   5.531   6.114  2.4458 -2.6913 -1.9768
  781TIP3    H223835   4.692   5.481   6.130  1.4405  0.7339  1.2530
  782TIP3   OH223836   4.252   5.588  12.011 -0.1230 -0.1935 -0.5214
  782TIP3    H123837   4.239   5.683  12.005 -0.7393 -0.2293  0.1155
  782TIP3    H223838   4.164   5.553  12.026  0.3437 -0.6782  1.3237
  783TIP3   OH223839   3.811   1.544  11.167 -0.1069 -0.0352 -0.1583
  783TIP3    H123840   3.880   1.565  11.231  0.6093  1.7443 -1.4263
  783TIP3    H223841   3.740   1.605  11.188  0.4946  1.2099 -1.5617
  784TIP3   OH223842   3.091   3.476   2.477  0.2786 -1.4584 -0.1382
  784TIP3    H123843   3.183   3.457   2.493  0.4708 -1.5383 -1.2811
  784TIP3    H223844   3.044   3.402   2.515  0.5782 -0.8677  1.4996
  785TIP3   OH223845   5.801   6.778  17.030 -0.3680  0.3213  0.2643
  785TIP3    H123846   5.855   6.856  17.039 -0.7956  0.4403  2.3685
  785TIP3    H223847   5.781   6.752  17.120 -0.5427 -2.0056 -0.3766
  786TIP3   OH223848   0.854   5.067   0.380 -0.0861 -0.3082  0.2778
  786TIP3    H123849   0.898   5.141   0.422 -1.5560  0.4550  0.5336
  786TIP3    H223850   0.925   5.016   0.342  1.0172  0.8864  0.6517
  787TIP3   OH223851   6.544   4.829   4.175 -0.5416 -0.2785 -0.2751
  787TIP3    H123852   6.469   4.888   4.163 -1.1097 -0.6772  1.1147
  787TIP3    H223853   6.525   4.782   4.256  2.1079  0.9964  1.2316
  788TIP3   OH223854   6.043   0.470  17.022  0.9240 -0.1157 -0.0711
  788TIP3    H123855   6.035   0.566  17.017  0.9139 -0.1189 -0.1128
  788TIP3    H223856   6.084   0.445  16.940 -0.1696 -0.2694 -0.5966
  789TIP3   OH223857   5.008   3.610   5.390 -0.1246 -0.6166 -0.0636
  789TIP3    H123858   5.082   3.550   5.395  0.5293  0.2438  1.2885
  789TIP3    H223859   5.011   3.644   5.300  1.8106  0.2142  0.2542
  790TIP3   OH223860   0.441   1.013   2.140  0.0241  0.2250  0.0990
  790TIP3    H123861   0.366   1.042   2.191 -2.6779 -1.6371 -2.5010
  790TIP3    H223862   0.483   0.946   2.194 -0.4433  0.9727  1.4124
  791TIP3   OH223863   3.007   0.671  13.670 -0.2675  0.1811 -0.0825
  791TIP3    H123864   3.006   0.662  13.575 -2.9485  0.8748 -0.2228
  791TIP3    H223865   3.074   0.610  13.700  1.7999  1.1063 -2.4669
  792TIP3   OH223866   6.519   4.331  15.993 -0.2833  0.5944  0.2750
  792TIP3    H123867   6.480   4.246  15.972  1.5358  0.1837 -1.7487
  792TIP3    H223868   6.490   4.389  15.922  1.2331  0.7487 -0.2490
  793TIP3   OH223869   2.949   3.674  11.190 -0.5357  0.3751  0.5710
  793TIP3    H123870   2.916   3.620  11.262 -0.9007  1.4465  1.2188
  793TIP3    H223871   3.017   3.728  11.229  1.7362 -1.4388 -0.6363
  794TIP3   OH223872   5.718   5.269  10.920  0.4115  0.4887  0.8920
  794TIP3    H123873   5.706   5.198  10.857  1.3065 -1.4464  2.7451
  794TIP3    H223874   5.805   5.305  10.900  0.0821  0.8613  0.1295
  795TIP3   OH223875   5.267   1.761  12.636  0.0710 -0.2932 -0.5405
  795TIP3    H123876   5.185   1.746  12.683 -0.0202 -0.1109 -0.6394
  795TIP3    H223877   5.312   1.677  12.638 -0.9042 -0.8728 -1.9892
  796TIP3   OH223878   3.529   2.304  12.386  0.3379 -0.3926  0.2917
  796TIP3    H123879   3.560   2.384  12.429 -0.1611  0.5810 -1.0770
  796TIP3    H223880   3.474   2.262  12.452 -2.3563  2.2595 -0.0303
  797TIP3   OH223881   6.092   2.523  13.690  0.5116  0.5999  0.1553
  797TIP3    H123882   6.098   2.461  13.763  0.0774  1.1618  0.6764
  797TIP3    H223883   5.999   2.545  13.684  0.4978  0.3381 -0.7613
  798TIP3   OH223884   3.014   0.637   4.953 -0.2054 -0.0193 -0.2540
  798TIP3    H123885   3.014   0.595   4.866  3.4024 -0.6871 -0.0647
  798TIP3    H223886   3.066   0.716   4.941 -1.1126  0.8028  0.9870
  799TIP3   OH223887   5.306   4.761  10.781 -0.0984 -0.1939 -0.0634
  799TIP3    H123888   5.336   4.851  10.790 -0.1685 -0.0942 -0.7755
  799TIP3    H223889   5.361   4.711  10.841  1.7009 -0.0688 -1.5509
  800TIP3   OH223890   6.522   4.188   6.090  0.3939 -0.7969 -0.2017
  800TIP3    H123891   6.441   4.191   6.141 -0.3989 -0.1138 -1.4477
  800TIP3    H223892   6.584   4.242   6.140  0.0816 -1.2806  0.7371
  801TIP3   OH223893   3.600   1.096  15.356 -0.1403  0.1866 -0.3510
  801TIP3    H123894   3.555   1.173  15.390 -0.8273  0.7213 -2.3790
  801TIP3    H223895   3.586   1.098  15.262  1.6816 -1.2380 -0.7288
  802TIP3   OH223896   2.129   2.909  14.646 -0.0067 -0.7709 -0.3451
  802TIP3    H123897   2.082   2.987  14.614 -0.6599 -1.9133 -2.3392
  802TIP3    H223898   2.172   2.939  14.726  0.2812  1.8354 -1.3526
  803TIP3   OH223899   3.028   1.993  11.409  0.5863 -0.2245 -0.1343
  803TIP3    H123900   2.954   2.035  11.364  1.1680  1.7180  0.6061
  803TIP3    H223901   3.004   1.994  11.502  0.9605 -0.8283 -0.0245
  804TIP3   OH223902   0.915   4.525   3.048  0.3484 -0.4895 -0.1076
  804TIP3    H123903   0.916   4.579   2.969  2.7247  0.5433  0.5492
  804TIP3    H223904   0.846   4.460   3.032 -0.2632  0.6257 -2.3559
  805TIP3   OH223905   4.100   3.651   5.619  0.4711  0.3371  0.0010
  805TIP3    H123906   4.144   3.717   5.673  1.0179  1.4341 -1.7358
  805TIP3    H223907   4.010   3.683   5.611  0.4591  0.3105  0.0288
  806TIP3   OH223908   1.186   3.912  14.248  0.0630  0.6007 -1.0070
  806TIP3    H123909   1.148   3.996  14.275 -0.9766 -0.2852  0.4950
  806TIP3    H223910   1.138   3.888  14.169 -0.7814  0.6780 -0.5288
  807TIP3   OH223911   2.530   3.895   2.639 -0.0659  0.5458 -0.2374
  807TIP3    H123912   2.481   3.813   2.629 -0.5329  0.7654  0.2126
  807TIP3    H223913   2.561   3.893   2.730 -3.5402  2.7012  1.2085
  808TIP3   OH223914   6.700   6.066  16.292  0.4474  0.0797  0.0881
  808TIP3    H123915   6.690   6.158  16.314 -1.3391  0.1515 -0.8119
  808TIP3    H223916   6.718   6.065  16.198  0.2156 -0.4885  0.0400
  809TIP3   OH223917   5.117   2.682  17.166  0.3153 -0.0067 -0.1586
  809TIP3    H123918   5.178   2.717  17.232 -0.1128  1.4289 -0.4894
  809TIP3    H223919   5.174   2.654  17.094  0.6355  0.9913 -0.3172
  810TIP3   OH223920   4.115   5.085  10.519 -0.7307 -0.0398  0.3074
  810TIP3    H123921   4.210   5.075  10.510 -0.6355  2.0854 -2.7276
  810TIP3    H223922   4.102   5.180  10.526 -2.6747 -0.2633  0.0906
  811TIP3   OH223923   6.378   3.481  14.336  0.1031 -0.6141 -0.1159
  811TIP3    H123924   6.310   3.547  14.330 -1.1848 -1.9286 -0.4751
  811TIP3    H223925   6.460   3.531  14.337 -0.8565  1.0352  0.9520
  812TIP3   OH223926   6.173   5.012  15.721 -0.1905  0.7577 -0.0752
  812TIP3    H123927   6.198   5.105  15.722 -0.4341  0.8479  2.1153
  812TIP3    H223928   6.099   5.008  15.661 -1.3637  2.3466  1.1870
  813TIP3   OH223929   1.752   4.665   4.306  0.2979 -1.1384 -0.7469
  813TIP3    H123930   1.817   4.597   4.327 -0.4488 -1.4036  0.7986
  813TIP3    H223931   1.722   4.697   4.391 -2.2006 -1.6104 -1.3758
  814TIP3   OH223932   0.832   1.415  15.293 -0.1270 -0.0649 -0.2489
  814TIP3    H123933   0.883   1.480  15.342 -0.3263 -1.0090  1.2850
  814TIP3    H223934   0.767   1.384  15.356 -2.2428  0.6573 -1.9446
  815TIP3   OH223935   3.157   2.616   3.348  0.1019 -0.0226 -0.3893
  815TIP3    H123936   3.163   2.526   3.381  0.9540  0.3867  0.6291
  815TIP3    H223937   3.142   2.606   3.254 -2.3335 -1.2418  0.0320
  816TIP3   OH223938   5.867   3.811  11.012  0.1211  0.1543  0.1893
  816TIP3    H123939   5.879   3.788  11.103  0.6744  0.9049  0.3186
  816TIP3    H223940   5.788   3.865  11.011  0.4487  0.6435  0.3218
  817TIP3   OH223941   1.752   2.009   5.765 -0.3200  0.3866 -0.5173
  817TIP3    H123942   1.746   2.061   5.684  0.4662  0.0855 -0.7796
  817TIP3    H223943   1.834   2.038   5.805 -0.9272  0.8523  0.4074
  818TIP3   OH223944   1.230   1.405  15.206  0.5089 -0.0641  0.3511
  818TIP3    H123945   1.149   1.432  15.164  1.2208  0.2429 -0.8888
  818TIP3    H223946   1.281   1.486  15.214  0.3399 -0.0838  1.9957
  819TIP3   OH223947   4.577   0.115   5.155 -0.3167 -0.0808  0.2353
  819TIP3    H123948   4.535   0.200   5.165 -0.5901 -0.2143  0.2125
  819TIP3    H223949   4.644   0.130   5.088 -1.0668 -0.1415 -0.5385
  820TIP3   OH223950   2.878   3.446  16.844  0.3076 -0.0125 -0.1048
  820TIP3    H123951   2.808   3.383  16.828  0.4597 -0.0267 -0.7691
  820TIP3    H223952   2.893   3.443  16.938 -1.6182  1.0935  0.2787
  821TIP3   OH223953   5.229   1.925  11.326  0.3243  0.0914  0.3341
  821TIP3    H123954   5.193   1.881  11.249 -0.4414 -0.6470  1.0933
  821TIP3    H223955   5.155   1.973  11.363  1.0898  1.8376 -0.3239
  822TIP3   OH223956   2.188   1.389   1.059  0.3432 -0.2433 -0.1541
  822TIP3    H123957   2.140   1.361   0.982 -1.6603 -1.1756  1.3397
  822TIP3    H223958   2.241   1.313   1.084  0.2948 -0.2629 -0.1101
  823TIP3   OH223959   0.172   3.025   0.050 -0.0786  0.8743  0.2921
  823TIP3    H123960   0.219   2.953   0.092 -0.5822  0.9721  1.0305
  823TIP3    H223961   0.240   3.078   0.009  0.2460 -0.5215 -1.0816
  824TIP3   OH223962   2.972   2.870   3.410 -0.4097  0.3507 -0.0793
  824TIP3    H123963   2.887   2.859   3.451 -0.9478 -0.3056 -1.3093
  824TIP3    H223964   2.995   2.783   3.378  0.5274  0.6028 -0.1190
  825TIP3   OH223965   4.200   1.119   3.043  0.5225  0.5117  0.4387
  825TIP3    H123966   4.289   1.109   3.009  0.5111  0.3366  0.4622
  825TIP3    H223967   4.198   1.209   3.077  0.3696  0.8913 -0.5275
  826TIP3   OH223968   2.722   4.480   6.474  0.4928  0.0546 -0.7702
  826TIP3    H123969   2.811   4.515   6.470  0.1741  0.8336 -1.4738
  826TIP3    H223970   2.732   4.386   6.462  1.2427  0.0985 -0.5259
  827TIP3   OH223971   2.163   3.672  14.394  0.3914  0.5755  0.3858
  827TIP3    H123972   2.115   3.706  14.319 -1.2171 -3.1243 -0.4659
  827TIP3    H223973   2.236   3.622  14.356 -0.3533 -1.2174  1.1960
  828TIP3   OH223974   3.537   1.533   6.022  0.6088 -0.4725  0.1286
  828TIP3    H123975   3.483   1.526   6.101  0.3307 -1.4649 -0.1411
  828TIP3    H223976   3.580   1.618   6.031  2.1923 -1.4140  2.3805
  829TIP3   OH223977   5.607   4.970   2.846 -0.2470  0.1599  0.3882
  829TIP3    H123978   5.600   4.875   2.855  0.2439  0.1872  1.1855
  829TIP3    H223979   5.675   4.995   2.909 -0.1387  1.0006 -0.0509
  830TIP3   OH223980   3.822   2.164   5.520 -0.3636 -0.0588 -0.4707
  830TIP3    H123981   3.860   2.241   5.476 -0.1909  0.2908  0.2691
  830TIP3    H223982   3.859   2.167   5.608  1.4435 -2.2628 -1.0502
  831TIP3   OH223983   5.689   1.131  16.496  0.4638 -0.5272 -0.3638
  831TIP3    H123984   5.686   1.070  16.571 -2.9536  0.8617  0.8197
  831TIP3    H223985   5.639   1.087  16.428  3.4510 -1.7202 -1.9726
  832TIP3   OH223986   0.044   4.461   4.565 -0.0066  0.0139  0.1715
  832TIP3    H123987  -0.039   4.484   4.606 -1.4631  0.7415 -2.8762
  832TIP3    H223988   0.095   4.542   4.568 -0.6432  0.4575 -0.5886
  833TIP3   OH223989   1.814   4.409   1.655  0.2590  0.8691  0.0654
  833TIP3    H123990   1.765   4.391   1.575 -2.2946  1.4533  1.3891
  833TIP3    H223991   1.767   4.362   1.724  2.1476  0.6972  1.3117
  834TIP3   OH223992   2.487   4.623   2.186  0.1223  0.4482 -0.2625
  834TIP3    H123993   2.544   4.594   2.115  1.0146  0.3206  0.4910
  834TIP3    H223994   2.540   4.686   2.235 -1.0112  1.7067 -0.5862
  835TIP3   OH223995   1.037   4.472  13.610  0.3794 -0.7275  0.3289
  835TIP3    H123996   0.965   4.494  13.552 -0.6684 -0.9815  1.5072
  835TIP3    H223997   1.110   4.451  13.551 -0.0180  1.0384 -0.8555
  836TIP3   OH223998   2.346   3.917  14.340  0.1258  0.5554  0.3633
  836TIP3    H123999   2.417   3.909  14.276 -0.0729 -0.3064  0.2412
  836TIP3    H224000   2.276   3.862  14.305 -0.3562  0.8656  0.8257
  837TIP3   OH224001   2.235   3.764  11.079 -0.0888  0.8426 -0.3874
  837TIP3    H124002   2.238   3.792  10.987  0.7614 -0.6250 -0.8272
  837TIP3    H224003   2.318   3.795  11.116 -0.7873  2.1729  0.1447
  838TIP3   OH224004   4.461   0.000  14.273 -0.3711  0.5611 -0.0612
  838TIP3    H124005   4.534   0.047  14.314  1.0226  0.0615 -1.8647
  838TIP3    H224006   4.409   0.069  14.231 -0.4777  0.8304  0.4989
  839TIP3   OH224007   3.095   4.078   5.214  0.0783  0.5712 -0.3593
  839TIP3    H124008   3.042   4.070   5.294 -0.6981  2.1612 -0.6756
  839TIP3    H224009   3.031   4.079   5.143  0.8086 -1.7731 -1.1297
  840TIP3   OH224010   5.003   1.550  15.436 -0.3863  0.7044 -0.2490
  840TIP3    H124011   5.031   1.621  15.495 -0.3600  1.8754 -1.6143
  840TIP3    H224012   5.034   1.577  15.350  0.2669 -1.3536 -0.7118
  841TIP3   OH224013   4.605   1.535  15.830 -0.3939  0.2306 -1.1786
  841TIP3    H124014   4.670   1.592  15.789 -0.8069  0.8412 -0.9958
  841TIP3    H224015   4.656   1.461  15.864 -0.2141 -1.3604 -4.4846
  842TIP3   OH224016   6.527   4.140  16.413  0.2656 -0.4467  0.0265
  842TIP3    H124017   6.605   4.125  16.360 -0.7684 -0.5748 -1.5186
  842TIP3    H224018   6.481   4.057  16.413 -0.5769  0.0056 -0.2779
  843TIP3   OH224019   6.067   0.695  15.279  0.0083  0.1428 -0.3303
  843TIP3    H124020   6.058   0.672  15.371 -0.9938 -1.5203 -0.7920
  843TIP3    H224021   6.161   0.710  15.267 -0.0075  1.6736  1.2089
  844TIP3   OH224022   4.389   5.047  10.522 -0.4439 -0.0089  0.4716
  844TIP3    H124023   4.470   5.039  10.472 -1.2290  0.2419 -0.8913
  844TIP3    H224024   4.402   4.992  10.599  2.3666  2.6839  2.1692
  845TIP3   OH224025   5.864   3.227   2.236 -0.4991 -0.6555 -0.2361
  845TIP3    H124026   5.773   3.249   2.218 -0.4653 -0.5709 -0.3029
  845TIP3    H224027   5.902   3.308   2.270 -0.1799 -0.3980 -1.1924
  846TIP3   OH224028   1.751   3.421   5.474  0.4714  0.2830 -0.8307
  846TIP3    H124029   1.819   3.487   5.463 -0.5454  1.9710  2.0390
  846TIP3    H224030   1.669   3.470   5.477 -0.3108 -0.9956  1.7330
  847TIP3   OH224031   4.712   2.674  12.966  0.6181 -0.2589 -0.1462
  847TIP3    H124032   4.656   2.663  13.043  2.3265 -0.0211  1.2019
  847TIP3    H224033   4.690   2.761  12.933 -0.4514 -0.5423 -0.1985
  848TIP3   OH224034   5.087   4.055  16.162  0.0052  0.0514  0.2459
  848TIP3    H124035   5.167   4.083  16.117  0.4837  0.5021  1.3422
  848TIP3    H224036   5.045   4.137  16.189 -1.0625 -0.1570 -0.6566
  849TIP3   OH224037   4.574   4.842  17.118  0.5599 -0.4370  0.6149
  849TIP3    H124038   4.560   4.792  17.038 -0.2874 -0.6955  0.9210
  849TIP3    H224039   4.567   4.779  17.189  0.1068  0.0014  0.9674
  850TIP3   OH224040   0.653   5.406  11.928 -0.4469  0.2360  0.1688
  850TIP3    H124041   0.663   5.396  11.834  2.2902  1.5239  0.2167
  850TIP3    H224042   0.611   5.325  11.957  0.9832 -1.3242 -1.8697
  851TIP3   OH224043   1.413   4.507   1.572  0.2436 -0.8904 -0.1040
  851TIP3    H124044   1.324   4.499   1.538  0.5709 -1.5418 -0.8278
  851TIP3    H224045   1.413   4.591   1.620 -0.0109  0.4668 -2.3478
  852TIP3   OH224046   0.673   6.076  15.169 -0.2322  0.8229 -0.0044
  852TIP3    H124047   0.759   6.046  15.140 -0.2370  0.3082  0.5011
  852TIP3    H224048   0.659   6.031  15.252 -0.0471  2.5431  1.0042
  853TIP3   OH224049   3.480   1.881   1.585  0.3077  0.2736 -0.3506
  853TIP3    H124050   3.559   1.934   1.601  1.0172 -0.6782 -0.5718
  853TIP3    H224051   3.513   1.792   1.579 -0.9928 -0.3476  1.0565
  854TIP3   OH224052   2.280   6.397   0.147 -0.4713  0.3032 -0.2182
  854TIP3    H124053   2.298   6.331   0.214  0.6926  1.6332  0.8215
  854TIP3    H224054   2.187   6.386   0.127 -0.3763 -1.4484  0.1165
  855TIP3   OH224055   2.669   1.005  15.942 -0.5673  0.3320  0.3784
  855TIP3    H124056   2.621   1.010  16.025 -3.5786  2.4497 -1.3014
  855TIP3    H224057   2.673   0.912  15.922  0.9897 -0.3172  3.2074
  856TIP3   OH224058   2.398   1.975   6.308  0.2744  0.1868  0.2844
  856TIP3    H124059   2.392   2.070   6.304 -0.0071  0.1135 -1.5688
  856TIP3    H224060   2.462   1.959   6.378  0.0699  1.7020  0.8644
  857TIP3   OH224061   0.859   3.076   3.640 -0.9621  0.5212  0.6198
  857TIP3    H124062   0.920   3.104   3.708 -1.5791 -0.3422  1.5579
  857TIP3    H224063   0.878   2.983   3.627 -1.3948  0.4854  0.1981
  858TIP3   OH224064   0.654   0.522   1.857  0.1739 -0.2916  0.2787
  858TIP3    H124065   0.575   0.550   1.904  2.0546  1.0420  2.8460
  858TIP3    H224066   0.667   0.431   1.885  0.6993  0.1700  1.6157
  859TIP3   OH224067   4.381   2.820  16.515 -0.2608  0.0903  0.2615
  859TIP3    H124068   4.344   2.881  16.579 -1.7358 -0.8751  0.3923
  859TIP3    H224069   4.392   2.872  16.436 -1.3792  0.5650  0.3974
  860TIP3   OH224070   0.029   4.120  13.597 -0.0220 -0.0865  0.3559
  860TIP3    H124071   0.025   4.112  13.502  0.3106  0.7882  0.2568
  860TIP3    H224072   0.001   4.035  13.630  0.5070 -0.6149 -0.5316
  861TIP3   OH224073   4.498   1.315   1.385  0.3578  0.3576  0.7114
  861TIP3    H124074   4.590   1.292   1.376 -0.1468 -2.0736  1.1117
  861TIP3    H224075   4.468   1.263   1.460 -1.6033  0.1902 -0.1396
  862TIP3   OH224076   2.869   5.452   1.651  0.0964 -0.1913  0.2802
  862TIP3    H124077   2.837   5.518   1.713  0.5796 -0.1383  0.4779
  862TIP3    H224078   2.958   5.432   1.682 -0.0458 -0.9254  0.2137
  863TIP3   OH224079   2.640   4.404  13.676  0.3906  0.3175  0.1210
  863TIP3    H124080   2.653   4.319  13.633  2.7956 -0.7407  2.6525
  863TIP3    H224081   2.697   4.464  13.628  0.2096  0.0428 -0.4467
  864TIP3   OH224082   0.511   1.616   6.009 -0.0674  0.1411 -0.1145
  864TIP3    H124083   0.584   1.643   6.064 -0.2891 -0.1985  0.3508
  864TIP3    H224084   0.540   1.636   5.920  0.9744 -0.8184 -0.0194
  865TIP3   OH224085   6.253   1.357   0.453  0.1015 -0.0150 -0.1001
  865TIP3    H124086   6.302   1.437   0.473 -0.6168  0.1320  1.1591
  865TIP3    H224087   6.172   1.388   0.413 -0.4125 -0.0661  0.8759
  866TIP3   OH224088   3.754   1.634   5.662  0.2327  0.1745 -0.1002
  866TIP3    H124089   3.714   1.593   5.585  0.7808 -3.5492  1.3970
  866TIP3    H224090   3.845   1.603   5.661 -0.1343 -1.2876  2.7853
  867TIP3   OH224091   4.212   0.995  14.212 -0.4798 -0.2164  0.2776
  867TIP3    H124092   4.118   0.985  14.202 -0.3910  1.0679 -3.1371
  867TIP3    H224093   4.249   0.919  14.166  0.2033 -0.6555  1.4963
  868TIP3   OH224094   5.715   3.658  14.238 -0.1236 -0.1274  0.0392
  868TIP3    H124095   5.677   3.706  14.311 -0.1214 -2.3636  1.6442
  868TIP3    H224096   5.659   3.580  14.229  0.4901 -0.4100 -1.6807
  869TIP3   OH224097   3.130   5.322   0.357 -0.3654 -0.2986 -0.0712
  869TIP3    H124098   3.216   5.354   0.329 -0.0743 -0.2956  0.7837
  869TIP3    H224099   3.096   5.391   0.413 -0.7090 -0.5144 -0.0133
  870TIP3   OH224100   5.261   4.449   4.555 -0.3564  0.0753 -0.2795
  870TIP3    H124101   5.174   4.451   4.594  0.7442 -1.1708  2.4694
  870TIP3    H224102   5.303   4.529   4.585  0.2156 -0.4885  0.4754
  871TIP3   OH224103   1.792   4.998  11.406  0.6487 -0.1937  0.0052
  871TIP3    H124104   1.825   5.082  11.373 -1.3293  0.1455 -1.2662
  871TIP3    H224105   1.821   4.934  11.341 -0.1828 -0.0480 -0.5352
  872TIP3   OH224106   3.981   1.889  13.551 -0.1552  0.3618  0.1192
  872TIP3    H124107   4.033   1.946  13.607  0.2861 -0.6654  0.7996
  872TIP3    H224108   4.036   1.812  13.538 -0.3944  0.4250 -1.4569
  873TIP3   OH224109   1.587   6.733  12.649  0.4197  0.0417  0.2529
  873TIP3    H124110   1.492   6.731  12.644  0.4362 -1.3889  0.0769
  873TIP3    H224111   1.607   6.749  12.741 -0.0206 -1.9677  0.7323
  874TIP3   OH224112   5.373   5.983  13.102  0.3544 -0.1006 -0.3836
  874TIP3    H124113   5.390   5.910  13.043 -1.4409  0.0692 -1.1880
  874TIP3    H224114   5.440   5.976  13.170  1.0407 -1.6807 -1.1838
  875TIP3   OH224115   4.130   0.038  13.703 -0.2750  0.3862 -0.2769
  875TIP3    H124116   4.136  -0.010  13.621 -0.8223 -0.7568  0.3250
  875TIP3    H224117   4.131   0.130  13.677  1.1523  0.0703 -1.4296
  876TIP3   OH224118   3.336   6.787   0.662  0.2743  0.6881 -0.2485
  876TIP3    H124119   3.276   6.813   0.592 -1.5113 -1.2159  0.4664
  876TIP3    H224120   3.386   6.714   0.624  0.4187  0.6838 -0.0491
  877TIP3   OH224121   5.020   4.251  13.977  0.4638  0.3918  0.1447
  877TIP3    H124122   4.981   4.314  13.917  0.2428 -0.0199 -0.1538
  877TIP3    H224123   5.113   4.273  13.978  0.8484 -0.8246 -1.9418
  878TIP3   OH224124   4.842   2.744   5.996  0.2639 -0.1661  0.3264
  878TIP3    H124125   4.923   2.771   6.039 -0.1856  0.1915  0.9765
  878TIP3    H224126   4.838   2.796   5.916  0.8617 -0.4661  0.0961
  879TIP3   OH224127   2.397   3.737   4.804 -0.1147 -0.3757 -0.0611
  879TIP3    H124128   2.404   3.642   4.794  2.1021 -0.1336 -1.6925
  879TIP3    H224129   2.317   3.760   4.756  0.2831 -1.2627 -1.1912
  880TIP3   OH224130   1.369   4.331  12.548  0.1462 -0.5072  0.0295
  880TIP3    H124131   1.408   4.413  12.519 -0.9861  0.5004  1.2387
  880TIP3    H224132   1.309   4.307  12.478 -1.1296  0.8811  0.5804
  881TIP3   OH224133   0.625   0.533   1.244 -0.1868  0.4660 -0.2253
  881TIP3    H124134   0.543   0.483   1.244 -0.9909  1.7326  0.1959
  881TIP3    H224135   0.631   0.569   1.156  0.0353  0.2014 -0.3199
  882TIP3   OH224136   1.689   4.924  11.031  0.1170 -0.1890  0.1850
  882TIP3    H124137   1.661   4.992  11.091 -0.3709  0.0196 -0.2701
  882TIP3    H224138   1.713   4.971  10.951 -1.4937 -0.6322 -0.6030
  883TIP3   OH224139   1.340   6.524   5.355 -0.3163 -0.4598  0.6608
  883TIP3    H124140   1.308   6.593   5.297  0.8041 -0.2956  0.2128
  883TIP3    H224141   1.304   6.443   5.317 -2.1615 -0.1163  1.5480
  884TIP3   OH224142   1.409   3.501  12.297  0.0406  0.3122  0.4422
  884TIP3    H124143   1.461   3.462  12.368 -1.4852 -1.4187  0.6871
  884TIP3    H224144   1.465   3.493  12.220  1.0628  0.6963  1.1170
  885TIP3   OH224145   6.120   2.667   5.427 -0.0261  0.8071 -0.3370
  885TIP3    H124146   6.166   2.645   5.346  0.8261  0.7819  0.1461
  885TIP3    H224147   6.187   2.706   5.483 -0.2230 -0.6314  0.9487
  886TIP3   OH224148   6.571   2.927   0.818 -0.3691  0.5186 -0.4594
  886TIP3    H124149   6.493   2.925   0.874  0.9260 -0.5104  1.4168
  886TIP3    H224150   6.614   2.844   0.834  1.2398  1.1477 -1.3003
  887TIP3   OH224151   4.663   3.680  13.848 -0.2211  0.1410 -0.4063
  887TIP3    H124152   4.626   3.591  13.848  0.9198 -0.3523  0.7285
  887TIP3    H224153   4.597   3.734  13.892 -0.2442 -0.4575  0.3108
  888TIP3   OH224154   2.178   6.534   2.905  0.2207  0.2585 -0.1985
  888TIP3    H124155   2.232   6.466   2.945 -0.2094 -0.6401 -1.1215
  888TIP3    H224156   2.161   6.596   2.976  0.0106 -0.9642  0.8504
  889TIP3   OH224157   5.093   2.057   4.338 -0.5852  0.2382 -0.3943
  889TIP3    H124158   5.035   2.125   4.372 -1.4688 -1.0831  0.8720
  889TIP3    H224159   5.060   2.038   4.250  0.6339  2.4712 -1.4143
  890TIP3   OH224160   3.155   3.077  10.509  0.0862  0.2750 -0.0400
  890TIP3    H124161   3.246   3.106  10.503 -0.2036  1.3797  0.5988
  890TIP3    H224162   3.110   3.120  10.437  0.0772 -0.3282 -0.3996
  891TIP3   OH224163   6.411   0.241   5.503  0.4405 -0.3510  0.3556
  891TIP3    H124164   6.447   0.262   5.589 -0.7220  1.7029  0.4084
  891TIP3    H224165   6.318   0.264   5.509  0.6784  1.5868 -1.9496
  892TIP3   OH224166   1.333   2.525   6.297 -0.1393 -0.2825 -0.0020
  892TIP3    H124167   1.281   2.535   6.217 -0.9621  0.3139  0.5815
  892TIP3    H224168   1.357   2.433   6.299  1.2186 -0.0207 -1.7189
  893TIP3   OH224169   0.912   2.587   0.165 -0.0136  0.4656 -0.4004
  893TIP3    H124170   0.827   2.598   0.208 -0.4211 -0.1858 -1.0223
  893TIP3    H224171   0.899   2.626   0.079 -0.1980 -1.0665 -1.0989
  894TIP3   OH224172   1.226   0.795  16.737 -0.0798  0.0118 -0.3061
  894TIP3    H124173   1.179   0.754  16.809 -0.9238 -0.4068 -1.0634
  894TIP3    H224174   1.270   0.871  16.776  1.0833 -1.2866  1.0076
  895TIP3   OH224175   1.276   2.047   5.596  0.2034 -0.1641  0.3145
  895TIP3    H124176   1.249   1.956   5.600 -1.0520  0.2068  0.8472
  895TIP3    H224177   1.200   2.093   5.562  0.7374  0.7186  0.2805
  896TIP3   OH224178   2.881   6.398   5.917 -0.8073 -0.0468  0.5018
  896TIP3    H124179   2.902   6.320   5.969 -1.4506 -0.8046 -0.3456
  896TIP3    H224180   2.790   6.419   5.941 -1.4347 -0.9589 -0.9590
  897TIP3   OH224181   4.773   2.715   4.481  0.5831  0.0324  0.0899
  897TIP3    H124182   4.733   2.652   4.420 -0.3160 -1.3087  1.9595
  897TIP3    H224183   4.711   2.788   4.483  1.2552  0.6977 -1.5137
  898TIP3   OH224184   2.405   4.704   3.874 -0.0213 -0.3251  0.0784
  898TIP3    H124185   2.321   4.659   3.885  1.5766 -3.6131 -0.0551
  898TIP3    H224186   2.439   4.672   3.791  1.8815  0.0167  0.6761
  899TIP3   OH224187   3.738   1.408  12.430 -0.2449 -0.6001 -0.2564
  899TIP3    H124188   3.693   1.339  12.381  0.1943 -0.8190 -0.3497
  899TIP3    H224189   3.710   1.396  12.520 -0.1584 -0.9088 -0.2706
  900TIP3   OH224190   3.808   5.850   1.289 -0.1183  0.4597  0.1375
  900TIP3    H124191   3.728   5.902   1.295  0.4582  1.5888 -1.3604
  900TIP3    H224192   3.875   5.903   1.331  0.6539  1.4286 -2.1427
  901TIP3   OH224193   2.858   3.972  13.630 -0.2545  0.2816  0.5733
  901TIP3    H124194   2.875   3.891  13.679 -0.6370  0.7601  1.5216
  901TIP3    H224195   2.791   4.017  13.682 -0.6915  0.7962 -0.4139
  902TIP3   OH224196   4.712   4.103  16.309  0.0208  0.2569 -0.2725
  902TIP3    H124197   4.636   4.160  16.322 -0.2819 -0.0759 -0.5478
  902TIP3    H224198   4.753   4.137  16.230  0.9317  1.2674  0.6063
  903TIP3   OH224199   1.295   1.019   5.246  0.1784 -0.1446  0.3155
  903TIP3    H124200   1.366   0.959   5.223  1.2593  0.1978  2.5091
  903TIP3    H224201   1.216   0.977   5.212  1.2097 -1.4528 -0.5579
  904TIP3   OH224202   6.653   1.206   1.684 -0.1384 -0.0106 -0.8926
  904TIP3    H124203   6.588   1.142   1.710 -0.1319  0.6124  0.7556
  904TIP3    H224204   6.612   1.291   1.701  1.9591  0.4585  2.8539
  905TIP3   OH224205   0.503   4.145   2.640  0.1058 -0.1266  0.7239
  905TIP3    H124206   0.438   4.076   2.634  0.0795 -0.1804  1.4573
  905TIP3    H224207   0.568   4.111   2.702 -0.1439  0.6809  1.4568
  906TIP3   OH224208   5.400   3.833  14.741 -0.2034  0.2918 -0.0696
  906TIP3    H124209   5.398   3.737  14.734  0.2695  0.3464 -1.3392
  906TIP3    H224210   5.342   3.863  14.670 -2.6167  0.9514  2.0399
  907TIP3   OH224211   4.311   1.474   0.452 -0.3494  0.0224  0.2251
  907TIP3    H124212   4.384   1.484   0.514 -0.3051 -0.2567  0.2208
  907TIP3    H224213   4.296   1.562   0.418 -0.6684  0.2582  0.9607
  908TIP3   OH224214   1.304   3.361  12.004  0.2282  0.3755 -0.0596
  908TIP3    H124215   1.374   3.371  11.940  1.2213  1.7184  1.1714
  908TIP3    H224216   1.344   3.315  12.078 -0.3001  0.7362  0.4696
  909TIP3   OH224217   2.452   4.879  15.492  0.2125  0.6314  0.2200
  909TIP3    H124218   2.514   4.810  15.468 -0.1145  0.4098  0.0016
  909TIP3    H224219   2.372   4.832  15.517 -0.4447  0.9603 -1.1674
  910TIP3   OH224220   6.531   3.102   4.886  0.2843 -0.6145 -0.0107
  910TIP3    H124221   6.619   3.068   4.876  0.5861  0.4102 -1.0319
  910TIP3    H224222   6.514   3.098   4.981  1.8820  0.2681  0.3379
  911TIP3   OH224223   1.012   4.382  12.938  0.0518  0.4861 -0.2240
  911TIP3    H124224   1.055   4.466  12.917  0.8132  0.3063  0.5619
  911TIP3    H224225   1.065   4.316  12.893 -1.1918  0.4854 -1.7734
  912TIP3   OH224226   5.834   1.221   5.027  0.7104 -0.3454 -0.0564
  912TIP3    H124227   5.823   1.273   4.947  0.1034 -0.8547 -0.3155
  912TIP3    H224228   5.914   1.170   5.012  1.2867  0.4788  0.1852
  913TIP3   OH224229   0.442   5.649  13.086  0.0227  0.2551  0.5585
  913TIP3    H124230   0.365   5.663  13.141  0.1412 -1.0168  1.0978
  913TIP3    H224231   0.458   5.733  13.044 -1.0392  0.8159  1.2398
  914TIP3   OH224232   4.278   0.798  15.486 -0.2172 -0.4410 -0.0938
  914TIP3    H124233   4.327   0.872  15.522  0.1077 -0.7469  0.0951
  914TIP3    H224234   4.225   0.837  15.417  0.1339 -0.0692 -0.1626
  915TIP3   OH224235   6.203   0.106  16.098  0.0113  0.3200  0.2350
  915TIP3    H124236   6.265   0.147  16.159  2.1666 -2.6710  0.3031
  915TIP3    H224237   6.167   0.032  16.148  0.3607 -1.0435 -1.4570
  916TIP3   OH224238   2.324   3.749  12.299 -0.3154 -0.0019  0.5484
  916TIP3    H124239   2.360   3.673  12.253  0.2197  0.2420  0.5523
  916TIP3    H224240   2.401   3.796  12.332 -0.6271  0.6590  0.3612
  917TIP3   OH224241   1.224   0.824   2.463  0.4401 -0.1268  0.6459
  917TIP3    H124242   1.264   0.738   2.453  0.5268 -0.0616  0.4167
  917TIP3    H224243   1.233   0.864   2.376 -0.6899 -0.3522  0.4189
  918TIP3   OH224244   1.735   3.246   2.174  0.1880 -0.3519  0.1276
  918TIP3    H124245   1.805   3.298   2.215  1.3803 -1.5419 -0.3156
  918TIP3    H224246   1.692   3.202   2.247 -1.2066  1.5906  0.5755
  919TIP3   OH224247   5.440   4.466  12.273  0.0442  0.0367 -0.5363
  919TIP3    H124248   5.380   4.400  12.308  0.0839  1.0596  1.6237
  919TIP3    H224249   5.416   4.473  12.180 -3.2928  0.4972  0.2498
  920TIP3   OH224250   4.041   0.066  11.724 -0.4213  0.2087  0.2956
  920TIP3    H124251   4.089   0.098  11.801  0.1671 -1.6723  0.7795
  920TIP3    H224252   4.098   0.087  11.650  0.0854  0.0552  0.6303
  921TIP3   OH224253   0.514   1.381  16.845 -0.0368 -0.2526 -0.6247
  921TIP3    H124254   0.577   1.363  16.915 -2.9334  0.8799  2.5814
  921TIP3    H224255   0.539   1.467  16.811 -1.4933  1.8274  2.9658
  922TIP3   OH224256   4.035   2.912  11.108  0.0612  0.2847 -0.1251
  922TIP3    H124257   4.025   2.821  11.135 -0.7185  0.3161 -0.2975
  922TIP3    H224258   3.949   2.937  11.074  0.8368  0.4072 -2.1449
  923TIP3   OH224259   5.719   0.615  10.679 -0.4078 -0.3646  0.1600
  923TIP3    H124260   5.657   0.688  10.690 -0.0215  0.0219 -0.1888
  923TIP3    H224261   5.664   0.540  10.660 -0.8240 -0.1933  0.6556
  924TIP3   OH224262   0.737   3.888   2.994 -0.0743  0.2043  0.1686
  924TIP3    H124263   0.674   3.948   3.033  1.4599  0.6898  2.0727
  924TIP3    H224264   0.723   3.805   3.038  0.5529  0.3073  0.5817
  925TIP3   OH224265   3.154   2.875  12.960 -0.5084  0.0889 -0.0252
  925TIP3    H124266   3.223   2.904  13.020 -1.0019 -0.2693  0.7367
  925TIP3    H224267   3.075   2.874  13.014 -0.8594 -0.7811 -0.5475
  926TIP3   OH224268   0.951   3.532   2.610 -0.0348 -0.4090 -0.2628
  926TIP3    H124269   0.904   3.615   2.603 -2.1088 -1.5923 -1.6197
  926TIP3    H224270   0.993   3.535   2.696 -3.5464  0.3354  1.6023
  927TIP3   OH224271   5.122   1.617   6.233  0.4440  0.0145  0.2656
  927TIP3    H124272   5.205   1.648   6.196 -0.1449 -0.0181 -1.1362
  927TIP3    H224273   5.141   1.529   6.265  0.9554  0.0118 -0.0311
  928TIP3   OH224274   1.260   0.072  12.720 -0.5424  0.5046  0.2153
  928TIP3    H124275   1.292   0.162  12.714  0.6494  0.0169 -1.7666
  928TIP3    H224276   1.303   0.037  12.798  1.3055  0.8550 -0.5826
  929TIP3   OH224277   6.431   0.331  12.935  0.4478  0.4129  0.2940
  929TIP3    H124278   6.431   0.299  12.845  1.5102  0.2247  0.3477
  929TIP3    H224279   6.404   0.423  12.928 -1.4834 -0.1212  0.0192
  930TIP3   OH224280   5.632   4.935  11.074  0.0377  0.3807 -0.4782
  930TIP3    H124281   5.680   4.865  11.119 -0.1877 -0.2360 -1.1795
  930TIP3    H224282   5.699   4.999  11.052  0.0878  0.9160  1.1181
  931TIP3   OH224283   4.337   4.600  10.786 -0.3476  0.1722  0.0425
  931TIP3    H124284   4.274   4.616  10.715 -0.9722  0.4183  0.6426
  931TIP3    H224285   4.287   4.554  10.852  0.4406 -0.7739  0.0000
  932TIP3   OH224286   0.167   3.406  14.634  0.2226  0.4908  0.1316
  932TIP3    H124287   0.129   3.491  14.656  1.2623  0.7207  1.1085
  932TIP3    H224288   0.228   3.424  14.563 -0.1829  0.4097 -0.2426
  933TIP3   OH224289   5.214   2.557   2.084  0.0068 -0.0378 -0.1997
  933TIP3    H124290   5.136   2.503   2.077  0.0225 -0.1766  0.5972
  933TIP3    H224291   5.261   2.521   2.159 -0.6642  1.9199  1.2340
  934TIP3   OH224292   3.292   3.995  17.024 -0.0072  0.1094 -0.3897
  934TIP3    H124293   3.311   4.077  17.069  0.1809  0.4489 -1.0746
  934TIP3    H224294   3.261   4.022  16.937 -3.8515 -0.3708  0.6504
  935TIP3   OH224295   6.787   2.377  16.254 -0.4909  0.6153 -0.1863
  935TIP3    H124296   6.839   2.339  16.183 -2.4157  0.1422 -1.4279
  935TIP3    H224297   6.802   2.471  16.248  0.0020  0.5065 -0.6837
  936TIP3   OH224298   1.510   4.563   0.413  0.2386 -0.2778 -0.2228
  936TIP3    H124299   1.490   4.470   0.408 -0.0505 -0.2751  0.6847
  936TIP3    H224300   1.605   4.567   0.413  0.2537 -0.5471 -0.5793
  937TIP3   OH224301   1.864   4.259   5.590 -0.6201 -0.4944 -0.1035
  937TIP3    H124302   1.798   4.194   5.612  0.3268 -1.3769  0.1846
  937TIP3    H224303   1.915   4.270   5.670 -1.0896  1.0159  0.0251
  938TIP3   OH224304   1.607   6.713  14.791  0.6546  0.0253 -0.4257
  938TIP3    H124305   1.659   6.736  14.714 -0.8469  0.7979 -1.2466
  938TIP3    H224306   1.596   6.795  14.839 -1.4632  0.3262 -1.3326
  939TIP3   OH224307   0.397   6.815   4.368  0.0233  0.2892  0.0390
  939TIP3    H124308   0.327   6.774   4.317  0.4598  0.4914 -0.7377
  939TIP3    H224309   0.356   6.891   4.408 -0.1825  0.4598 -0.4839
  940TIP3   OH224310   3.837   3.722  14.825  0.5860  0.3066 -0.3175
  940TIP3    H124311   3.918   3.731  14.774  0.3024  0.8771 -0.6782
  940TIP3    H224312   3.863   3.745  14.915  0.9883 -0.2580 -0.2826
  941TIP3   OH224313   5.933   6.642   4.505  0.0309 -0.2323 -0.5195
  941TIP3    H124314   5.981   6.681   4.432  1.2496  0.7134  0.7389
  941TIP3    H224315   5.997   6.584   4.547 -0.7384 -0.9604 -0.3252
  942TIP3   OH224316   3.856   5.798   5.264 -0.6871  0.1829  0.3390
  942TIP3    H124317   3.777   5.808   5.210 -0.5156  0.7093  0.1818
  942TIP3    H224318   3.872   5.704   5.265  1.0243  0.2864 -3.0297
  943TIP3   OH224319   4.819   0.689   5.788  0.2084  0.4104 -0.3639
  943TIP3    H124320   4.879   0.713   5.858  0.3143  1.5441 -0.8255
  943TIP3    H224321   4.866   0.708   5.707 -0.0584 -0.5123 -0.7499
  944TIP3   OH224322   1.546   3.228  15.835 -0.1263  0.9600 -0.3523
  944TIP3    H124323   1.596   3.291  15.783 -0.9368 -1.1103 -4.0171
  944TIP3    H224324   1.593   3.145  15.823  0.1089  0.4421  3.1284
  945TIP3   OH224325   1.332   1.070  13.801 -0.5756  0.1925  0.4351
  945TIP3    H124326   1.397   1.070  13.872 -1.3833  0.1277  1.1953
  945TIP3    H224327   1.372   1.124  13.733  0.6425 -0.5437  0.5324
  946TIP3   OH224328   0.892   4.406   5.292  0.3839 -0.0905  0.1175
  946TIP3    H124329   0.958   4.349   5.252  0.4403  0.8164 -1.1483
  946TIP3    H224330   0.851   4.352   5.359  1.3832 -1.1599 -0.1064
  947TIP3   OH224331   4.692   3.985   1.641  0.1662  0.0501  0.7853
  947TIP3    H124332   4.707   4.043   1.566 -0.1037 -2.0427 -1.0026
  947TIP3    H224333   4.600   3.959   1.633 -0.0758  0.3678  2.3061
  948TIP3   OH224334   3.112   2.068   5.319 -0.3724  0.2045  0.0367
  948TIP3    H124335   3.125   2.008   5.245  0.7946 -1.2966  1.3790
  948TIP3    H224336   3.108   2.010   5.396 -0.3645  1.7940  1.2827
  949TIP3   OH224337   3.724   2.195   4.565  0.2574 -0.4346  0.0546
  949TIP3    H124338   3.783   2.149   4.625 -0.2498 -0.6618  0.3793
  949TIP3    H224339   3.720   2.138   4.488  2.2997  0.6688 -0.9804
  950TIP3   OH224340   0.654   0.058   4.486 -0.1301  0.7377  0.0166
  950TIP3    H124341   0.563   0.037   4.509 -0.2444  0.5672 -0.5606
  950TIP3    H224342   0.694  -0.027   4.469  0.1808  0.8042  0.4071
  951TIP3   OH224343   4.434   3.711  16.867 -0.2141  0.2522  0.2220
  951TIP3    H124344   4.422   3.631  16.918 -1.9788 -0.6058 -1.4038
  951TIP3    H224345   4.529   3.722  16.862  0.1009 -1.9093  0.2805
  952TIP3   OH224346   4.843   1.701   3.232  0.2458  0.5806 -0.0216
  952TIP3    H124347   4.785   1.625   3.221  2.9185 -1.4382 -1.4118
  952TIP3    H224348   4.884   1.688   3.318  0.0833  0.9053  0.1041
  953TIP3   OH224349   6.778   1.632   4.421 -0.1895  0.2699  0.4666
  953TIP3    H124350   6.758   1.645   4.328  1.2609  0.8169  0.2073
  953TIP3    H224351   6.697   1.594   4.457 -0.3716 -1.1927 -1.2696
  954TIP3   OH224352   3.752   4.079   0.529 -0.3702 -0.1759  0.7197
  954TIP3    H124353   3.802   4.030   0.594 -0.8435 -0.8203  0.6099
  954TIP3    H224354   3.683   4.122   0.579 -0.3725 -0.1824  0.7218
  955TIP3   OH224355   4.402   5.004   5.489 -0.3272 -0.0231  0.2431
  955TIP3    H124356   4.385   4.963   5.404 -0.4280  0.8595 -0.1791
  955TIP3    H224357   4.408   4.931   5.551  1.9837 -0.8769 -0.8705
  956TIP3   OH224358   1.209   5.341  12.284 -0.4274  0.3540 -0.2057
  956TIP3    H124359   1.177   5.297  12.363  0.5645 -0.4893 -0.2547
  956TIP3    H224360   1.302   5.353  12.298  0.0107 -0.8824 -1.7127
  957TIP3   OH224361   5.846   4.625  12.853  0.4549 -0.4583  0.1898
  957TIP3    H124362   5.885   4.629  12.766  1.8543  2.9501  0.8152
  957TIP3    H224363   5.801   4.709  12.863 -0.8821 -1.3430  2.2428
  958TIP3   OH224364   6.142   1.640  16.496 -0.3259 -0.0028  0.5285
  958TIP3    H124365   6.192   1.721  16.488 -0.2543  0.1768  2.3897
  958TIP3    H224366   6.056   1.661  16.459 -0.5467  1.1708  1.6646
  959TIP3   OH224367   3.566   2.956   0.706  0.7285 -0.3807 -0.3505
  959TIP3    H124368   3.638   3.019   0.703  2.4994 -2.2803 -0.5736
  959TIP3    H224369   3.558   2.924   0.617 -2.7969  2.1437 -1.1569
  960TIP3   OH224370   2.397   5.040   0.942 -0.1630 -0.4914 -0.1665
  960TIP3    H124371   2.400   4.964   1.000  0.1255 -0.6642 -0.4063
  960TIP3    H224372   2.469   5.026   0.880 -0.3268 -0.1951 -0.4252
  961TIP3   OH224373   0.127   3.296  12.369 -0.2493 -0.4762 -0.3617
  961TIP3    H124374   0.160   3.348  12.296  0.9786 -1.5183 -0.5762
  961TIP3    H224375   0.154   3.344  12.447 -1.6008  0.6626 -0.5437
  962TIP3   OH224376   2.314   6.044   6.028  0.0434  0.1811 -0.6028
  962TIP3    H124377   2.277   6.125   6.064  1.2562  0.7122 -0.5361
  962TIP3    H224378   2.282   6.042   5.938  0.5178  1.0579 -0.8000
  963TIP3   OH224379   3.561   1.385   2.158 -0.2875  1.2239 -0.3864
  963TIP3    H124380   3.528   1.325   2.090  0.1676 -1.3456  1.5066
  963TIP3    H224381   3.485   1.403   2.213 -0.6140  3.1530 -1.4027
  964TIP3   OH224382   3.450   3.871  13.266  0.4785  0.5104 -0.5065
  964TIP3    H124383   3.526   3.923  13.238  0.8333  0.6327  0.6586
  964TIP3    H224384   3.482   3.819  13.339 -0.4416  0.2125 -0.3072
  965TIP3   OH224385   0.887   0.725   4.233  0.1386  0.4151  0.1377
  965TIP3    H124386   0.880   0.642   4.279  1.2831 -0.0093 -0.4369
  965TIP3    H224387   0.797   0.755   4.225 -0.1294  0.4910  2.6084
  966TIP3   OH224388   1.337   5.747   4.360 -0.5389  1.0012 -0.0434
  966TIP3    H124389   1.429   5.720   4.357 -1.0278 -0.7763 -1.0119
  966TIP3    H224390   1.326   5.802   4.283 -0.6898 -0.3307 -1.0003
  967TIP3   OH224391   3.929   4.252  14.934  0.3343  0.1411  0.3132
  967TIP3    H124392   3.881   4.203  14.867 -0.5469  0.9374  0.3462
  967TIP3    H224393   4.012   4.205  14.943 -0.3575 -1.1700  0.1259
  968TIP3   OH224394   3.253   3.134  11.671 -0.4340 -0.5178  0.5918
  968TIP3    H124395   3.302   3.194  11.614 -1.5176 -0.2176 -0.0736
  968TIP3    H224396   3.255   3.177  11.757  0.7362 -0.6866  0.6645
  969TIP3   OH224397   2.943   4.236  14.557 -0.5764  0.3216 -0.0937
  969TIP3    H124398   2.856   4.273  14.569 -0.3682  1.0728 -0.7634
  969TIP3    H224399   2.972   4.272  14.473 -1.0368 -2.7163 -1.6927
  970TIP3   OH224400   5.502   2.649   3.920  0.3824 -0.2283  0.2531
  970TIP3    H124401   5.557   2.718   3.882 -0.8562  1.5846  1.5460
  970TIP3    H224402   5.544   2.567   3.894  1.2590  0.9447 -2.3909
  971TIP3   OH224403   5.157   0.758   1.188  0.7956  0.1877  0.1817
  971TIP3    H124404   5.229   0.758   1.251  1.5332 -0.8648 -0.6222
  971TIP3    H224405   5.088   0.707   1.230  0.8405  0.4582  0.5927
  972TIP3   OH224406   2.254   6.056   5.764 -0.2727  0.1442 -0.3579
  972TIP3    H124407   2.305   6.076   5.686  1.7527 -0.8177  0.6437
  972TIP3    H224408   2.200   5.981   5.738  0.2995 -0.1032 -0.8663
  973TIP3   OH224409   6.323   2.827   3.894  0.1658 -0.2076  0.2331
  973TIP3    H124410   6.404   2.879   3.890 -0.5137  0.8444 -2.7397
  973TIP3    H224411   6.353   2.736   3.893  1.3426  0.1628  0.3619
  974TIP3   OH224412   0.888   5.684  13.547 -0.6630 -0.1205  0.1431
  974TIP3    H124413   0.925   5.704  13.461 -0.9904 -0.5222 -0.0956
  974TIP3    H224414   0.901   5.764  13.598 -1.3337  0.4573 -0.5744
  975TIP3   OH224415   5.089   4.604  16.234 -0.4866  0.7944 -0.2891
  975TIP3    H124416   5.170   4.618  16.185 -1.1064  1.5729 -1.1163
  975TIP3    H224417   5.023   4.656  16.188 -1.6094 -0.3177 -0.0032
  976TIP3   OH224418   2.410   2.000  15.095  0.0509 -1.0518  0.1732
  976TIP3    H124419   2.324   2.038  15.077 -0.2424 -2.5710 -1.8874
  976TIP3    H224420   2.394   1.906  15.105  1.5211 -1.4204 -0.6231
  977TIP3   OH224421   1.124   0.147  11.756 -0.4596  0.2902  0.7991
  977TIP3    H124422   1.200   0.202  11.740 -0.2723 -0.3769 -0.8511
  977TIP3    H224423   1.050   0.196  11.719 -0.4110 -0.1873  0.0383
  978TIP3   OH224424   0.305   5.675  14.564 -0.8020 -0.2793 -0.1439
  978TIP3    H124425   0.209   5.665  14.564 -0.7225 -1.0876 -0.9609
  978TIP3    H224426   0.338   5.586  14.555  0.0283  0.0750 -0.5925
  979TIP3   OH224427   3.587   5.159   3.058 -0.1598 -0.6498 -0.4165
  979TIP3    H124428   3.541   5.191   2.980 -2.2594 -0.1431  0.9536
  979TIP3    H224429   3.623   5.074   3.031 -1.9140 -1.0807 -1.5827
  980TIP3   OH224430   3.816   1.226   0.757 -0.1561  0.2519  0.1886
  980TIP3    H124431   3.787   1.150   0.806 -0.2515 -0.4061 -0.8529
  980TIP3    H224432   3.838   1.291   0.823 -1.1174 -0.2982  1.0707
  981TIP3   OH224433   5.997   3.452  10.783 -0.3535  0.3994 -0.3970
  981TIP3    H124434   5.951   3.518  10.730 -0.5995  0.4641 -0.1028
  981TIP3    H224435   6.084   3.489  10.796  0.9538 -1.0977 -3.6510
  982TIP3   OH224436   1.741   4.170   3.925  0.7282  0.6007  0.2439
  982TIP3    H124437   1.761   4.078   3.907 -1.8690 -0.0504  0.3365
  982TIP3    H224438   1.685   4.197   3.852  0.4209  1.7318  0.8845
  983TIP3   OH224439   5.654   4.146  15.344 -0.5300 -0.7643 -0.6812
  983TIP3    H124440   5.684   4.236  15.333  3.8234 -1.8100  0.8792
  983TIP3    H224441   5.559   4.150  15.329 -0.4038  3.8584 -1.4637
  984TIP3   OH224442   5.663   0.373   3.691  0.4087 -0.0410  0.4166
  984TIP3    H124443   5.615   0.300   3.729  0.4538 -1.1584 -1.5033
  984TIP3    H224444   5.667   0.352   3.597  1.2409  1.9747 -0.0453
  985TIP3   OH224445   2.400   2.973   0.305  0.0514 -0.4054 -0.2655
  985TIP3    H124446   2.338   3.024   0.357 -0.9648 -0.3621 -1.4734
  985TIP3    H224447   2.434   2.907   0.366  0.2269  0.7389  0.9029
  986TIP3   OH224448   0.626   3.916   4.163  0.4166  0.3098  0.1624
  986TIP3    H124449   0.660   4.001   4.136  1.0820  0.4887  1.4459
  986TIP3    H224450   0.657   3.906   4.254 -0.9667 -0.6081  0.5602
  987TIP3   OH224451   6.169   0.714  13.830 -0.3491 -0.4809  0.1655
  987TIP3    H124452   6.092   0.665  13.859 -0.5441 -1.1302 -1.3436
  987TIP3    H224453   6.222   0.726  13.909 -0.3056 -3.1306  0.6109
  988TIP3   OH224454   2.893   3.581  15.335  0.0565  0.3085 -0.0258
  988TIP3    H124455   2.851   3.617  15.256  2.0815 -0.4717 -1.5412
  988TIP3    H224456   2.961   3.645  15.356  0.2071 -0.0198  0.4709
  989TIP3   OH224457   5.510   0.691  15.505 -0.1035 -0.3124 -0.5020
  989TIP3    H124458   5.595   0.724  15.536 -0.5016 -0.6034  0.9460
  989TIP3    H224459   5.532   0.612  15.456  0.4754 -0.3517 -0.1898
  990TIP3   OH224460   3.841   2.371  10.674  0.4407 -0.7193  0.1430
  990TIP3    H124461   3.767   2.310  10.668 -0.4118  0.4339 -1.5900
  990TIP3    H224462   3.801   2.457  10.687  1.4093  0.0233 -1.5269
  991TIP3   OH224463   3.840   3.646  16.840 -0.1012  0.1188  0.0385
  991TIP3    H124464   3.823   3.563  16.796 -2.3736  1.1701 -1.2445
  991TIP3    H224465   3.935   3.657  16.835  0.0187 -1.2825 -1.9158
  992TIP3   OH224466   1.821   0.121  14.266  0.0955  0.5830  0.0805
  992TIP3    H124467   1.755   0.099  14.200 -0.3449 -0.5627  0.8727
  992TIP3    H224468   1.823   0.216  14.267  0.1519  0.6295 -1.6155
  993TIP3   OH224469   3.618   5.965   0.146  0.0543 -0.8380 -0.0479
  993TIP3    H124470   3.689   5.976   0.209 -0.9394 -1.2410  1.2079
  993TIP3    H224471   3.599   5.871   0.148  0.3350 -0.9404 -1.3571
  994TIP3   OH224472   2.018   1.222   4.759  0.7785  0.6040 -0.0355
  994TIP3    H124473   1.974   1.233   4.675  1.1256  2.1459 -0.0632
  994TIP3    H224474   2.096   1.170   4.739 -0.1405 -0.7042 -0.2923
  995TIP3   OH224475   3.269   2.342   6.243  0.4004 -0.3277  0.6601
  995TIP3    H124476   3.286   2.273   6.307  1.0725 -0.5465  0.2689
  995TIP3    H224477   3.174   2.354   6.244  0.1853 -1.7979  0.2024
  996TIP3   OH224478   4.521   5.965  14.317  0.2711  0.0184  0.2913
  996TIP3    H124479   4.488   5.998  14.234  2.4754  2.1701  0.1684
  996TIP3    H224480   4.458   5.998  14.382  0.8887  2.2087 -0.1303
  997TIP3   OH224481   5.259   2.244   0.909 -1.0484  0.2332  0.3318
  997TIP3    H124482   5.326   2.232   0.976 -0.1073  1.6777 -0.3098
  997TIP3    H224483   5.258   2.338   0.891 -1.7288 -0.0264 -1.2060
  998TIP3   OH224484   4.957   2.859  10.952 -0.0227  0.3969 -0.3121
  998TIP3    H124485   4.921   2.802  10.884 -0.7648  1.2306 -0.6391
  998TIP3    H224486   4.881   2.897  10.995  0.4548  0.9089  0.1055
  999TIP3   OH224487   0.188   3.395  11.700  0.2987  0.2474  0.2103
  999TIP3    H124488   0.273   3.388  11.656  0.2592 -0.1033  0.1893
  999TIP3    H224489   0.142   3.314  11.678 -1.3146  1.7344 -2.4449
 1000TIP3   OH224490   5.410   4.495  12.013  0.1000  0.1034 -0.9509
 1000TIP3    H124491   5.365   4.449  11.942 -1.0519 -0.9797  0.4066
 1000TIP3    H224492   5.358   4.575  12.026 -0.3502 -0.2357 -0.6199
 1001TIP3   OH224493   2.069   6.504  15.860  0.3016  0.2430 -0.0457
 1001TIP3    H124494   2.060   6.409  15.852  0.3728  0.3128 -1.0850
 1001TIP3    H224495   1.990   6.532  15.907 -0.2061 -0.2136 -0.6247
 1002TIP3   OH224496   0.791   1.712  14.891 -0.1109  0.2021  0.3556
 1002TIP3    H124497   0.855   1.665  14.839  0.4890  1.3043  0.0820
 1002TIP3    H224498   0.706   1.681  14.859  0.2553 -0.9452  0.4342
 1003TIP3   OH224499   4.805   2.158  12.657 -0.4154  0.9859  0.2258
 1003TIP3    H124500   4.763   2.175  12.741 -1.3382  1.7772 -0.3712
 1003TIP3    H224501   4.893   2.128  12.680 -1.1997 -0.4917  1.5073
 1004TIP3   OH224502   6.315   5.819   4.477 -0.3994  0.3036  0.5455
 1004TIP3    H124503   6.324   5.827   4.572  1.0820 -0.2792  0.4734
 1004TIP3    H224504   6.395   5.775   4.449  1.0330  3.7357 -1.4198
 1005TIP3   OH224505   2.143   0.074   1.270  0.2441 -0.2527  0.2929
 1005TIP3    H124506   2.183  -0.010   1.294 -0.8048 -2.4148 -4.3971
 1005TIP3    H224507   2.049   0.057   1.272 -0.1049  1.5081  1.0637
 1006TIP3   OH224508   2.641   2.565  16.230  0.7891  0.3172 -0.0782
 1006TIP3    H124509   2.637   2.470  16.240 -0.3975  0.4272  0.6679
 1006TIP3    H224510   2.587   2.583  16.152  3.2062  0.1859 -1.8871
 1007TIP3   OH224511   5.443   1.818  12.154  0.2797  0.1058 -0.3517
 1007TIP3    H124512   5.490   1.788  12.232  0.3155 -1.4469 -0.9430
 1007TIP3    H224513   5.363   1.860  12.189  0.2773 -0.5894  0.5148
 1008TIP3   OH224514   4.967   0.682  15.029  0.1598  0.1892  0.4124
 1008TIP3    H124515   4.979   0.725  14.944 -1.8272 -2.0056 -1.1068
 1008TIP3    H224516   5.055   0.656  15.054  0.6752 -0.4030 -1.7587
 1009TIP3   OH224517   4.796   0.569  12.144  0.4218  0.6556  0.1414
 1009TIP3    H124518   4.755   0.534  12.065  1.2134  5.0411 -2.5570
 1009TIP3    H224519   4.882   0.528  12.147 -0.5312 -1.4363  0.2841
 1010TIP3   OH224520   4.621   2.908  17.202 -0.0629  0.2527 -0.1382
 1010TIP3    H124521   4.673   2.987  17.218 -0.8867  0.6863  0.4881
 1010TIP3    H224522   4.641   2.884  17.112  1.7349  0.0111  0.2777
 1011TIP3   OH224523   5.290   2.696   1.227 -0.2590 -0.0760  0.6767
 1011TIP3    H124524   5.345   2.638   1.279  3.4983  2.3709 -0.1768
 1011TIP3    H224525   5.328   2.695   1.139 -1.6389  1.6930 -0.0226
 1012TIP3   OH224526   2.378   6.759  10.832  0.3674 -0.2275  0.0774
 1012TIP3    H124527   2.450   6.753  10.769  0.6559 -0.9078  0.4585
 1012TIP3    H224528   2.374   6.852  10.855  1.8801 -0.3169  0.8948
 1013TIP3   OH224529   5.098   0.609  12.172 -0.2961 -0.3323  0.4009
 1013TIP3    H124530   5.116   0.549  12.099  2.8849 -0.1173  0.8685
 1013TIP3    H224531   5.127   0.694  12.140 -0.6575  0.1156  1.2563
 1014TIP3   OH224532   2.361   4.424  13.706 -0.3555  0.3566  0.2626
 1014TIP3    H124533   2.457   4.430  13.712 -0.4185  0.2812  2.1396
 1014TIP3    H224534   2.345   4.355  13.642  0.9207 -1.2004  1.5274
 1015TIP3   OH224535   4.489   5.222  14.165 -0.5424 -0.3841 -0.8487
 1015TIP3    H124536   4.549   5.260  14.229 -1.1368 -2.1208  0.8452
 1015TIP3    H224537   4.478   5.290  14.099  1.7907  0.6824 -0.2446
 1016TIP3   OH224538   4.401   1.259   3.553 -0.0128 -0.5840 -0.3232
 1016TIP3    H124539   4.381   1.315   3.478 -0.2433 -1.1222 -0.6650
 1016TIP3    H224540   4.342   1.185   3.545 -0.5384 -0.3129  0.7824
 1017TIP3   OH224541   0.634   6.424   0.930  0.0477 -0.8724 -0.8341
 1017TIP3    H124542   0.714   6.467   0.961 -0.3141  0.9349 -2.2311
 1017TIP3    H224543   0.567   6.450   0.993  0.4127 -1.8891 -0.0031
 1018TIP3   OH224544   2.378   6.589  12.473 -0.1750 -0.0110  0.6712
 1018TIP3    H124545   2.423   6.589  12.558 -1.3182 -1.3325  1.3129
 1018TIP3    H224546   2.445   6.562  12.410  0.5548  0.4891  1.2205
 1019TIP3   OH224547   2.616   0.897  14.062 -0.1479  0.4775 -0.4450
 1019TIP3    H124548   2.706   0.903  14.031 -0.0774 -1.2862 -0.7159
 1019TIP3    H224549   2.623   0.863  14.151 -0.5492 -2.3276 -1.3841
 1020TIP3   OH224550   6.433   0.495   1.707 -0.0092  0.9149  0.3565
 1020TIP3    H124551   6.510   0.502   1.650 -0.4126 -0.8307 -0.4727
 1020TIP3    H224552   6.459   0.432   1.774 -0.8256  0.0204 -0.1491
 1021TIP3   OH224553   6.205   0.325  11.112 -0.0449 -0.0690  0.2385
 1021TIP3    H124554   6.261   0.261  11.068  0.4583  0.0775  0.6631
 1021TIP3    H224555   6.157   0.367  11.040  0.6332  0.0380 -0.1594
 1022TIP3   OH224556   0.339   4.797   5.731 -0.3639  0.5587 -0.1214
 1022TIP3    H124557   0.302   4.820   5.645 -1.2371  0.9194  0.3429
 1022TIP3    H224558   0.424   4.839   5.732  1.4453 -2.5619 -2.3597
 1023TIP3   OH224559   6.385   2.305   2.591 -0.4882  0.1565  0.2544
 1023TIP3    H124560   6.331   2.379   2.619  0.8631  1.6394 -0.8613
 1023TIP3    H224561   6.432   2.337   2.514  1.6601 -1.1728  0.9099
 1024TIP3   OH224562   0.980   5.723   2.384  0.3022  0.5437 -0.3578
 1024TIP3    H124563   0.925   5.690   2.455  0.9888  0.3676  0.1015
 1024TIP3    H224564   0.967   5.818   2.386 -0.8283  0.4232 -0.9718
 1025TIP3   OH224565   2.623   5.394  12.756  0.4026 -0.1638  0.3320
 1025TIP3    H124566   2.560   5.321  12.756  1.6291 -1.2875  1.4608
 1025TIP3    H224567   2.695   5.362  12.702  0.1449  1.0288 -0.7726
 1026TIP3   OH224568   3.428   2.318  15.126  0.7494 -0.6308 -0.0931
 1026TIP3    H124569   3.383   2.254  15.181  0.7104  0.1975  0.8737
 1026TIP3    H224570   3.509   2.274  15.100  0.9609 -0.8955  0.9727
 1027TIP3   OH224571   5.310   4.883   4.779 -0.2875  0.0306  0.4630
 1027TIP3    H124572   5.252   4.950   4.816 -0.6509 -1.1172  2.0889
 1027TIP3    H224573   5.297   4.889   4.685 -0.4781  2.0758  0.5666
 1028TIP3   OH224574   6.816   3.842   6.092 -0.1558  0.3926  0.5769
 1028TIP3    H124575   6.798   3.887   6.175 -0.4521  0.5132  0.4496
 1028TIP3    H224576   6.864   3.764   6.117 -1.9071 -0.5844  1.0527
 1029TIP3   OH224577   5.944   3.979  14.581 -0.3304  0.0016  0.3313
 1029TIP3    H124578   5.875   4.007  14.641 -2.0199 -1.3640 -0.8911
 1029TIP3    H224579   5.898   3.960  14.499  1.8331  1.4338 -1.3417
 1030TIP3   OH224580   5.308   1.074   4.068  0.0579  0.0258  0.2761
 1030TIP3    H124581   5.232   1.024   4.038  0.3804 -0.4800  0.2789
 1030TIP3    H224582   5.315   1.147   4.007 -0.5841  0.2193  0.4318
 1031TIP3   OH224583   4.816   5.872  12.202  0.6734 -0.2136  0.0252
 1031TIP3    H124584   4.761   5.808  12.159  1.1126 -1.4565  1.2186
 1031TIP3    H224585   4.834   5.834  12.289  3.3353  0.1190 -0.2757
 1032TIP3   OH224586   5.807   4.155  16.343  0.2503  0.6312  0.4177
 1032TIP3    H124587   5.885   4.208  16.359 -0.5445  1.8000  0.5320
 1032TIP3    H224588   5.734   4.209  16.373 -0.7741  0.3179 -1.3417
 1033TIP3   OH224589   6.311   0.203  16.332 -0.0646  0.2720  0.0056
 1033TIP3    H124590   6.328   0.127  16.388 -0.5956  0.0203 -0.1607
 1033TIP3    H224591   6.384   0.262  16.347  0.3613 -0.2824  0.1336
 1034TIP3   OH224592   0.653   3.805   1.857  0.1741 -0.2752 -0.1174
 1034TIP3    H124593   0.680   3.725   1.903  2.1145 -0.9892 -2.2993
 1034TIP3    H224594   0.729   3.862   1.860 -0.3197  0.4410 -0.7481
 1035TIP3   OH224595   1.125   1.703  15.990  0.4670 -1.0838 -0.3516
 1035TIP3    H124596   1.191   1.713  15.920  0.5443 -0.1414 -0.1583
 1035TIP3    H224597   1.176   1.702  16.071  0.1916  1.1438 -0.0869
 1036TIP3   OH224598   6.441   0.321  13.708  0.5531 -0.5003 -0.3422
 1036TIP3    H124599   6.379   0.251  13.733  0.4798 -1.4397 -2.8565
 1036TIP3    H224600   6.384   0.394  13.683  0.6336  1.0209  3.3616
 1037TIP3   OH224601   6.373   2.715  16.717  0.1446 -0.3141 -0.4419
 1037TIP3    H124602   6.288   2.678  16.738 -0.2634  0.4778 -0.6699
 1037TIP3    H224603   6.355   2.806  16.692  1.1493  0.1204  0.3309
 1038TIP3   OH224604   1.666   4.867   0.683 -0.2278  0.2433 -0.7533
 1038TIP3    H124605   1.628   4.815   0.754  0.0342  0.2475 -0.6074
 1038TIP3    H224606   1.670   4.956   0.719  0.6582  0.1036 -0.4614
 1039TIP3   OH224607   5.120   0.322   0.834  0.3310 -0.7790  0.4057
 1039TIP3    H124608   5.136   0.399   0.888  0.2718 -0.0348 -0.6052
 1039TIP3    H224609   5.119   0.249   0.895 -0.5310  0.1211  1.5102
 1040TIP3   OH224610   1.660   0.829  14.886 -0.1125 -0.6985  0.1490
 1040TIP3    H124611   1.614   0.746  14.900 -2.4437  0.6897  1.3368
 1040TIP3    H224612   1.688   0.856  14.974  0.3046 -0.0655 -0.1705
 1041TIP3   OH224613   1.071   0.147   0.103  0.3541  0.4367 -0.3574
 1041TIP3    H124614   1.042   0.131   0.193  0.1309  0.0928 -0.4868
 1041TIP3    H224615   1.151   0.199   0.113  0.1128  0.7472  0.0257
 1042TIP3   OH224616   2.179   5.207  12.537 -0.8843  0.2364 -1.0880
 1042TIP3    H124617   2.224   5.264  12.600 -2.1103 -0.6791  0.7054
 1042TIP3    H224618   2.174   5.122  12.581 -0.2212 -0.9778 -3.1781
 1043TIP3   OH224619   1.326   0.391  14.376 -0.1310 -0.6960 -0.0150
 1043TIP3    H124620   1.276   0.400  14.458 -1.1665 -1.4958 -0.5326
 1043TIP3    H224621   1.276   0.443  14.313  1.9904  2.0213  0.3394
 1044TIP3   OH224622   6.092   3.353   0.818  0.3049  0.0646  0.3375
 1044TIP3    H124623   6.140   3.423   0.774  0.0083  0.2522  0.3095
 1044TIP3    H224624   6.129   3.350   0.906  1.7943 -1.1692 -0.2913
 1045TIP3   OH224625   5.837   0.339   4.048 -0.1074 -0.8041 -0.3626
 1045TIP3    H124626   5.742   0.331   4.037 -0.2299 -0.0733  0.0789
 1045TIP3    H224627   5.849   0.352   4.142  0.4778 -1.3896 -0.3470
 1046TIP3   OH224628   4.376   3.481  12.919  0.5787  0.0148  0.4395
 1046TIP3    H124629   4.340   3.425  12.987  1.3124 -1.1769 -0.1220
 1046TIP3    H224630   4.356   3.570  12.948 -0.1826 -0.5104  1.5922
 1047TIP3   OH224631   5.353   3.351   3.508 -0.0939 -0.0674  0.3663
 1047TIP3    H124632   5.388   3.319   3.591  3.4359  1.5302 -0.3009
 1047TIP3    H224633   5.387   3.290   3.443  0.7989  1.0451 -0.2464
 1048TIP3   OH224634   5.738   4.333  16.854  0.5567 -0.2970  0.6947
 1048TIP3    H124635   5.800   4.294  16.915  1.4603 -0.5146 -0.3323
 1048TIP3    H224636   5.720   4.420  16.890  1.6714 -0.1314  0.8614
 1049TIP3   OH224637   2.006   3.316   6.689  0.4084  0.0047 -0.3155
 1049TIP3    H124638   2.001   3.246   6.754  1.1208 -0.9823 -1.2818
 1049TIP3    H224639   2.099   3.331   6.677  0.2866  2.4523  1.2162
 1050TIP3   OH224640   3.413   6.483  17.217  0.1162  0.2055 -0.1507
 1050TIP3    H124641   3.490   6.457  17.267 -0.3238  0.1824  0.5334
 1050TIP3    H224642   3.447   6.511  17.132  0.8319 -0.2170 -0.0100
 1051TIP3   OH224643   5.122   6.623  14.746 -0.2464 -0.5734  0.6067
 1051TIP3    H124644   5.081   6.649  14.663 -0.1095 -0.2167  0.6520
 1051TIP3    H224645   5.057   6.643  14.813 -0.8135 -1.9131  0.4881
 1052TIP3   OH224646   1.687   4.694  12.986  0.0568  0.6242 -0.1311
 1052TIP3    H124647   1.740   4.677  12.908  0.1292  0.9354 -0.1533
 1052TIP3    H224648   1.605   4.730  12.953 -1.2718 -2.2766 -0.2738
 1053TIP3   OH224649   3.176   3.307   0.134  0.2732  0.0313  0.1875
 1053TIP3    H124650   3.235   3.272   0.067 -1.5606 -1.4596 -0.7203
 1053TIP3    H224651   3.088   3.297   0.098 -0.6498  1.2303  1.9261
 1054TIP3   OH224652   4.635   5.349   4.533  0.5949  0.2989 -0.3414
 1054TIP3    H124653   4.568   5.414   4.555  0.5151 -0.2134  1.0588
 1054TIP3    H224654   4.689   5.343   4.612  2.5012  0.9127 -1.5370
 1055TIP3   OH224655   1.301   3.247   0.224 -0.3442  0.3087 -0.3549
 1055TIP3    H124656   1.387   3.241   0.266  0.0658 -1.9107 -1.3426
 1055TIP3    H224657   1.306   3.325   0.169  1.0142  0.2887 -0.2913
 1056TIP3   OH224658   1.864   3.436  16.042  0.2248  0.4324 -0.2081
 1056TIP3    H124659   1.916   3.515  16.061  1.5955 -1.0809  3.2151
 1056TIP3    H224660   1.773   3.466  16.045  0.7191  1.9677  0.7047
 1057TIP3   OH224661   0.369   1.524   0.364 -0.3626  0.2615  0.4313
 1057TIP3    H124662   0.366   1.541   0.270  1.6226  2.2522  0.6313
 1057TIP3    H224663   0.442   1.463   0.375 -1.1583 -0.6717  0.6252
 1058TIP3   OH224664   1.200   4.011   0.370 -0.0101  0.2778 -0.1342
 1058TIP3    H124665   1.105   4.018   0.364  0.0836  0.3196 -4.0681
 1058TIP3    H224666   1.218   3.917   0.370  0.0003  0.2729  0.4146
 1059TIP3   OH224667   6.672   5.700   2.192  0.3497  0.4550  0.5132
 1059TIP3    H124668   6.689   5.782   2.146  0.7490  0.3844  0.5374
 1059TIP3    H224669   6.577   5.688   2.184  0.6216 -0.5207 -1.8790
 1060TIP3   OH224670   5.829   1.269   5.828  0.5486  0.1619  0.2148
 1060TIP3    H124671   5.804   1.244   5.739  1.2786 -1.2510  0.3828
 1060TIP3    H224672   5.923   1.287   5.822  0.8580 -1.0864  0.9079
 1061TIP3   OH224673   3.476   3.421   5.492 -0.1668 -0.0178 -0.1705
 1061TIP3    H124674   3.424   3.412   5.572  1.3850  1.7106  1.1211
 1061TIP3    H224675   3.440   3.498   5.448 -0.3031 -0.3117 -0.5816
 1062TIP3   OH224676   4.006   1.249  16.662  0.1183 -0.7073  0.2531
 1062TIP3    H124677   3.929   1.265  16.717  0.4909  2.0759  0.1137
 1062TIP3    H224678   4.068   1.207  16.721 -0.9666 -1.6694  0.7643
 1063TIP3   OH224679   2.848   1.110  11.901 -0.1060 -0.3532 -0.0573
 1063TIP3    H124680   2.798   1.135  11.823 -0.9202  0.2302  0.6297
 1063TIP3    H224681   2.931   1.078  11.867  0.0096  0.9641 -1.1111
 1064TIP3   OH224682   0.708   0.279   0.300 -0.3623  0.4177  0.0815
 1064TIP3    H124683   0.657   0.305   0.223 -2.5699  2.0454  1.9584
 1064TIP3    H224684   0.645   0.238   0.358  1.6752 -2.8263  0.2546
 1065TIP3   OH224685   3.627   4.700  12.342  0.0478  0.1878 -0.3863
 1065TIP3    H124686   3.664   4.766  12.284  0.6920 -1.3633 -1.8156
 1065TIP3    H224687   3.593   4.750  12.417  1.7583  1.9782 -0.7322
 1066TIP3   OH224688   5.314   4.364   4.845  0.2874  0.4068  0.0603
 1066TIP3    H124689   5.333   4.358   4.752  4.4036 -0.7316  0.7582
 1066TIP3    H224690   5.277   4.278   4.867 -0.2315  0.5064 -0.3843
 1067TIP3   OH224691   5.188   3.505   4.904  0.0731 -0.1572 -0.1107
 1067TIP3    H124692   5.201   3.571   4.971  1.9972 -1.3131  0.7315
 1067TIP3    H224693   5.112   3.455   4.935 -0.5127  0.7609 -0.0373
 1068TIP3   OH224694   4.029   4.927   3.512 -0.1161 -0.0356  0.2473
 1068TIP3    H124695   4.040   4.954   3.603 -0.8234  0.0441  0.3118
 1068TIP3    H224696   3.963   4.859   3.515  0.5131 -0.6721 -0.1053
 1069TIP3   OH224697   1.275   5.124  15.645  0.5136  0.6777 -0.0013
 1069TIP3    H124698   1.364   5.156  15.656  0.6098  0.0836  1.1050
 1069TIP3    H224699   1.247   5.099  15.733 -0.2231 -0.5126 -0.5413
 1070TIP3   OH224700   3.147   6.074  14.858 -0.2664  0.0043 -0.0784
 1070TIP3    H124701   3.234   6.095  14.822  0.0427 -1.5695 -0.3013
 1070TIP3    H224702   3.086   6.107  14.793  0.2572 -1.7012 -1.4992
 1071TIP3   OH224703   2.087   4.621   0.479 -0.4368 -0.0953 -0.6307
 1071TIP3    H124704   2.000   4.648   0.508 -1.3101  1.0380 -3.8847
 1071TIP3    H224705   2.071   4.553   0.415  1.2246 -0.9975 -0.1533
 1072TIP3   OH224706   2.526   4.226   3.197  0.4321 -0.1554 -0.0191
 1072TIP3    H124707   2.534   4.160   3.266 -2.4067 -0.6036 -0.0054
 1072TIP3    H224708   2.554   4.181   3.117  0.6385 -0.6605  0.3321
 1073TIP3   OH224709   1.931   3.927   5.578 -0.3168 -0.4063 -0.5725
 1073TIP3    H124710   1.885   3.987   5.637 -0.8725  0.2134 -1.5999
 1073TIP3    H224711   1.872   3.918   5.503 -0.6763 -2.9798 -0.0652
 1074TIP3   OH224712   1.791   2.308   1.986 -0.7246 -0.6294  0.8052
 1074TIP3    H124713   1.735   2.264   1.922 -0.2078 -0.9582  0.5681
 1074TIP3    H224714   1.797   2.247   2.059 -0.5517 -0.6649  0.7626
 1075TIP3   OH224715   1.061   3.178   1.119  0.3644  0.0566 -0.1838
 1075TIP3    H124716   1.109   3.114   1.172  2.9979  2.1093  0.1014
 1075TIP3    H224717   1.090   3.162   1.030 -0.7909 -0.6105 -0.4623
 1076TIP3   OH224718   1.856   0.404   1.739 -0.3600 -0.1483 -0.1334
 1076TIP3    H124719   1.846   0.346   1.814 -1.0664 -0.1939 -0.2643
 1076TIP3    H224720   1.944   0.441   1.750 -0.3713 -0.3233  0.5907
 1077TIP3   OH224721   4.988   6.807  11.569  0.4288  0.1655 -0.8321
 1077TIP3    H124722   5.074   6.846  11.556  0.9429 -0.1790  1.2238
 1077TIP3    H224723   4.964   6.831  11.658 -0.5104 -1.7583 -0.5138
 1078TIP3   OH224724   3.628   5.947   2.755  0.0835 -0.1166  0.1126
 1078TIP3    H124725   3.648   5.853   2.760  0.1388 -0.0828  0.6370
 1078TIP3    H224726   3.569   5.963   2.829 -1.4721 -0.0991 -1.0916
 1079TIP3   OH224727   5.161   5.000   1.539  0.1273  0.0781  0.2467
 1079TIP3    H124728   5.188   5.073   1.484  0.2236 -0.6190 -0.6593
 1079TIP3    H224729   5.065   5.005   1.541  0.1785  1.2778  1.6897
 1080TIP3   OH224730   6.235   0.001   3.099  0.0932  0.5806 -0.1838
 1080TIP3    H124731   6.220   0.052   3.178  2.4813 -1.1315  1.5277
 1080TIP3    H224732   6.184  -0.079   3.112  0.7896  0.1298 -0.1615
 1081TIP3   OH224733   3.627   1.448   3.302  0.8619 -0.2468 -0.0863
 1081TIP3    H124734   3.540   1.431   3.338  1.5046 -2.4925  0.5446
 1081TIP3    H224735   3.661   1.519   3.356  0.6300 -1.5090  1.7936
 1082TIP3   OH224736   0.127   0.606  11.571 -0.2376 -0.6276 -0.2379
 1082TIP3    H124737   0.059   0.582  11.507 -1.4819  0.3126  0.6837
 1082TIP3    H224738   0.203   0.555  11.545 -1.1323 -1.3158 -1.6383
 1083TIP3   OH224739   4.793   4.711  16.896 -0.1689  0.1638  0.0976
 1083TIP3    H124740   4.705   4.725  16.860 -0.6625 -1.1503  0.7281
 1083TIP3    H224741   4.777   4.674  16.983  1.0142  0.4539  0.4501
 1084TIP3   OH224742   0.316   5.433  15.632  0.5676  0.1227 -0.5482
 1084TIP3    H124743   0.305   5.468  15.543  0.8114 -0.6080 -0.8833
 1084TIP3    H224744   0.367   5.499  15.678  0.2002  0.6344 -0.8755
 1085TIP3   OH224745   3.454   0.926   2.337 -0.3917 -0.2768  0.3871
 1085TIP3    H124746   3.385   0.991   2.322  0.1557  0.6321  1.6591
 1085TIP3    H224747   3.534   0.969   2.310 -0.0157 -0.4153  1.2611
 1086TIP3   OH224748   6.785   3.293   1.658  1.0057 -0.4077  0.7882
 1086TIP3    H124749   6.878   3.304   1.637  0.5482  0.2264 -1.0287
 1086TIP3    H224750   6.751   3.382   1.663  0.2985 -0.6605  0.5229
 1087TIP3   OH224751   3.772   3.025   2.235  0.4803 -0.5101 -0.1260
 1087TIP3    H124752   3.694   3.053   2.187  1.2611  2.5379  0.1569
 1087TIP3    H224753   3.752   2.936   2.264 -3.0672  0.2948  0.3435
 1088TIP3   OH224754   5.724   4.648   5.937  0.1381  0.0268 -0.3798
 1088TIP3    H124755   5.739   4.672   6.029 -0.7221  1.2114 -0.5227
 1088TIP3    H224756   5.798   4.685   5.890 -0.2224  0.7875 -0.3561
 1089TIP3   OH224757   1.295   3.964   5.772  0.2271 -0.3407  0.6968
 1089TIP3    H124758   1.332   3.968   5.861  1.5674  1.4556  0.1127
 1089TIP3    H224759   1.201   3.973   5.786  0.4789  0.7624  1.9241
 1090TIP3   OH224760   2.340   4.958  12.579  0.5721  0.0297 -0.3553
 1090TIP3    H124761   2.331   4.870  12.543 -0.2956 -0.4387  0.9295
 1090TIP3    H224762   2.434   4.970  12.590  0.8910  0.2514 -2.8233
 1091TIP3   OH224763   6.441   2.166   1.707 -0.3792  0.0060 -0.0583
 1091TIP3    H124764   6.360   2.160   1.759 -0.4418 -0.1448 -0.1698
 1091TIP3    H224765   6.415   2.212   1.627  0.0780  1.6984  0.7394
 1092TIP3   OH224766   3.040   3.800   0.712  0.1903 -0.4271  0.3596
 1092TIP3    H124767   3.069   3.801   0.621 -0.4292 -0.5673  0.1570
 1092TIP3    H224768   3.028   3.708   0.733 -0.6896 -0.3532  0.2410
 1093TIP3   OH224769   1.082   0.617   0.623  0.4971  0.1350 -0.5348
 1093TIP3    H124770   1.094   0.591   0.532 -1.0657 -1.7627 -0.2684
 1093TIP3    H224771   1.151   0.570   0.670  1.8308  1.7580 -0.7698
 1094TIP3   OH224772   6.806   1.004  12.811 -0.2216  0.1465  0.8333
 1094TIP3    H124773   6.858   1.051  12.746 -0.4453 -0.9411 -0.1742
 1094TIP3    H224774   6.824   1.049  12.893  0.8933  0.9152  0.1990
 1095TIP3   OH224775   1.753   5.484  15.409 -0.2953 -0.0360  0.1702
 1095TIP3    H124776   1.719   5.425  15.342 -0.1924 -0.2177  0.2778
 1095TIP3    H224777   1.787   5.559  15.360  0.4138 -0.4820 -0.0261
 1096TIP3   OH224778   4.541   5.277  15.559 -0.0189 -0.0197 -0.3581
 1096TIP3    H124779   4.584   5.205  15.513  0.3155  0.3453 -0.6307
 1096TIP3    H224780   4.466   5.299  15.504 -0.5991 -0.6894  0.1443
 1097TIP3   OH224781   6.357   4.489   1.542 -0.2494 -0.4039  0.2933
 1097TIP3    H124782   6.382   4.467   1.452  3.1986  0.8217  0.8310
 1097TIP3    H224783   6.394   4.419   1.596 -1.2700 -0.5020  0.8994
 1098TIP3   OH224784   2.691   4.370  14.610  0.1106 -0.6933  0.1086
 1098TIP3    H124785   2.726   4.458  14.627 -0.2345 -0.2443 -1.3978
 1098TIP3    H224786   2.644   4.348  14.690 -0.9347  1.0673  0.0230
 1099TIP3   OH224787   2.840   1.470  11.849 -0.3896  0.0731  0.4877
 1099TIP3    H124788   2.746   1.484  11.838 -1.1109 -1.6372  3.4369
 1099TIP3    H224789   2.877   1.559  11.852 -1.7454  0.7706 -1.2635
 1100TIP3   OH224790   5.871   5.908   5.995 -0.4866  0.5141 -0.3559
 1100TIP3    H124791   5.945   5.853   6.021  0.0742  1.7748  0.7919
 1100TIP3    H224792   5.875   5.984   6.053 -0.4187  2.4684 -2.7312
 1101TIP3   OH224793   5.737   2.027   3.633  0.2331  0.2735 -0.2729
 1101TIP3    H124794   5.681   2.028   3.555 -0.3027  0.3255  0.1092
 1101TIP3    H224795   5.752   2.119   3.653 -0.5763  0.2758  0.3541
 1102TIP3   OH224796   0.608   3.379   2.541  0.1968 -0.1879 -0.5257
 1102TIP3    H124797   0.538   3.444   2.548  1.5022  1.5002 -2.1742
 1102TIP3    H224798   0.575   3.303   2.589 -1.0267  1.9706  2.3813
 1103TIP3   OH224799   2.800   3.061  16.750 -0.2506 -0.1641  0.0500
 1103TIP3    H124800   2.867   3.100  16.694 -0.9584 -0.2266 -0.8723
 1103TIP3    H224801   2.744   3.134  16.775  0.3136 -0.0660  1.0515
 1104TIP3   OH224802   4.403   5.543   5.296  0.7382  0.5855 -0.4376
 1104TIP3    H124803   4.476   5.525   5.354  0.1899  1.9579  0.7328
 1104TIP3    H224804   4.364   5.624   5.329 -2.3351 -0.9168  0.0282
 1105TIP3   OH224805   0.944   6.094   2.734 -0.2149  0.8028  0.6933
 1105TIP3    H124806   0.913   6.148   2.661  1.1247  0.7254  0.0413
 1105TIP3    H224807   0.868   6.088   2.792 -1.1606  1.2926 -0.4337
 1106TIP3   OH224808   0.453   2.467  13.650  0.1966 -0.4216  0.7937
 1106TIP3    H124809   0.371   2.458  13.699 -0.3386  0.1414  0.0236
 1106TIP3    H224810   0.428   2.453  13.559  0.7176  0.9429  0.4153
 1107TIP3   OH224811   4.696   3.628   5.845 -0.8047 -0.2846 -0.4011
 1107TIP3    H124812   4.769   3.685   5.870 -1.3949  0.2690  0.1163
 1107TIP3    H224813   4.714   3.545   5.889 -1.1199  0.2479  0.7952
 1108TIP3   OH224814   0.739   0.490   4.891 -0.3960 -0.1308 -0.1699
 1108TIP3    H124815   0.650   0.482   4.925  0.0056 -0.1076  0.9111
 1108TIP3    H224816   0.739   0.573   4.844  0.3820  2.6451  4.1735
 1109TIP3   OH224817   2.965   3.068  15.206  0.3895 -0.1011 -0.6730
 1109TIP3    H124818   2.969   3.081  15.300 -3.2139  1.9891 -0.6132
 1109TIP3    H224819   3.034   3.005  15.187 -0.0417 -2.2294  3.6279
 1110TIP3   OH224820   2.305   1.325   6.322 -0.4189  0.0336  0.5138
 1110TIP3    H124821   2.342   1.238   6.305  0.3822  0.4074  0.2733
 1110TIP3    H224822   2.213   1.309   6.343 -0.6789 -0.7278 -1.0843
 1111TIP3   OH224823   1.083   3.478   5.840  0.5720  0.4257 -0.3571
 1111TIP3    H124824   1.057   3.457   5.930 -1.3047 -0.5233 -1.0672
 1111TIP3    H224825   1.146   3.409   5.817  0.7022  0.3969  0.0812
 1112TIP3   OH224826   6.314   3.418   4.399  0.3144 -0.2698  0.2390
 1112TIP3    H124827   6.302   3.512   4.388  1.2888 -0.0764  0.6834
 1112TIP3    H224828   6.408   3.408   4.415  0.1380 -1.2708  0.7233
 1113TIP3   OH224829   2.896   4.470  15.786 -0.6642 -0.9306 -0.2002
 1113TIP3    H124830   2.896   4.554  15.740  0.5682 -1.1090 -0.5519
 1113TIP3    H224831   2.882   4.493  15.877  0.5532 -0.2341 -0.1611
 1114TIP3   OH224832   3.210   2.726   2.773  0.0860  0.5370 -0.7731
 1114TIP3    H124833   3.205   2.641   2.728 -0.3487 -0.0275  0.3000
 1114TIP3    H224834   3.119   2.746   2.795  0.2479  1.0185 -0.5446
 1115TIP3   OH224835   3.533   0.503  10.539  0.1867 -0.6465 -0.5048
 1115TIP3    H124836   3.571   0.571  10.482  0.6670 -1.8430 -1.6648
 1115TIP3    H224837   3.490   0.552  10.608  1.2933  0.8331 -0.8012
 1116TIP3   OH224838   6.022   4.312   3.748 -0.2940 -0.4420  0.4257
 1116TIP3    H124839   6.023   4.402   3.716  1.8552 -0.0403  1.4413
 1116TIP3    H224840   6.081   4.265   3.689 -0.9535 -1.0660  0.2524
 1117TIP3   OH224841   1.113   6.500  10.423  0.1241 -0.3131  0.1176
 1117TIP3    H124842   1.075   6.553  10.493  0.4797 -0.1570  0.1930
 1117TIP3    H224843   1.064   6.417  10.427 -2.0136  0.7755 -1.4477
 1118TIP3   OH224844   6.780   5.699  12.347  0.1053 -0.0004  0.2046
 1118TIP3    H124845   6.864   5.743  12.361  0.9231 -1.6537  0.7848
 1118TIP3    H224846   6.744   5.741  12.269  1.3167  0.9539  0.1198
 1119TIP3   OH224847   4.280   3.358  16.862 -0.6457 -0.0250 -0.2895
 1119TIP3    H124848   4.337   3.387  16.791  1.3575 -0.5447  1.0366
 1119TIP3    H224849   4.306   3.410  16.938 -1.4666 -0.7550  0.5324
 1120TIP3   OH224850   4.628   0.717   6.105 -0.0691 -0.3277  0.1063
 1120TIP3    H124851   4.641   0.683   6.193 -1.5046  0.2233  0.5602
 1120TIP3    H224852   4.556   0.779   6.113  0.4543  0.5148 -1.2738
 1121TIP3   OH224853   1.339   0.062   2.172 -0.2204 -0.2527 -0.0225
 1121TIP3    H124854   1.409   0.123   2.150 -0.6165 -0.4249 -1.9196
 1121TIP3    H224855   1.266   0.117   2.197 -0.0021 -0.0104  0.0861
 1122TIP3   OH224856   3.649   1.145   3.450  0.4299  0.4243 -0.1111
 1122TIP3    H124857   3.688   1.136   3.536 -0.1451 -0.3659  0.0761
 1122TIP3    H224858   3.591   1.221   3.458  0.2045  0.2150  0.2665
 1123TIP3   OH224859   6.696   2.105  12.596  0.4219 -0.7325 -0.5903
 1123TIP3    H124860   6.773   2.099  12.654  0.4648  1.5202 -0.3346
 1123TIP3    H224861   6.625   2.067  12.647  0.6818  0.2614  0.5538
 1124TIP3   OH224862   1.597   0.633  14.534  0.6266  1.0077 -0.0798
 1124TIP3    H124863   1.603   0.599  14.623  1.5184 -0.7011 -0.7501
 1124TIP3    H224864   1.615   0.557  14.478  1.5674  2.3504 -1.6892
 1125TIP3   OH224865   4.372   0.529  15.447 -0.3034  0.2024 -0.3493
 1125TIP3    H124866   4.314   0.579  15.504  0.6221  0.8188  0.0777
 1125TIP3    H224867   4.428   0.595  15.406 -0.0155 -0.3631 -0.8814
 1126TIP3   OH224868   4.066   1.589   0.921 -0.8183 -0.0649  0.0416
 1126TIP3    H124869   4.124   1.657   0.955 -1.6291  1.0997 -0.8238
 1126TIP3    H224870   4.027   1.628   0.843 -1.5732 -1.4022 -0.2718
 1127TIP3   OH224871   2.608   3.359   1.119  0.3616 -0.7266 -0.4800
 1127TIP3    H124872   2.699   3.388   1.121 -0.5779  2.4867  0.2273
 1127TIP3    H224873   2.569   3.407   1.046 -1.7269  1.5289  1.9357
 1128TIP3   OH224874   5.161   1.280   5.062 -0.1876 -0.9369 -0.0418
 1128TIP3    H124875   5.147   1.222   4.987 -1.6714 -2.3838  1.2591
 1128TIP3    H224876   5.079   1.275   5.111  0.6305  0.1867  1.5249
 1129TIP3   OH224877   6.094   4.237  15.029  0.1930  0.1733  0.0712
 1129TIP3    H124878   6.107   4.149  15.062  1.4504 -0.3564 -1.6796
 1129TIP3    H224879   6.174   4.256  14.980 -0.4970  1.8737 -0.4727
 1130TIP3   OH224880   6.200   2.187   3.608 -0.0817  0.4404  0.2215
 1130TIP3    H124881   6.143   2.110   3.615 -2.6154  2.1704 -0.1573
 1130TIP3    H224882   6.174   2.243   3.681  0.3123  1.8061 -0.6468
 1131TIP3   OH224883   4.781   6.579   1.449 -0.0380  0.3717 -0.5083
 1131TIP3    H124884   4.784   6.511   1.517  1.0778  0.9685  0.0618
 1131TIP3    H224885   4.749   6.534   1.371  0.6730 -0.8125 -0.1410
 1132TIP3   OH224886   5.672   5.714  16.348 -0.4860  0.1751  0.2099
 1132TIP3    H124887   5.706   5.803  16.336 -1.0541  0.2365 -1.2360
 1132TIP3    H224888   5.749   5.659  16.359 -0.1176  0.8096  0.8826
 1133TIP3   OH224889   1.829   2.896  16.969 -0.1215  0.1422  0.1442
 1133TIP3    H124890   1.797   2.976  17.012  1.5118  1.5651 -1.1156
 1133TIP3    H224891   1.776   2.888  16.890 -0.2880 -0.0391  0.2733
 1134TIP3   OH224892   4.827   1.429  14.213  0.1755 -0.5085 -0.3122
 1134TIP3    H124893   4.824   1.334  14.224  1.2642 -0.2812  3.0313
 1134TIP3    H224894   4.910   1.445  14.167  0.6402 -1.1386  0.2784
 1135TIP3   OH224895   1.690   3.594   0.666  0.4760  0.3195  0.2963
 1135TIP3    H124896   1.601   3.624   0.644  0.1108 -0.4564  0.6649
 1135TIP3    H224897   1.734   3.672   0.699  0.0472  0.7967 -0.2523
 1136TIP3   OH224898   5.775   3.124  15.827 -0.8193 -1.0855  0.5899
 1136TIP3    H124899   5.774   3.198  15.766  1.0062 -0.5640  1.1357
 1136TIP3    H224900   5.689   3.127  15.868 -2.0988 -1.4307 -1.8718
 1137TIP3   OH224901   6.255   1.113  11.299 -0.3077 -0.0924 -0.0133
 1137TIP3    H124902   6.219   1.025  11.308  0.0260 -0.0370  2.2893
 1137TIP3    H224903   6.320   1.120  11.368 -1.2664  2.4094  0.7245
 1138TIP3   OH224904   1.138   3.527  13.717  0.4007 -0.4569  0.3151
 1138TIP3    H124905   1.207   3.575  13.672 -1.6131 -0.2608 -2.9405
 1138TIP3    H224906   1.091   3.594  13.767 -0.4997  0.5131 -1.6917
 1139TIP3   OH224907   0.423   5.837  13.414 -0.3877  0.3430  0.1864
 1139TIP3    H124908   0.405   5.822  13.507 -0.1141  0.7720  0.3156
 1139TIP3    H224909   0.430   5.932  13.406  1.3648  0.2428  0.0877
 1140TIP3   OH224910   1.071   0.513   2.316 -0.2386 -0.8916  0.6300
 1140TIP3    H124911   1.137   0.581   2.332 -0.2205 -0.9024  0.6023
 1140TIP3    H224912   1.045   0.483   2.403 -0.4636 -0.6405  0.6510
 1141TIP3   OH224913   5.875   6.082   4.192  0.2033  0.6422  0.1496
 1141TIP3    H124914   5.787   6.053   4.217 -1.2512  4.1148 -0.3803
 1141TIP3    H224915   5.924   6.085   4.274 -1.2348  1.8126  0.9956
 1142TIP3   OH224916   0.554   3.520  10.902  0.9097 -0.7285 -0.1175
 1142TIP3    H124917   0.518   3.453  10.843  0.5162 -0.9500  0.3733
 1142TIP3    H224918   0.648   3.519  10.883  0.9017 -1.3759 -0.1643
 1143TIP3   OH224919   4.549   1.712   3.695 -0.0700  0.5456 -0.0015
 1143TIP3    H124920   4.531   1.795   3.652 -1.0327 -0.1442 -1.0217
 1143TIP3    H224921   4.494   1.649   3.648 -0.1103 -0.4957  1.3821
 1144TIP3   OH224922   4.145   3.507   2.583  0.4157 -0.2906 -0.4463
 1144TIP3    H124923   4.053   3.529   2.573  0.6792  0.6921 -0.9134
 1144TIP3    H224924   4.172   3.474   2.498  0.7129  0.3267 -0.5991
 1145TIP3   OH224925   0.750   0.549   1.491 -0.2555  0.2975  0.6232
 1145TIP3    H124926   0.845   0.558   1.478 -0.4786  0.7160 -0.9251
 1145TIP3    H224927   0.713   0.555   1.403 -1.7465  0.3360  1.2230
 1146TIP3   OH224928   5.605   2.288   2.463 -0.0509  0.3644 -0.0591
 1146TIP3    H124929   5.648   2.364   2.502 -1.8751  1.7600 -0.5697
 1146TIP3    H224930   5.566   2.242   2.537 -0.0850  0.7207  0.1479
 1147TIP3   OH224931   2.001   4.957   5.015 -0.5649 -0.7025 -0.2293
 1147TIP3    H124932   1.971   4.948   5.106 -0.8451 -1.1511 -0.3607
 1147TIP3    H224933   1.982   5.048   4.993 -1.0298 -0.7459 -0.0238
 1148TIP3   OH224934   6.165   2.291  15.311 -0.5305 -0.2151  0.1496
 1148TIP3    H124935   6.157   2.236  15.234  2.3091  0.0842 -0.4933
 1148TIP3    H224936   6.246   2.341  15.296 -1.3389  1.8409  2.1011
 1149TIP3   OH224937   3.780   3.860  14.463 -0.1298 -0.0365  0.3569
 1149TIP3    H124938   3.863   3.853  14.511  0.2034 -0.7838 -0.3005
 1149TIP3    H224939   3.784   3.947  14.423  0.5619 -0.2436 -0.0499
 1150TIP3   OH224940   5.285   5.658  14.728  0.5483 -0.0125  0.3171
 1150TIP3    H124941   5.266   5.617  14.811 -0.7936  0.4920  0.2794
 1150TIP3    H224942   5.363   5.612  14.696 -0.4664 -2.0364  0.5883
 1151TIP3   OH224943   0.319   2.667   4.065  0.9617 -0.0228 -0.4238
 1151TIP3    H124944   0.283   2.637   4.148 -2.4017  2.2399 -0.8247
 1151TIP3    H224945   0.290   2.601   4.001 -0.5791  0.5449 -0.3709
 1152TIP3   OH224946   4.545   6.785   5.452  0.5250  0.2846 -0.9569
 1152TIP3    H124947   4.590   6.841   5.389  1.6024  0.4197 -0.0959
 1152TIP3    H224948   4.596   6.794   5.533  0.1317 -1.1652 -0.5197
 1153TIP3   OH224949   4.367   3.163  16.144 -0.5926 -0.7511  0.0418
 1153TIP3    H124950   4.288   3.215  16.134 -0.3646 -0.4742 -0.3387
 1153TIP3    H224951   4.388   3.133  16.056  0.5367  0.3837 -0.1004
 1154TIP3   OH224952   5.034   4.402   4.276  0.2820  0.1563 -0.1661
 1154TIP3    H124953   4.989   4.453   4.208 -0.5402  0.4912  0.6093
 1154TIP3    H224954   5.088   4.340   4.227 -0.3549  0.3405 -1.1352
 1155TIP3   OH224955   4.609   3.378  13.088 -0.3280 -0.6201  0.0868
 1155TIP3    H124956   4.589   3.472  13.092  0.8587 -0.3141 -0.6290
 1155TIP3    H224957   4.530   3.335  13.120 -0.3769  0.6651  1.8539
 1156TIP3   OH224958   6.484   5.950  16.056  0.2284  0.3707 -0.3126
 1156TIP3    H124959   6.536   6.030  16.061  0.1140  0.3384  2.7612
 1156TIP3    H224960   6.548   5.879  16.054  0.3188  0.4569 -0.4493
 1157TIP3   OH224961   1.328   0.163  12.324 -0.4060 -0.6064 -0.1453
 1157TIP3    H124962   1.314   0.252  12.358 -0.9854 -0.8745  0.3428
 1157TIP3    H224963   1.384   0.175  12.248 -0.8453  0.2285 -0.3507
 1158TIP3   OH224964   5.290   5.362  16.520 -0.5118 -0.6298 -0.0634
 1158TIP3    H124965   5.357   5.334  16.583  0.1273  1.1326  0.0958
 1158TIP3    H224966   5.294   5.298  16.450 -0.5584 -2.0888  1.2243
 1159TIP3   OH224967   1.607   6.611  11.881 -0.4005 -0.3143  0.5903
 1159TIP3    H124968   1.674   6.644  11.941 -0.2314  0.0728  0.2034
 1159TIP3    H224969   1.547   6.561  11.936 -0.1508 -0.1155  1.0508
 1160TIP3   OH224970   2.090   3.910   5.835  0.4404 -0.0858 -0.5613
 1160TIP3    H124971   2.010   3.868   5.804 -0.2351  1.1863 -0.6336
 1160TIP3    H224972   2.160   3.848   5.814 -0.6214 -1.6981  0.4484
 1161TIP3   OH224973   4.897   0.321   2.948  0.6507  0.3076  0.4230
 1161TIP3    H124974   4.873   0.338   2.857  1.0249  1.1271  0.4737
 1161TIP3    H224975   4.838   0.250   2.975 -0.3437  0.9286 -0.0602
 1162TIP3   OH224976   3.977   2.473   4.772 -0.0904 -0.7237 -0.2706
 1162TIP3    H124977   3.960   2.459   4.865  0.8357 -0.8682 -0.1198
 1162TIP3    H224978   4.034   2.401   4.746 -1.8983 -1.8265 -1.4277
 1163TIP3   OH224979   5.421   5.794   2.508 -0.0665  0.3291  0.1721
 1163TIP3    H124980   5.422   5.819   2.601 -1.2668  0.8949  0.0509
 1163TIP3    H224981   5.510   5.814   2.478  0.1783  0.6726  1.0698
 1164TIP3   OH224982   0.726   1.815  15.556  0.6147  0.2621 -0.4986
 1164TIP3    H124983   0.806   1.782  15.595  1.2612 -0.7352 -2.5105
 1164TIP3    H224984   0.689   1.874  15.621  0.9422 -2.1911  2.0770
 1165TIP3   OH224985   1.183   1.662  12.576 -0.0612 -0.0923 -0.3365
 1165TIP3    H124986   1.220   1.593  12.631 -1.1866  0.1503  0.7665
 1165TIP3    H224987   1.127   1.615  12.513 -0.1199 -0.2538 -0.1659
 1166TIP3   OH224988   2.282   1.845  13.486 -0.4352 -0.1153  0.0867
 1166TIP3    H124989   2.202   1.844  13.432 -1.3996 -1.4842  1.4531
 1166TIP3    H224990   2.310   1.936  13.485 -1.4092  0.2104 -1.2834
 1167TIP3   OH224991   3.045   4.223  16.960  0.5377  0.1877  0.6836
 1167TIP3    H124992   3.002   4.180  16.886  0.6746  3.8231 -1.7628
 1167TIP3    H224993   2.993   4.302  16.975  1.0363  0.0320  4.0008
 1168TIP3   OH224994   0.743   4.144   2.900  0.0790  0.7910  0.9457
 1168TIP3    H124995   0.808   4.157   2.831 -0.4905  1.5697  0.5425
 1168TIP3    H224996   0.747   4.050   2.919 -1.8070 -0.1150 -2.2696
 1169TIP3   OH224997   0.398   1.089   4.713 -0.3410 -0.1528 -0.5182
 1169TIP3    H124998   0.462   1.035   4.667 -0.7230 -1.0929  0.0367
 1169TIP3    H224999   0.333   1.112   4.646 -0.3975 -0.7343 -0.6704
 1170TIP3   OH225000   6.828   0.463   0.654  0.5309 -0.1597  0.0981
 1170TIP3    H125001   6.895   0.510   0.703 -2.2692  1.8206  2.3508
 1170TIP3    H225002   6.799   0.525   0.587 -1.6803  0.6385  1.6897
 1171TIP3   OH225003   2.764   5.407   2.161 -0.4428  0.1072 -0.2573
 1171TIP3    H125004   2.722   5.493   2.166  0.4595  0.5200  0.4322
 1171TIP3    H225005   2.858   5.426   2.157 -0.2574 -0.8338 -0.7153
 1172TIP3   OH225006   5.424   3.617  11.096  0.6381  0.3382 -0.0538
 1172TIP3    H125007   5.375   3.692  11.062  1.3116  0.6465 -0.3631
 1172TIP3    H225008   5.490   3.599  11.030  1.9958  0.9596  1.0750
 1173TIP3   OH225009   1.434   6.564  15.151 -0.1165 -0.5560  0.0471
 1173TIP3    H125010   1.449   6.504  15.224 -0.0755  0.6318  1.0425
 1173TIP3    H225011   1.380   6.514  15.090 -0.9570 -1.2583  1.3233
 1174TIP3   OH225012   1.606   0.994  11.081  0.0707 -0.0662  0.1716
 1174TIP3    H125013   1.655   0.947  11.014 -0.5647 -0.9478  0.3040
 1174TIP3    H225014   1.552   0.927  11.123 -2.8055  1.1633 -1.3311
 1175TIP3   OH225015   4.275   4.268   5.833  0.3108  0.4828  0.0816
 1175TIP3    H125016   4.227   4.243   5.753 -0.1970  0.5724  0.3560
 1175TIP3    H225017   4.282   4.186   5.882 -0.5643  0.6857  0.5650
 1176TIP3   OH225018   4.979   4.931  14.616 -0.1462 -0.2594 -0.2008
 1176TIP3    H125019   4.898   4.883  14.598  0.1495 -2.7408  3.7000
 1176TIP3    H225020   4.956   5.023  14.606 -3.1015 -0.9308 -0.3822
 1177TIP3   OH225021   2.813   3.678   0.413 -0.5088 -0.1143  0.3350
 1177TIP3    H125022   2.813   3.654   0.505  1.0520  0.1703  0.4406
 1177TIP3    H225023   2.837   3.597   0.367  3.8197  0.7551  0.6240
 1178TIP3   OH225024   2.540   5.083  14.656  0.1056  0.1767  0.3736
 1178TIP3    H125025   2.502   5.124  14.578  2.2205  1.2671 -0.1750
 1178TIP3    H225026   2.609   5.026  14.621 -0.2302 -0.8797  1.3670
 1179TIP3   OH225027   0.156   1.960  14.820  0.5745 -0.6525 -0.5223
 1179TIP3    H125028   0.135   1.867  14.832  1.2154 -0.6346  1.0955
 1179TIP3    H225029   0.200   1.965  14.735  3.6289 -2.4487  0.7947
 1180TIP3   OH225030   6.719   4.563  16.515  0.5813 -0.7159 -0.5218
 1180TIP3    H125031   6.629   4.588  16.535  0.8628  0.5306 -0.7368
 1180TIP3    H225032   6.712   4.474  16.481 -0.8622  0.0933 -2.5750
 1181TIP3   OH225033   0.479   5.397   1.202 -0.6167  0.1545 -0.3091
 1181TIP3    H125034   0.537   5.412   1.277 -0.4550 -1.2290 -0.1248
 1181TIP3    H225035   0.539   5.389   1.128 -0.4652 -1.9590 -0.0136
 1182TIP3   OH225036   2.015   3.783   3.125  0.2249  0.1628  0.3849
 1182TIP3    H125037   1.925   3.756   3.105  0.1979  1.4083 -1.3799
 1182TIP3    H225038   2.070   3.715   3.087  0.0674 -0.9219  1.9943
 1183TIP3   OH225039   2.830   0.395   2.701 -0.3258 -0.4918  0.4460
 1183TIP3    H125040   2.809   0.412   2.793  0.1485 -1.1806  0.6922
 1183TIP3    H225041   2.757   0.341   2.669 -2.1677  2.3500 -0.5166
 1184TIP3   OH225042   4.332   1.729   0.701 -0.0408  0.1963 -0.3161
 1184TIP3    H125043   4.375   1.649   0.732 -0.5786 -0.1598 -0.4699
 1184TIP3    H225044   4.250   1.698   0.663  0.3552  0.6775 -1.6001
 1185TIP3   OH225045   1.057   3.776   3.603 -0.0371 -0.5005 -0.4204
 1185TIP3    H125046   1.093   3.863   3.585  0.0951 -0.6807 -1.0528
 1185TIP3    H225047   1.096   3.751   3.686 -0.9030  0.4888  0.3124
 1186TIP3   OH225048   4.523   2.604   5.157  0.7707  0.3581 -0.0563
 1186TIP3    H125049   4.530   2.553   5.238  1.7163 -0.9590 -0.9246
 1186TIP3    H225050   4.430   2.600   5.134  0.2950  1.6278  1.4756
 1187TIP3   OH225051   4.864   2.269   5.367  0.1358 -0.1274  0.0637
 1187TIP3    H125052   4.871   2.342   5.427 -0.3810  1.5449 -1.7996
 1187TIP3    H225053   4.774   2.271   5.336  0.2601 -1.2179 -0.4230
 1188TIP3   OH225054   6.680   6.722  14.442  0.1615 -0.2176 -0.5736
 1188TIP3    H125055   6.660   6.807  14.404 -2.4536 -0.1749  0.6302
 1188TIP3    H225056   6.616   6.662  14.402  0.2937 -1.0659  0.4185
 1189TIP3   OH225057   5.618   4.721   4.090 -0.4313  0.9802  0.0230
 1189TIP3    H125058   5.584   4.680   4.169 -1.4303  1.9013  0.0966
 1189TIP3    H225059   5.563   4.686   4.019  1.0684 -0.5811 -0.4381
 1190TIP3   OH225060   6.312   4.307  10.616  0.1256  0.2194  0.0979
 1190TIP3    H125061   6.352   4.221  10.605  0.1420 -0.0354  1.8558
 1190TIP3    H225062   6.375   4.368  10.578 -0.1537 -0.5599 -1.7162
 1191TIP3   OH225063   0.973   5.488   0.914  0.4183  0.2536  1.0574
 1191TIP3    H125064   1.013   5.432   0.982 -0.1166  0.6918  1.7450
 1191TIP3    H225065   0.879   5.479   0.928  0.3074  0.5670  0.5364
 1192TIP3   OH225066   0.546   2.865   0.795  0.2078 -0.2276 -0.0903
 1192TIP3    H125067   0.626   2.833   0.837 -0.3364 -2.6192 -0.7070
 1192TIP3    H225068   0.476   2.816   0.837 -0.6603 -0.1585 -1.4094
 1193TIP3   OH225069   3.644   0.936   1.154 -0.1013  0.1620  0.1945
 1193TIP3    H125070   3.650   0.930   1.249  0.2491  2.0605  0.3206
 1193TIP3    H225071   3.696   1.013   1.131  0.0334 -0.4064 -1.5684
 1194TIP3   OH225072   0.081   2.507  13.578 -0.2886  0.2577  0.0225
 1194TIP3    H125073   0.101   2.414  13.568  0.2134  0.3914 -0.2733
 1194TIP3    H225074   0.000   2.520  13.529 -0.2771  0.0061 -0.0640
 1195TIP3   OH225075   3.637   1.665   6.264 -0.0912 -0.7826 -0.3445
 1195TIP3    H125076   3.651   1.759   6.254  0.6141 -1.0500 -2.1648
 1195TIP3    H225077   3.541   1.655   6.265 -0.1726 -0.0831 -0.6300
 1196TIP3   OH225078   5.627   5.389   4.601 -0.3996  0.1217  0.0511
 1196TIP3    H125079   5.584   5.351   4.524 -0.1372  2.1248 -1.1537
 1196TIP3    H225080   5.715   5.412   4.571  0.6438 -1.4067  1.7245
 1197TIP3   OH225081   1.166   6.368  16.827  0.3437 -0.2789  0.3859
 1197TIP3    H125082   1.110   6.300  16.788  0.1432 -0.0536  0.2811
 1197TIP3    H225083   1.190   6.332  16.912  1.5789 -1.2140 -0.3198
 1198TIP3   OH225084   1.637   2.540  15.375 -0.4094  0.3782  0.0306
 1198TIP3    H125085   1.587   2.603  15.323 -0.9152  0.2145  0.3123
 1198TIP3    H225086   1.572   2.476  15.403 -0.1919  0.5901  1.0617
 1199TIP3   OH225087   4.228   2.106   1.402 -0.5510 -0.4046  0.2339
 1199TIP3    H125088   4.196   2.032   1.350 -0.5192  0.1689 -0.6209
 1199TIP3    H225089   4.317   2.080   1.427 -1.6295 -2.0417  2.7013
 1200TIP3   OH225090   3.932   2.073   2.808 -0.1199  0.2494 -0.1456
 1200TIP3    H125091   4.015   2.036   2.779  1.2068  0.2318  3.1862
 1200TIP3    H225092   3.868   2.002   2.799  0.8057 -0.5626 -0.3905
 1201TIP3   OH225093   6.381   6.017  14.906  0.1752 -0.2188  0.3650
 1201TIP3    H125094   6.379   6.093  14.964 -2.0627  0.8809 -1.0057
 1201TIP3    H225095   6.313   6.035  14.841  0.0335 -3.0992 -0.4154
 1202TIP3   OH225096   3.310   6.826  15.226 -0.3089  0.4045  0.2786
 1202TIP3    H125097   3.250   6.812  15.153 -0.1218  1.6255 -0.1282
 1202TIP3    H225098   3.310   6.742  15.273 -3.9608  0.8951  1.5480
 1203TIP3   OH225099   3.246   1.766   4.104  0.0636 -0.4919  0.0830
 1203TIP3    H125100   3.201   1.812   4.175 -0.8534 -0.4905 -0.4780
 1203TIP3    H225101   3.293   1.694   4.147 -1.8138 -1.5054  0.5429
 1204TIP3   OH225102   4.777   2.570  14.039 -0.3559 -0.2597 -0.4353
 1204TIP3    H125103   4.711   2.583  14.107 -0.1434 -1.5156  0.0559
 1204TIP3    H225104   4.759   2.637  13.973 -0.1886  1.4373  1.1424
 1205TIP3   OH225105   1.773   2.710  13.828  0.2645  0.0214  0.6941
 1205TIP3    H125106   1.760   2.616  13.835  0.0104 -0.0763 -0.6458
 1205TIP3    H225107   1.705   2.748  13.882  0.5599 -0.5595  1.4896
 1206TIP3   OH225108   3.486   4.754  13.622  0.2423 -0.6444  0.5211
 1206TIP3    H125109   3.456   4.757  13.531 -1.2684 -2.1149  0.9009
 1206TIP3    H225110   3.515   4.843  13.641  0.4697 -0.2715 -1.3433
 1207TIP3   OH225111   2.542   6.553  12.726 -0.5850 -0.6683 -0.3379
 1207TIP3    H125112   2.572   6.637  12.759  0.5272  0.3567 -3.5535
 1207TIP3    H225113   2.489   6.516  12.797 -0.1706  2.1825  1.6093
 1208TIP3   OH225114   6.509   3.842  14.007 -0.3816  0.8154  0.1878
 1208TIP3    H125115   6.474   3.757  14.034  0.4128  0.8005  1.2097
 1208TIP3    H225116   6.530   3.830  13.914  1.4915 -0.7527  0.7392
 1209TIP3   OH225117   3.020   1.132  15.387 -0.1643  0.0262 -0.1679
 1209TIP3    H125118   3.054   1.043  15.391  0.8073  0.4153  0.3379
 1209TIP3    H225119   3.038   1.169  15.473  0.5256  1.1013 -0.7583
 1210TIP3   OH225120   3.006   2.991  17.200  0.4414 -0.3437 -0.3350
 1210TIP3    H125121   2.989   2.897  17.212  0.7626 -0.3610  0.0147
 1210TIP3    H225122   2.919   3.031  17.203  0.0953 -0.8143 -2.4410
 1211TIP3   OH225123   6.584   5.969  11.245 -0.5333  0.1164  0.3619
 1211TIP3    H125124   6.626   5.935  11.165 -0.0525  0.1432  0.6002
 1211TIP3    H225125   6.568   6.061  11.226 -1.5638 -0.1556 -0.1724
 1212TIP3   OH225126   2.196   3.122  12.542  0.9681 -0.0152 -0.0149
 1212TIP3    H125127   2.156   3.125  12.455  1.1207 -0.2495 -0.0946
 1212TIP3    H225128   2.287   3.098  12.526  1.3725  1.4033  0.0981
 1213TIP3   OH225129   1.163   5.268  16.426  0.1223  1.2243  0.3693
 1213TIP3    H125130   1.180   5.323  16.349  0.9745  0.3989 -0.0537
 1213TIP3    H225131   1.085   5.219  16.402  0.2508  1.1363  0.1238
 1214TIP3   OH225132   0.601   1.187   5.404 -0.4869  0.4366 -0.8650
 1214TIP3    H125133   0.519   1.203   5.451 -0.9453 -1.6925 -0.8561
 1214TIP3    H225134   0.669   1.203   5.469 -1.0725 -1.3200  0.2637
 1215TIP3   OH225135   0.079   2.179  12.787  0.4118  0.3527  0.4342
 1215TIP3    H125136   0.037   2.218  12.863 -2.6365  1.0414 -1.4111
 1215TIP3    H225137   0.092   2.253  12.727  0.5624 -0.4944 -0.6086
 1216TIP3   OH225138   6.695   5.928  14.119 -0.0292  0.1627 -0.1938
 1216TIP3    H125139   6.601   5.913  14.103  0.2770  0.3400 -2.4286
 1216TIP3    H225140   6.729   5.960  14.036  2.0966 -0.1594  0.4880
 1217TIP3   OH225141   6.229   3.741  16.946 -0.2963  0.0762 -0.3549
 1217TIP3    H125142   6.258   3.664  16.897 -0.0038 -0.1726  0.1978
 1217TIP3    H225143   6.146   3.766  16.905  0.1893  0.1814 -1.2962
 1218TIP3   OH225144   0.870   2.530   2.477  0.7806  0.0197  0.2285
 1218TIP3    H125145   0.962   2.539   2.501  0.7377 -0.4120  0.5895
 1218TIP3    H225146   0.869   2.460   2.412  0.6349 -0.4695  0.7491
 1219TIP3   OH225147   5.844   5.666  11.240  0.0626  0.1851 -0.3905
 1219TIP3    H125148   5.938   5.649  11.229  0.5262  3.3281 -2.8603
 1219TIP3    H225149   5.801   5.604  11.181  0.5828 -0.8974  0.3335
 1220TIP3   OH225150   4.095   5.642   1.358  0.1498 -0.2327 -0.3961
 1220TIP3    H125151   4.164   5.581   1.334  1.8913  1.3826  0.2222
 1220TIP3    H225152   4.078   5.692   1.278  0.4221  0.0314 -0.2903
 1221TIP3   OH225153   5.565   2.582   2.435 -0.4911  0.3371 -0.1987
 1221TIP3    H125154   5.637   2.563   2.375 -0.2315 -0.6739  0.4143
 1221TIP3    H225155   5.486   2.554   2.387 -0.5556  1.8249 -1.0364
 1222TIP3   OH225156   0.117   6.077   0.499 -0.0613 -0.3943 -0.4038
 1222TIP3    H125157   0.059   6.101   0.572  0.5201  0.9726 -0.3692
 1222TIP3    H225158   0.065   6.016   0.447 -0.4467 -1.5406  1.2182
 1223TIP3   OH225159   4.791   1.773   0.643 -0.4021 -0.2625  0.0042
 1223TIP3    H125160   4.847   1.736   0.575 -0.2291 -2.4567  1.2310
 1223TIP3    H225161   4.710   1.798   0.597 -0.8818 -3.0428 -0.8728
 1224TIP3   OH225162   6.819   4.817  11.470 -0.2949 -0.7682  0.2155
 1224TIP3    H125163   6.877   4.755  11.513 -1.4773 -1.0059  1.5433
 1224TIP3    H225164   6.748   4.831  11.533 -1.5314 -0.2742 -1.2283
 1225TIP3   OH225165   4.017   3.710   4.989  0.5131  0.9827 -0.1909
 1225TIP3    H125166   3.983   3.621   4.981  2.3681  0.3823 -2.5136
 1225TIP3    H225167   4.108   3.698   5.017  1.2073  2.0305 -1.8769
 1226TIP3   OH225168   1.576   1.917   0.704 -0.5072  0.1315 -0.3696
 1226TIP3    H125169   1.562   1.997   0.654 -0.1452  0.3102 -0.1899
 1226TIP3    H225170   1.638   1.942   0.772 -1.5116  0.0599  0.5890
 1227TIP3   OH225171   5.887   4.228   3.967  0.1217 -0.3414 -0.1317
 1227TIP3    H125172   5.934   4.256   3.888  0.9375 -1.2844 -0.0061
 1227TIP3    H225173   5.794   4.235   3.943  0.3171  1.1178 -0.5394
 1228TIP3   OH225174   0.737   5.957  13.350 -0.0951 -0.1389  0.1662
 1228TIP3    H125175   0.739   6.040  13.301 -0.6985  1.0415  2.0233
 1228TIP3    H225176   0.701   5.981  13.436 -0.6380 -2.4118  0.6357
 1229TIP3   OH225177   2.592   5.900   5.192 -0.1906  0.2589 -0.1475
 1229TIP3    H125178   2.655   5.841   5.149 -1.1212 -0.3989 -0.6412
 1229TIP3    H225179   2.646   5.952   5.252  0.6891 -1.0059  0.2156
 1230TIP3   OH225180   6.072   3.020  14.447 -0.0091 -0.4473  0.5908
 1230TIP3    H125181   6.162   3.052  14.439  0.1526 -0.9976  0.1871
 1230TIP3    H225182   6.055   2.973  14.366 -0.9685  0.3811  0.2876
 1231TIP3   OH225183   5.335   3.993  15.334 -0.5785 -0.0207  0.4276
 1231TIP3    H125184   5.324   3.925  15.268 -1.2226  0.2682  0.2295
 1231TIP3    H225185   5.367   4.069  15.285  1.0617 -0.4293  0.7835
 1232TIP3   OH225186   2.078   0.622   6.517  0.2215 -0.6813 -0.0807
 1232TIP3    H125187   2.056   0.691   6.454  1.6890  0.0867  0.2062
 1232TIP3    H225188   2.009   0.627   6.583 -0.6875 -0.7197 -1.0030
 1233TIP3   OH225189   1.456   3.997  16.178 -0.3256 -0.4550 -0.2044
 1233TIP3    H125190   1.426   4.087  16.161  0.3249  0.0995  1.3808
 1233TIP3    H225191   1.380   3.943  16.158 -1.1833  0.5816  0.1339
 1234TIP3   OH225192   2.729   5.515   6.002 -0.3770 -0.6240 -0.2929
 1234TIP3    H125193   2.675   5.593   6.017 -1.0108 -1.0488 -0.3492
 1234TIP3    H225194   2.810   5.533   6.050 -0.5398  0.0481 -0.2612
 1235TIP3   OH225195   1.874   1.411   2.082  0.0213 -0.3241 -0.3679
 1235TIP3    H125196   1.813   1.478   2.053 -1.8493 -0.7290  2.2983
 1235TIP3    H225197   1.844   1.331   2.040  1.9656  0.2424 -3.1611
 1236TIP3   OH225198   1.518   5.098   0.781  0.5538 -0.0728 -0.3068
 1236TIP3    H125199   1.501   5.148   0.701 -0.5567 -0.2101 -0.1693
 1236TIP3    H225200   1.554   5.161   0.842  0.6192  0.2188 -0.6462
 1237TIP3   OH225201   1.061   1.774   3.873  0.4495 -0.4559  0.2773
 1237TIP3    H125202   1.112   1.846   3.836 -2.0967  1.5666  0.4076
 1237TIP3    H225203   1.061   1.706   3.806  2.2598 -0.0270 -0.1898
 1238TIP3   OH225204   0.232   1.167  13.154 -0.0529 -0.7019  0.6276
 1238TIP3    H125205   0.229   1.245  13.209 -0.0205  0.1383 -0.5233
 1238TIP3    H225206   0.255   1.096  13.214  1.5574  0.4266  1.4353
 1239TIP3   OH225207   4.399   5.010  10.965  0.4177  0.8524 -0.0634
 1239TIP3    H125208   4.332   5.076  10.986 -0.4749  0.7997 -2.4227
 1239TIP3    H225209   4.373   4.977  10.879  2.1426 -0.9578  0.0554
 1240TIP3   OH225210   3.108   5.075   1.625 -0.6772 -0.1079 -0.0095
 1240TIP3    H125211   3.185   5.081   1.569 -1.3309  1.2545 -0.8025
 1240TIP3    H225212   3.144   5.073   1.714  0.2758  3.1427 -0.2039
 1241TIP3   OH225213   0.365   2.907  13.113  0.5247  0.1282 -0.3174
 1241TIP3    H125214   0.322   2.905  13.198  2.5954  0.0200  0.8020
 1241TIP3    H225215   0.311   2.852  13.057 -1.4081  0.9702  0.6273
 1242TIP3   OH225216   0.626   5.107   1.455 -0.1634  0.9520  0.3233
 1242TIP3    H125217   0.704   5.161   1.445 -0.1066  0.5519 -1.9665
 1242TIP3    H225218   0.557   5.169   1.479 -0.0256  2.0551 -1.8823
 1243TIP3   OH225219   0.063   5.433   4.562  0.2896 -0.5391  0.7558
 1243TIP3    H125220   0.119   5.357   4.546  0.7740  0.1256 -0.8960
 1243TIP3    H225221  -0.011   5.422   4.502  2.6030  2.4760 -3.1277
 1244TIP3   OH225222   3.941   5.172   4.154  0.1558  0.0438  0.2599
 1244TIP3    H125223   3.955   5.091   4.203  0.5488 -0.8323 -1.2524
 1244TIP3    H225224   3.972   5.153   4.066 -0.5228  1.5831 -0.3493
 1245TIP3   OH225225   0.439   0.764  12.636 -0.3022 -0.7070 -0.1809
 1245TIP3    H125226   0.369   0.717  12.591  1.6201 -3.1192 -0.8289
 1245TIP3    H225227   0.471   0.703  12.702  1.1522  0.3528  0.1390
 1246TIP3   OH225228   5.318   6.005  14.194  0.2843  0.3539 -0.1576
 1246TIP3    H125229   5.411   6.023  14.189  0.0664  1.2459 -1.5091
 1246TIP3    H225230   5.308   5.920  14.150  0.3201  0.8200 -1.0791
 1247TIP3   OH225231   1.556   1.150  15.161  0.4299 -0.3047 -0.2852
 1247TIP3    H125232   1.499   1.073  15.155 -0.8898  0.4201  1.9201
 1247TIP3    H225233   1.512   1.216  15.108 -0.4853  0.0348  0.8437
 1248TIP3   OH225234   6.209   0.513   4.290  0.4237  0.0601 -0.1504
 1248TIP3    H125235   6.248   0.427   4.272  1.3048  0.2854  0.5836
 1248TIP3    H225236   6.284   0.570   4.303 -0.1268  1.2103 -1.7309
 1249TIP3   OH225237   2.451   3.270   4.346  0.6447 -0.1180 -0.2093
 1249TIP3    H125238   2.428   3.360   4.323 -0.0445 -0.5757 -1.4142
 1249TIP3    H225239   2.429   3.263   4.439  0.8322  0.9869 -0.0614
 1250TIP3   OH225240   5.717   0.728  16.758 -0.0097  0.0957 -0.0927
 1250TIP3    H125241   5.703   0.745  16.851 -0.5613 -1.5406  0.1569
 1250TIP3    H225242   5.691   0.637  16.746 -2.1000  0.8664 -2.3014
 1251TIP3   OH225243   1.493   4.109  15.508  0.0404 -0.5420 -0.3687
 1251TIP3    H125244   1.563   4.140  15.450  1.6076  0.5720  1.9736
 1251TIP3    H225245   1.486   4.176  15.576 -2.1513 -1.4850  0.4168
 1252TIP3   OH225246   5.105   3.945   4.362  0.2724  0.0355  0.1288
 1252TIP3    H125247   5.193   3.976   4.342 -0.0024  1.4774  0.9452
 1252TIP3    H225248   5.050   3.983   4.294 -0.1608  2.0368  1.4895
 1253TIP3   OH225249   6.263   2.341  14.657 -0.2708 -0.3859  0.2533
 1253TIP3    H125250   6.216   2.419  14.626  0.8747  0.3092  0.2391
 1253TIP3    H225251   6.337   2.375  14.706  1.1255 -1.4405 -1.0514
 1254TIP3   OH225252   3.942   5.492  16.320  0.1995  0.9883  0.1403
 1254TIP3    H125253   3.875   5.442  16.274 -1.6599  3.1758  0.2693
 1254TIP3    H225254   3.997   5.529  16.251 -0.1142  1.0075 -0.0959
 1255TIP3   OH225255   4.494   5.096  15.776 -0.1462  0.0606 -0.1396
 1255TIP3    H125256   4.474   5.019  15.723  1.3164 -0.9091  0.6316
 1255TIP3    H225257   4.550   5.150  15.720 -2.1239  1.2025 -1.1147
 1256TIP3   OH225258   6.215   0.599   3.517 -0.4978  0.5369 -0.4846
 1256TIP3    H125259   6.295   0.652   3.513  0.6786 -1.1490 -0.7044
 1256TIP3    H225260   6.192   0.584   3.426 -2.2864  2.6401 -0.4647
 1257TIP3   OH225261   4.719   5.040  14.375 -0.3807  0.1333 -0.1275
 1257TIP3    H125262   4.664   5.000  14.443 -2.1187 -0.3204 -1.7393
 1257TIP3    H225263   4.677   5.016  14.293  1.5991  0.7914 -1.3818
 1258TIP3   OH225264   3.790   0.473  12.145  0.2630 -0.8937  0.0753
 1258TIP3    H125265   3.810   0.554  12.192 -2.0594  0.5915 -1.2377
 1258TIP3    H225266   3.868   0.457  12.091 -0.3593  2.5710 -2.2427
 1259TIP3   OH225267   1.067   1.195   0.950  0.5461  0.6185 -0.3483
 1259TIP3    H125268   1.162   1.201   0.956  0.6821  1.2845 -2.4664
 1259TIP3    H225269   1.039   1.281   0.919 -0.5370 -0.0968 -1.4559
 1260TIP3   OH225270   6.385   6.185  15.675 -0.1976  0.6549  0.3300
 1260TIP3    H125271   6.332   6.247  15.625 -1.0990  0.1444  0.6058
 1260TIP3    H225272   6.368   6.207  15.766 -0.9145 -0.2843  0.4387
 1261TIP3   OH225273   6.628   5.275  13.569 -0.1870  0.0243 -0.2403
 1261TIP3    H125274   6.591   5.225  13.642  2.2383 -0.7246  0.5544
 1261TIP3    H225275   6.637   5.211  13.498 -3.3463  0.9296 -1.6426
 1262TIP3   OH225276   3.384   5.300  14.223 -0.0047  0.4656  0.3739
 1262TIP3    H125277   3.366   5.316  14.131  3.3306  2.6008 -0.0798
 1262TIP3    H225278   3.455   5.236  14.223 -1.0784 -0.8004  1.6028
 1263TIP3   OH225279   5.417   1.997  16.062  0.1893  0.1876  0.6320
 1263TIP3    H125280   5.343   2.058  16.055 -0.8769 -0.9027  1.9002
 1263TIP3    H225281   5.410   1.961  16.150  2.6888  0.5723  1.0495
 1264TIP3   OH225282   1.030   3.542  12.685 -0.1242  0.3635 -0.3304
 1264TIP3    H125283   1.118   3.561  12.719 -0.2788 -0.5801  0.6344
 1264TIP3    H225284   1.039   3.549  12.590  0.8798  0.7493 -0.2152
 1265TIP3   OH225285   3.595   3.232  12.976 -0.3733  0.6244  0.6900
 1265TIP3    H125286   3.515   3.202  12.933 -1.7536  3.1141  1.3269
 1265TIP3    H225287   3.658   3.242  12.904 -1.2159  0.3958 -0.1036
 1266TIP3   OH225288   1.627   6.711   1.099 -0.0840 -0.9711 -0.5294
 1266TIP3    H125289   1.711   6.756   1.105 -1.0040  0.6267  1.6158
 1266TIP3    H225290   1.646   6.621   1.126  0.8802 -0.4980  0.4538
 1267TIP3   OH225291   5.973   4.418  13.527 -0.0800  0.7394 -0.3609
 1267TIP3    H125292   6.010   4.352  13.468 -0.4154 -0.0477  0.2901
 1267TIP3    H225293   5.955   4.370  13.608 -0.7327  1.5422 -0.0197
 1268TIP3   OH225294   1.246   3.692   3.232 -0.3608  0.1950  0.2933
 1268TIP3    H125295   1.221   3.784   3.237 -0.2752  0.3842 -1.9689
 1268TIP3    H225296   1.175   3.649   3.185  0.2995 -0.6101 -0.0049
 1269TIP3   OH225297   5.214   6.518   5.771  0.0790  0.0806  0.1425
 1269TIP3    H125298   5.195   6.605   5.738  0.8847 -0.0709 -0.7886
 1269TIP3    H225299   5.141   6.464   5.741 -1.0039  0.6211  1.6808
 1270TIP3   OH225300   5.062   0.789   0.880 -0.1104  0.9894 -0.1734
 1270TIP3    H125301   5.009   0.741   0.816  0.8578  0.8516 -0.9088
 1270TIP3    H225302   5.148   0.797   0.837  0.4736  1.1401  1.0026
 1271TIP3   OH225303   2.370   3.613   1.133  0.0880 -0.1404 -0.6308
 1271TIP3    H125304   2.276   3.630   1.124  0.3041  1.4941 -0.1745
 1271TIP3    H225305   2.408   3.645   1.051  0.4729  1.4812  0.1235
 1272TIP3   OH225306   1.734   1.705   2.473  0.1082 -0.0171  0.5508
 1272TIP3    H125307   1.680   1.767   2.522 -0.2842 -1.3392  1.8635
 1272TIP3    H225308   1.752   1.634   2.535  0.4167 -1.2892 -0.9250
 1273TIP3   OH225309   3.569   0.908  16.950 -0.1011 -0.1001  0.0123
 1273TIP3    H125310   3.569   0.926  17.044  2.1432  0.8111 -0.0982
 1273TIP3    H225311   3.553   0.993  16.910 -1.8278 -0.6118 -0.4737
 1274TIP3   OH225312   4.404   1.248  16.061  0.2296  0.3320 -1.0052
 1274TIP3    H125313   4.313   1.251  16.031  0.0898  0.6824 -0.5570
 1274TIP3    H225314   4.401   1.198  16.142  0.3544  0.7722 -0.7246
 1275TIP3   OH225315   2.307   3.589  13.198 -0.2508  0.3738 -0.6588
 1275TIP3    H125316   2.380   3.550  13.245 -0.4552  0.6752 -0.0733
 1275TIP3    H225317   2.343   3.614  13.113 -0.3464 -1.9585 -1.4506
 1276TIP3   OH225318   0.169   3.837  13.883  0.1467  0.2364 -0.0638
 1276TIP3    H125319   0.232   3.895  13.840 -0.4022 -0.2467 -1.5834
 1276TIP3    H225320   0.085   3.864  13.848 -0.3142 -0.2872  0.6252
 1277TIP3   OH225321   1.290   3.889   1.163  0.2087  0.5727  0.1470
 1277TIP3    H125322   1.222   3.906   1.098  0.6422  2.0649  0.0503
 1277TIP3    H225323   1.301   3.972   1.209  1.2859  0.0827  0.8205
 1278TIP3   OH225324   6.140   4.334   5.193 -0.3756 -0.1775  0.2087
 1278TIP3    H125325   6.108   4.401   5.253  0.3151  0.1062  0.2755
 1278TIP3    H225326   6.126   4.251   5.239  1.8134  0.1373  1.6014
 1279TIP3   OH225327   5.724   1.795  16.896  0.9402  0.2392 -0.1482
 1279TIP3    H125328   5.653   1.858  16.887  1.8832  1.4614  0.4843
 1279TIP3    H225329   5.681   1.711  16.912 -0.3497  0.8132 -0.5084
 1280TIP3   OH225330   3.134   1.426   1.316  0.0793  0.0169  0.2857
 1280TIP3    H125331   3.171   1.498   1.367  1.0931 -0.6607  0.5423
 1280TIP3    H225332   3.154   1.348   1.367 -1.7007 -0.4021  0.4147
 1281TIP3   OH225333   4.021   3.637   0.352 -0.0524  0.1551  0.5758
 1281TIP3    H125334   4.015   3.672   0.264 -1.9087 -0.2171  0.5038
 1281TIP3    H225335   4.082   3.564   0.345 -0.5385 -0.1629 -0.5216
 1282TIP3   OH225336   6.673   3.756  16.298 -0.2828  0.6474 -0.1154
 1282TIP3    H125337   6.735   3.761  16.225 -1.2933 -2.0826 -1.2595
 1282TIP3    H225338   6.626   3.840  16.295  1.7639  1.8603 -0.5798
 1283TIP3   OH225339   0.899   0.057   0.312  0.0198 -0.3795  0.2678
 1283TIP3    H125340   0.843   0.134   0.307  1.6743  0.8215 -0.9567
 1283TIP3    H225341   0.855  -0.001   0.373 -1.7765  1.1241  0.4786
 1284TIP3   OH225342   4.455   0.839   1.111 -0.1787 -0.1771 -0.3193
 1284TIP3    H125343   4.423   0.852   1.200 -1.1897  1.6313 -0.8931
 1284TIP3    H225344   4.477   0.746   1.106  0.2408 -0.2476  1.9043
 1285TIP3   OH225345   1.859   3.806   4.077  0.6273 -0.0673 -0.0065
 1285TIP3    H125346   1.775   3.795   4.122 -0.4793  2.1171 -1.3484
 1285TIP3    H225347   1.846   3.762   3.993  1.2737 -0.7279  0.2290
 1286TIP3   OH225348   1.686   2.579  15.686 -0.9095  0.5077 -0.3475
 1286TIP3    H125349   1.637   2.579  15.768  0.7534 -3.5393  0.9245
 1286TIP3    H225350   1.625   2.546  15.620 -0.9619 -1.0192  0.4272
 1287TIP3   OH225351   0.826   0.760   2.303  0.3847 -0.5292  0.3697
 1287TIP3    H125352   0.872   0.693   2.353  1.0566 -1.5919 -1.5685
 1287TIP3    H225353   0.829   0.838   2.359  0.4579 -1.8061  2.2534
 1288TIP3   OH225354   4.884   0.411   5.354 -0.1982  0.8299  0.1930
 1288TIP3    H125355   4.826   0.342   5.385 -1.5841  1.0786 -1.6191
 1288TIP3    H225356   4.868   0.415   5.259 -0.6950  4.0365  0.2820
 1289TIP3   OH225357   2.056   1.442   4.205 -0.4348  0.1563 -0.1146
 1289TIP3    H125358   1.975   1.391   4.215 -0.6975  0.6555  0.4201
 1289TIP3    H225359   2.045   1.488   4.122  0.7036 -2.1872 -1.6712
 1290TIP3   OH225360   2.581   0.625   1.871 -0.6982  0.2560 -0.3394
 1290TIP3    H125361   2.592   0.546   1.818  1.7839  0.8767 -0.9006
 1290TIP3    H225362   2.616   0.602   1.957 -0.5264  0.5625 -0.3238
 1291TIP3   OH225363   6.609   5.114   0.247  0.1807 -0.5261  0.4581
 1291TIP3    H125364   6.663   5.158   0.313  1.5538  0.9478 -1.5267
 1291TIP3    H225365   6.660   5.038   0.221  0.7302  0.1706 -0.5255
 1292TIP3   OH225366   1.749   2.527  10.915 -0.0858  0.2539  0.1809
 1292TIP3    H125367   1.785   2.607  10.876  2.6273 -1.4756 -1.1478
 1292TIP3    H225368   1.694   2.489  10.846  0.8113 -0.3421 -0.2312
 1293TIP3   OH225369   4.105   2.680  16.801  0.3529  0.4268 -0.0308
 1293TIP3    H125370   4.141   2.605  16.753  1.5075  1.8497 -1.4818
 1293TIP3    H225371   4.171   2.698  16.869  0.1989  0.3175  0.1519
 1294TIP3   OH225372   4.556   4.678  15.089  0.4524  0.4137  0.2243
 1294TIP3    H125373   4.566   4.584  15.107  1.3745  0.5097  0.2558
 1294TIP3    H225374   4.464   4.696  15.110  0.1146 -0.5904 -0.2860
 1295TIP3   OH225375   3.530   3.492  16.498  0.2535  0.0963 -0.3542
 1295TIP3    H125376   3.471   3.554  16.456  0.9218  0.7512 -0.3570
 1295TIP3    H225377   3.478   3.413  16.511 -0.0313 -0.0959 -2.3066
 1296TIP3   OH225378   2.350   1.914  15.715 -0.1541  0.4393  0.4817
 1296TIP3    H125379   2.425   1.885  15.663 -0.3928  0.8615 -0.1099
 1296TIP3    H225380   2.305   1.833  15.739 -0.3689  0.2632 -0.4745
 1297TIP3   OH225381   1.809   1.607   0.645 -0.2087  0.2533 -0.2118
 1297TIP3    H125382   1.786   1.515   0.637  0.1128  0.2166 -0.7912
 1297TIP3    H225383   1.894   1.614   0.601  0.2864  0.6220  0.7726
 1298TIP3   OH225384   4.735   2.380   5.031  0.1745  0.5182 -0.1645
 1298TIP3    H125385   4.641   2.397   5.039  0.1849  0.0876  1.0354
 1298TIP3    H225386   4.773   2.418   5.110  0.6207 -1.9587  0.9027
 1299TIP3   OH225387   3.412   0.323  13.798  0.3115 -0.6499 -0.7264
 1299TIP3    H125388   3.473   0.327  13.724  0.5139  1.0129 -0.5144
 1299TIP3    H225389   3.468   0.326  13.876  0.1011 -2.3738 -0.4669
 1300TIP3   OH225390   5.087   3.049   5.692  0.2513  0.0816 -0.7428
 1300TIP3    H125391   5.168   3.092   5.666  0.9563 -0.8205 -0.0810
 1300TIP3    H225392   5.115   2.966   5.731 -0.8904  0.4179  0.8813
 1301TIP3   OH225393   2.921   1.291   2.503  0.1225 -0.1353  0.1467
 1301TIP3    H125394   2.984   1.228   2.467 -0.5992 -0.2499 -0.9788
 1301TIP3    H225395   2.853   1.237   2.543 -0.7421 -0.1271 -1.2392
 1302TIP3   OH225396   6.104   2.204  16.286  0.3616 -0.3892 -0.2691
 1302TIP3    H125397   6.085   2.125  16.335 -0.5288  0.3334  0.5952
 1302TIP3    H225398   6.191   2.190  16.248  0.2516 -1.7176 -0.0471
 1303TIP3   OH225399   5.932   5.241  13.237 -0.0984  0.0347  0.4124
 1303TIP3    H125400   5.854   5.281  13.275  0.9865  2.0942  0.6572
 1303TIP3    H225401   6.005   5.284  13.282  1.1956 -0.8738 -0.7156
 1304TIP3   OH225402   0.179   2.068   4.229  0.4441  0.3137  0.5895
 1304TIP3    H125403   0.135   1.999   4.278  0.2735  1.5545  2.2666
 1304TIP3    H225404   0.272   2.054   4.247  0.3357  1.2837  2.0550
 1305TIP3   OH225405   5.131   2.219   2.238 -0.1237  0.3112  0.3514
 1305TIP3    H125406   5.037   2.215   2.257 -0.0977 -2.8662  0.4081
 1305TIP3    H225407   5.150   2.135   2.195  2.2899  1.8155 -1.8081
 1306TIP3   OH225408   4.859   1.009   1.569 -0.3506  0.5714 -0.7462
 1306TIP3    H125409   4.817   1.005   1.483 -0.8818 -0.6813 -0.4466
 1306TIP3    H225410   4.810   0.948   1.623  1.5340 -0.5783 -0.2442
 1307TIP3   OH225411   5.731   2.317   4.076  0.2696 -0.2147 -0.1039
 1307TIP3    H125412   5.711   2.298   4.168 -0.9766 -0.0666 -0.3213
 1307TIP3    H225413   5.824   2.295   4.066  0.5417  0.2150  1.3008
 1308TIP3   OH225414   5.766   2.499  16.798  0.0677  0.5282  0.1876
 1308TIP3    H125415   5.845   2.509  16.745  0.3522  1.2361  0.7349
 1308TIP3    H225416   5.701   2.554  16.753 -0.4313 -0.8525 -0.8462
 1309TIP3   OH225417   0.943   5.786   1.882  0.3905 -0.1882 -0.0118
 1309TIP3    H125418   1.004   5.819   1.816  0.4698 -1.0027 -0.3655
 1309TIP3    H225419   0.988   5.711   1.921  0.7902  0.9235  1.7387
 1310TIP3   OH225420   2.039   5.809   7.053  0.6346  0.3871 -0.3059
 1310TIP3    H125421   2.008   5.893   7.019 -0.8300  0.4108  0.9890
 1310TIP3    H225422   2.131   5.825   7.077  0.6271  1.3577 -0.8855
 1311TIP3   OH225423   0.906   6.592  16.600 -0.1760 -0.1047  0.0628
 1311TIP3    H125424   0.850   6.551  16.666  0.5056 -1.0718  0.0709
 1311TIP3    H225425   0.984   6.620  16.649 -0.0490 -0.0301 -0.1818
 1312TIP3   OH225426   3.244   5.893   0.931  0.1868  0.3420  0.1971
 1312TIP3    H125427   3.150   5.877   0.920  0.2290 -0.4167  0.8115
 1312TIP3    H225428   3.285   5.811   0.904  0.4909 -0.3403  2.5072
 1313TIP3   OH225429   3.168   1.643   3.430  0.1616  0.1789  0.5470
 1313TIP3    H125430   3.150   1.565   3.377 -1.4478  0.5639  0.4823
 1313TIP3    H225431   3.202   1.608   3.512  0.2093 -0.5378  0.2345
 1314TIP3   OH225432   1.363   3.791  14.416  0.1283 -0.2660 -0.4148
 1314TIP3    H125433   1.429   3.745  14.365  0.6232  0.8927 -0.8691
 1314TIP3    H225434   1.312   3.839  14.351 -0.3645 -0.1685  0.0351
 1315TIP3   OH225435   6.825   3.851  13.657 -0.0413  0.2114 -0.2200
 1315TIP3    H125436   6.762   3.872  13.726 -0.1934 -0.3182 -0.1997
 1315TIP3    H225437   6.850   3.760  13.673  0.5843  0.3535 -0.3427
 1316TIP3   OH225438   4.359   2.240  11.134  0.9818  0.1403  0.8040
 1316TIP3    H125439   4.286   2.181  11.153 -0.2680  0.8985 -1.2371
 1316TIP3    H225440   4.372   2.290  11.215 -0.0482 -0.7489  1.5419
 1317TIP3   OH225441   1.574   6.067   2.090 -0.1061  0.0601  0.3633
 1317TIP3    H125442   1.559   5.987   2.139  2.1230 -0.9550 -0.4912
 1317TIP3    H225443   1.636   6.117   2.144  0.6941 -0.0884 -0.4055
 1318TIP3   OH225444   6.199   5.510  13.984 -0.2154  0.2730 -0.0600
 1318TIP3    H125445   6.283   5.469  14.004 -0.7014  0.4004  2.5357
 1318TIP3    H225446   6.142   5.436  13.961  0.1365 -0.0035 -0.0602
 1319TIP3   OH225447   3.962   2.671  16.037  0.5396  0.6669 -0.3829
 1319TIP3    H125448   3.904   2.743  16.013 -0.5374 -0.2762 -0.6844
 1319TIP3    H225449   3.911   2.592  16.020  2.2085 -0.2392 -1.4752
 1320TIP3   OH225450   1.342   4.032  16.564 -0.1785 -0.1968  0.6443
 1320TIP3    H125451   1.258   3.995  16.537 -0.5679  1.5464 -0.7663
 1320TIP3    H225452   1.326   4.126  16.570  1.9431  0.3591 -0.9367
 1321TIP3   OH225453   1.911   3.654   0.439  0.0963 -0.9007  0.0871
 1321TIP3    H125454   1.941   3.670   0.350 -0.2100 -3.3537 -0.5221
 1321TIP3    H225455   1.821   3.621   0.429 -0.3411 -0.1948  1.4031
 1322TIP3   OH225456   4.797   0.948  10.547 -0.0547  0.0868  0.0219
 1322TIP3    H125457   4.764   0.919  10.462 -1.0973 -0.1899  0.4961
 1322TIP3    H225458   4.721   0.941  10.605  0.1641  1.9323  0.5921
 1323TIP3   OH225459   3.295   2.830  15.509  0.3706  0.1316  0.3483
 1323TIP3    H125460   3.301   2.855  15.601  3.0633  0.2087  0.2511
 1323TIP3    H225461   3.377   2.783  15.492 -0.3565 -0.4567 -1.8420
 1324TIP3   OH225462   5.892   3.450   0.568 -0.0481 -0.1250 -0.4918
 1324TIP3    H125463   5.985   3.454   0.545 -0.5652  0.0309 -2.7771
 1324TIP3    H225464   5.850   3.409   0.493 -1.6167 -2.2060  1.3818
 1325TIP3   OH225465   5.598   1.362  15.894 -0.1773 -0.6957 -0.0252
 1325TIP3    H125466   5.672   1.422  15.881  0.4149 -0.8340  2.2908
 1325TIP3    H225467   5.559   1.354  15.807  3.2232 -1.5878 -1.6511
 1326TIP3   OH225468   5.055   6.753  12.304 -0.0437 -0.4107  0.0605
 1326TIP3    H125469   5.068   6.660  12.283 -3.3091 -1.8468  3.2920
 1326TIP3    H225470   5.124   6.773  12.367 -1.6157 -2.0317  2.4540
 1327TIP3   OH225471   0.505   4.366  10.956 -0.2864  0.2096  0.3621
 1327TIP3    H125472   0.495   4.344  10.864  0.8284  1.2518 -0.0343
 1327TIP3    H225473   0.448   4.442  10.968 -0.1454  0.3043  0.4347
 1328TIP3   OH225474   4.247   4.001  11.914 -0.0868 -0.2692 -0.3048
 1328TIP3    H125475   4.196   4.065  11.963 -1.1652 -0.9718 -0.4845
 1328TIP3    H225476   4.329   4.047  11.893 -0.2896  0.5892  0.7049
 1329TIP3   OH225477   5.590   4.484   2.398  0.4752  0.2960 -0.0673
 1329TIP3    H125478   5.608   4.412   2.337  0.7941  0.8111 -0.5941
 1329TIP3    H225479   5.509   4.523   2.366 -0.1989 -0.3804  0.7563
 1330TIP3   OH225480   5.405   4.346   1.212 -0.7667 -0.3340 -0.3067
 1330TIP3    H125481   5.406   4.252   1.229  0.3316 -0.1584  0.7712
 1330TIP3    H225482   5.391   4.385   1.299  0.6255  0.5207 -0.4311
 1331TIP3   OH225483   4.779   0.987  13.508 -0.4037  0.1160 -0.3608
 1331TIP3    H125484   4.834   0.978  13.586 -0.1625  0.6483 -0.4600
 1331TIP3    H225485   4.792   0.906  13.460  1.5190  0.8267 -1.1364
 1332TIP3   OH225486   4.516   2.174   3.282 -0.1794  0.3266  0.3470
 1332TIP3    H125487   4.489   2.197   3.371  2.5352  2.8143  0.6753
 1332TIP3    H225488   4.452   2.217   3.225 -1.3471 -0.4423  1.0320
 1333TIP3   OH225489   6.329   6.250  11.052 -0.1892  0.1294 -0.4681
 1333TIP3    H125490   6.354   6.277  11.141 -0.6834 -1.2356  0.1191
 1333TIP3    H225491   6.338   6.329  10.999  0.3828  0.9020  0.7480
 1334TIP3   OH225492   3.716   6.617  13.645  0.1395  0.1225  0.3986
 1334TIP3    H125493   3.721   6.651  13.555 -0.6170 -0.5010  0.1094
 1334TIP3    H225494   3.706   6.695  13.699 -0.0057  0.4728 -0.1195
 1335TIP3   OH225495   1.429   2.607   2.643  0.6194  0.3248 -0.1534
 1335TIP3    H125496   1.358   2.666   2.618  1.1647  0.9333 -0.2808
 1335TIP3    H225497   1.505   2.638   2.593  1.4464  0.8281  1.3590
 1336TIP3   OH225498   6.398   6.566   5.612  0.0141  0.7460 -0.3342
 1336TIP3    H125499   6.341   6.619   5.668  0.7903  0.1704  1.0639
 1336TIP3    H225500   6.427   6.626   5.544  0.8732  2.1591  1.1989
 1337TIP3   OH225501   0.715   1.354  10.696  0.1223 -0.5128 -0.6138
 1337TIP3    H125502   0.643   1.349  10.758  0.5639  0.6557  0.0236
 1337TIP3    H225503   0.763   1.271  10.708 -0.5864 -0.9030 -0.4160
 1338TIP3   OH225504   2.461   1.560   3.545 -0.2305  0.5026  0.3155
 1338TIP3    H125505   2.370   1.587   3.532 -0.0867  0.8623  0.0370
 1338TIP3    H225506   2.479   1.499   3.474  0.2123  1.6130 -0.5601
 1339TIP3   OH225507   3.477   6.504   5.494 -0.0243  0.3915  0.1888
 1339TIP3    H125508   3.542   6.501   5.424  0.8101 -0.0956  0.9635
 1339TIP3    H225509   3.508   6.441   5.558 -1.4551 -0.1112  0.4266
 1340TIP3   OH225510   0.096   4.105   3.484  0.2101  0.3516  0.0744
 1340TIP3    H125511   0.164   4.037   3.477  0.4386  0.6323 -0.5904
 1340TIP3    H225512   0.116   4.151   3.565  0.5630  0.1633  0.0967
 1341TIP3   OH225513   1.706   2.379   5.379 -0.3897 -0.4917 -0.0794
 1341TIP3    H125514   1.706   2.475   5.374 -0.7040 -0.5471 -2.3753
 1341TIP3    H225515   1.730   2.351   5.291  0.4046 -2.5476  0.7390
 1342TIP3   OH225516   4.891   2.621   0.431  0.5519  0.3920 -0.0575
 1342TIP3    H125517   4.868   2.530   0.452 -3.4896  1.5447  1.2977
 1342TIP3    H225518   4.907   2.620   0.337  0.4817 -1.6878 -0.0964
 1343TIP3   OH225519   4.013   2.460   0.659  0.5113 -0.8107 -0.2257
 1343TIP3    H125520   3.930   2.426   0.692 -0.3689  2.3874  1.3654
 1343TIP3    H225521   4.002   2.464   0.564 -0.4265 -2.1224 -0.1922
 1344TIP3   OH225522   4.419   0.018  16.306 -0.1566 -0.3256  0.2469
 1344TIP3    H125523   4.445   0.018  16.214 -1.3655 -0.7839 -0.1243
 1344TIP3    H225524   4.330  -0.018  16.305  0.0461 -0.9204  1.6652
 1345TIP3   OH225525   6.799   1.158  13.908 -0.5803 -0.0857  0.6460
 1345TIP3    H125526   6.853   1.170  13.986 -1.7524 -1.0552  1.6324
 1345TIP3    H225527   6.833   1.223  13.846  0.8448  0.2115  1.6919
 1346TIP3   OH225528   4.843   0.490  15.642  0.0007  0.3273  0.1932
 1346TIP3    H125529   4.936   0.514  15.648  0.8703 -2.8423  1.3507
 1346TIP3    H225530   4.796   0.571  15.661  2.5605  1.5660  1.8307
 1347TIP3   OH225531   5.715   1.397  12.332  0.0629 -0.3761  0.5153
 1347TIP3    H125532   5.810   1.398  12.319 -0.0900 -0.8950 -0.7717
 1347TIP3    H225533   5.699   1.320  12.387  0.3903 -0.1876  0.8861
 1348TIP3   OH225534   1.850   5.021  14.718 -0.9681 -0.2372 -0.3969
 1348TIP3    H125535   1.801   5.085  14.667 -0.8445  0.2568  0.1060
 1348TIP3    H225536   1.847   5.053  14.808  2.3672  1.1881 -0.6594
 1349TIP3   OH225537   1.588   0.219   2.143  0.3191  0.3747 -0.2361
 1349TIP3    H125538   1.628   0.212   2.056  0.4720 -1.6063 -0.0472
 1349TIP3    H225539   1.653   0.181   2.202 -0.0763  1.0656  0.6674
 1350TIP3   OH225540   1.538   4.130  12.605 -0.4301 -0.3520 -0.4536
 1350TIP3    H125541   1.488   4.209  12.583  0.0679  0.1973  0.3103
 1350TIP3    H225542   1.590   4.112  12.526 -0.8303 -0.1397 -0.7710
 1351TIP3   OH225543   2.792   6.681   2.521 -0.0111 -0.0342  0.4874
 1351TIP3    H125544   2.788   6.704   2.428  1.4904 -0.0410  0.3976
 1351TIP3    H225545   2.857   6.740   2.558  0.0642 -0.6359  1.3477
 1352TIP3   OH225546   1.728   2.567  17.118 -0.2931  0.0387 -0.6095
 1352TIP3    H125547   1.663   2.497  17.120 -0.5283  0.2213 -1.3347
 1352TIP3    H225548   1.677   2.647  17.108  0.0287  0.1869 -1.1414
 1353TIP3   OH225549   3.294   1.393   1.821 -0.3709  0.6527  0.0932
 1353TIP3    H125550   3.205   1.393   1.787 -0.5136 -0.2821  0.4523
 1353TIP3    H225551   3.296   1.466   1.883 -0.8952  0.6473  0.1167
 1354TIP3   OH225552   5.671   6.125  15.042  0.0948 -0.3514 -0.1193
 1354TIP3    H125553   5.618   6.076  14.980  0.5312  0.2639 -1.0081
 1354TIP3    H225554   5.746   6.156  14.990  2.1089 -2.3635  1.3772
 1355TIP3   OH225555   5.008   0.359  12.700  0.6332  0.2021  0.0840
 1355TIP3    H125556   5.089   0.385  12.744 -0.4118  1.8536  1.1464
 1355TIP3    H225557   5.028   0.369  12.606  1.6951  0.4294  0.3167
 1356TIP3   OH225558   1.535   6.496   0.656  0.2609 -0.1668  0.0922
 1356TIP3    H125559   1.511   6.546   0.733 -1.3983 -1.7991  0.7007
 1356TIP3    H225560   1.579   6.559   0.599  1.3590  1.1212  2.2556
 1357TIP3   OH225561   4.208   4.796   3.824 -0.1991 -0.1110  0.5452
 1357TIP3    H125562   4.152   4.725   3.794  0.2630 -0.7325  1.1144
 1357TIP3    H225563   4.160   4.876   3.803 -0.3238 -0.5540 -0.9324
 1358TIP3   OH225564   6.396   2.748  14.455  0.1994  0.1042 -0.3708
 1358TIP3    H125565   6.308   2.755  14.490 -0.0262 -0.2102 -0.8617
 1358TIP3    H225566   6.451   2.726  14.531 -0.2678 -0.4786 -0.1956
 1359TIP3   OH225567   2.169   0.853  14.842  0.2774 -0.3882  0.2631
 1359TIP3    H125568   2.142   0.894  14.759  1.6481 -0.8275 -0.4303
 1359TIP3    H225569   2.120   0.900  14.909 -0.3059  0.4745 -0.7360
 1360TIP3   OH225570   1.145   2.673  16.397  0.1722 -0.0033 -0.1054
 1360TIP3    H125571   1.188   2.596  16.434 -0.6461  0.1878  1.3030
 1360TIP3    H225572   1.129   2.650  16.305  0.5423 -1.2365  0.1278
 1361TIP3   OH225573   1.136   0.952  12.550 -0.0630  0.0113  0.2340
 1361TIP3    H125574   1.225   0.924  12.571 -0.8019 -1.2055  1.9180
 1361TIP3    H225575   1.097   0.974  12.634 -0.9985  1.7809 -0.5989
 1362TIP3   OH225576   0.242   2.567  13.202  0.2264 -0.4063  0.0887
 1362TIP3    H125577   0.150   2.550  13.182  0.6595 -0.8169 -1.6884
 1362TIP3    H225578   0.245   2.660  13.225 -0.9360 -0.8457  2.2901
 1363TIP3   OH225579   3.845   5.043   1.336  0.1133  0.3132  0.3187
 1363TIP3    H125580   3.816   5.110   1.273 -1.3487 -0.1654  0.4384
 1363TIP3    H225581   3.853   4.964   1.283  0.5549  0.2853  0.4258
 1364TIP3   OH225582   0.465   4.055   4.525  0.3594  0.1877  0.0238
 1364TIP3    H125583   0.477   4.115   4.452  0.8523  2.5505  1.9289
 1364TIP3    H225584   0.396   4.095   4.578  0.3118 -1.2174  1.0956
 1365TIP3   OH225585   0.369   4.056   2.041  0.1339  0.0567 -0.8850
 1365TIP3    H125586   0.280   4.080   2.015  0.4185 -0.3839 -2.3324
 1365TIP3    H225587   0.424   4.126   2.006  0.5019 -0.4087 -1.2493
 1366TIP3   OH225588   1.579   4.177  12.878 -0.6313 -0.1722  0.3929
 1366TIP3    H125589   1.517   4.104  12.882 -1.3351  0.2200 -1.7002
 1366TIP3    H225590   1.601   4.184  12.785  0.9052  1.0776  0.8112
 1367TIP3   OH225591   5.222   0.060  11.449  0.5118  0.0332  0.0339
 1367TIP3    H125592   5.256   0.101  11.370 -1.2062  1.3189 -0.0918
 1367TIP3    H225593   5.264  -0.026  11.452 -0.2190 -0.5014 -2.8872
 1368TIP3   OH225594   2.191   2.841  10.873  0.1339  0.0523  0.3575
 1368TIP3    H125595   2.268   2.899  10.876  0.5691 -0.4450 -0.6277
 1368TIP3    H225596   2.129   2.879  10.935  1.2747  0.3236  1.3624
 1369TIP3   OH225597   3.687   5.599   3.453  0.1463 -0.2816 -0.5440
 1369TIP3    H125598   3.754   5.536   3.480 -0.2166 -0.7912 -0.8172
 1369TIP3    H225599   3.720   5.684   3.483 -0.0031 -0.7520  1.0863
 1370TIP3   OH225600   2.877   3.217  16.270  0.5998  0.5127 -0.3672
 1370TIP3    H125601   2.928   3.164  16.332  1.6208  0.3317 -1.3402
 1370TIP3    H225602   2.932   3.292  16.251 -0.5665  1.6267  0.4813
 1371TIP3   OH225603   6.600   4.113  14.821  0.0078 -0.0865 -0.4572
 1371TIP3    H125604   6.679   4.063  14.801 -1.0961 -1.5384 -1.4635
 1371TIP3    H225605   6.547   4.108  14.741 -1.8722 -0.7231  0.7343
 1372TIP3   OH225606   3.695   2.770   2.634 -0.3602 -0.1539 -0.1707
 1372TIP3    H125607   3.767   2.708   2.649 -1.0622 -0.7452  0.8950
 1372TIP3    H225608   3.628   2.744   2.697 -1.4191  0.5416 -0.9851
 1373TIP3   OH225609   6.513   2.893   0.020  0.4868  0.4105  0.0290
 1373TIP3    H125610   6.529   2.873  -0.072 -0.0076 -0.2286  0.0722
 1373TIP3    H225611   6.504   2.988   0.023  0.7687  0.4584 -0.5382
 1374TIP3   OH225612   0.378   6.317  11.751 -0.0732 -0.3101 -0.2406
 1374TIP3    H125613   0.382   6.236  11.803  0.9121 -0.6773 -0.8609
 1374TIP3    H225614   0.469   6.340  11.736 -0.3499  0.8833 -0.1530
 1375TIP3   OH225615   5.383   0.057  14.936 -0.2578 -0.2342 -0.3143
 1375TIP3    H125616   5.457   0.033  14.879 -0.3275 -1.5192  0.1015
 1375TIP3    H225617   5.326   0.110  14.880  0.9374  0.7274 -0.6604
 1376TIP3   OH225618   0.077   4.290   4.847 -0.0086  0.4343  0.0133
 1376TIP3    H125619   0.131   4.352   4.799 -0.7254  1.4507  0.4804
 1376TIP3    H225620   0.000   4.341   4.873 -0.3620 -0.5145  0.8718
 1377TIP3   OH225621   3.678   2.474   1.223 -0.0164  0.0443  0.1891
 1377TIP3    H125622   3.724   2.510   1.148  0.3785  1.1964  0.9581
 1377TIP3    H225623   3.671   2.547   1.285 -0.9368 -0.6897  0.9927
 1378TIP3   OH225624   0.738   6.034   5.593  0.1814  0.5175  0.6445
 1378TIP3    H125625   0.725   6.045   5.687  0.3110 -0.1048  0.7410
 1378TIP3    H225626   0.716   6.119   5.556  0.1461  0.7750  1.2389
 1379TIP3   OH225627   4.536   1.735  11.171 -0.2494 -0.3080 -0.4043
 1379TIP3    H125628   4.600   1.799  11.141 -0.5683  0.2871  0.1721
 1379TIP3    H225629   4.514   1.685  11.092  0.1950  0.1139 -0.8047
 1380TIP3   OH225630   5.725   1.323   3.130 -0.3614  0.4323  0.2204
 1380TIP3    H125631   5.723   1.277   3.046  0.3221  0.7836 -0.0017
 1380TIP3    H225632   5.735   1.415   3.106 -0.8074  0.5998  0.6754
 1381TIP3   OH225633   3.026   6.030   5.923  0.5474 -0.4970  0.5918
 1381TIP3    H125634   3.110   5.986   5.933 -0.2031 -1.4874  3.2713
 1381TIP3    H225635   2.984   6.024   6.009 -1.9577  0.6262 -0.4300
 1382TIP3   OH225636   0.822   2.840   0.356 -0.1285  0.3078  0.4146
 1382TIP3    H125637   0.899   2.802   0.315 -0.8863  0.0966 -0.8762
 1382TIP3    H225638   0.807   2.921   0.308 -0.5806  0.4451  0.7872
 1383TIP3   OH225639   3.351   3.532  13.770  0.1050 -0.1959  0.1656
 1383TIP3    H125640   3.297   3.599  13.811  0.3924 -1.0778  2.0891
 1383TIP3    H225641   3.288   3.467  13.738 -0.1805  0.9805 -1.8094
 1384TIP3   OH225642   0.656   0.254  15.177 -0.6375 -0.1115  0.0551
 1384TIP3    H125643   0.617   0.169  15.157 -1.9184  0.3948  0.3175
 1384TIP3    H225644   0.583   0.309  15.206  0.0594  1.2531 -0.6287
 1385TIP3   OH225645   2.076   1.986  15.832 -1.0699  0.3246  0.7949
 1385TIP3    H125646   2.154   2.039  15.849 -0.0438 -1.5842  2.4084
 1385TIP3    H225647   2.010   2.022  15.891 -0.7402  0.5192  1.0528
 1386TIP3   OH225648   6.733   4.318   0.953 -0.6648 -0.2962 -0.2450
 1386TIP3    H125649   6.709   4.290   1.042 -1.0880 -0.2194 -0.3357
 1386TIP3    H225650   6.773   4.240   0.914 -0.7925 -0.4335 -0.1034
 1387TIP3   OH225651   0.568   6.458   3.525  0.1126 -0.1468  0.1743
 1387TIP3    H125652   0.494   6.465   3.586  0.7312 -0.0285  0.9313
 1387TIP3    H225653   0.598   6.548   3.513 -0.9918  0.0280 -1.5881
 1388TIP3   OH225654   1.386   4.529   0.980 -0.1503 -0.2525 -0.0717
 1388TIP3    H125655   1.347   4.455   0.932 -1.7192 -0.5386  1.5405
 1388TIP3    H225656   1.328   4.603   0.960  0.7169  0.2808 -0.6983
 1389TIP3   OH225657   6.583   1.334  11.745 -0.3385 -0.3214 -0.4004
 1389TIP3    H125658   6.642   1.381  11.686  0.0259 -0.8387 -0.4528
 1389TIP3    H225659   6.516   1.398  11.768 -0.4312 -0.0848 -1.3050
 1390TIP3   OH225660   6.002   2.974   5.365  0.0533 -0.1380 -0.3505
 1390TIP3    H125661   5.981   2.903   5.304 -0.9150 -0.7857  0.6878
 1390TIP3    H225662   6.093   2.957   5.390 -0.2500 -1.2295  0.1076
 1391TIP3   OH225663   4.223   3.303   1.781 -0.2632  0.0457  0.5465
 1391TIP3    H125664   4.270   3.377   1.741  1.1865 -2.0422 -1.9186
 1391TIP3    H225665   4.291   3.251   1.824 -0.5676 -1.7863 -1.0441
 1392TIP3   OH225666   6.736   5.826  12.087 -0.5228 -0.3626  0.0145
 1392TIP3    H125667   6.746   5.732  12.068  0.8505 -0.2272 -0.0304
 1392TIP3    H225668   6.813   5.867  12.047 -1.5285  0.9047 -0.6774
 1393TIP3   OH225669   4.289   1.987  11.228  0.1896  0.1192  0.3994
 1393TIP3    H125670   4.379   1.974  11.256  0.2008  1.6589  1.1879
 1393TIP3    H225671   4.273   1.918  11.164  1.5083 -0.9549  1.1913
 1394TIP3   OH225672   5.513   1.904  12.485 -0.3860 -0.4478  0.0077
 1394TIP3    H125673   5.466   1.969  12.538 -0.0059  0.5187 -0.8031
 1394TIP3    H225674   5.465   1.823  12.499 -0.5382 -0.1323  1.5016
 1395TIP3   OH225675   4.964   2.022   0.011  0.0567 -0.1511 -0.4280
 1395TIP3    H125676   4.923   1.983   0.088 -1.9453 -1.1340 -1.9129
 1395TIP3    H225677   4.955   2.116   0.024  1.9587 -0.1557  1.6305
 1396TIP3   OH225678   0.112   6.684  13.256 -0.0449 -0.4155 -0.3763
 1396TIP3    H125679   0.140   6.665  13.346 -0.5233 -2.0600 -0.5364
 1396TIP3    H225680   0.017   6.681  13.259 -0.1467  1.7044 -0.5275
 1397TIP3   OH225681   2.345   4.564  16.422  0.2703 -0.3487 -0.1943
 1397TIP3    H125682   2.420   4.529  16.470  1.4790  1.1017 -0.9313
 1397TIP3    H225683   2.313   4.490  16.370  2.3937 -0.5824 -1.2901
 1398TIP3   OH225684   1.595   6.403  13.939  0.0110  0.3090 -0.0502
 1398TIP3    H125685   1.554   6.372  14.020  1.6638  0.8820  1.0548
 1398TIP3    H225686   1.542   6.478  13.912 -0.0475  0.6536  1.0002
 1399TIP3   OH225687   5.207   3.900   3.459 -0.0247  0.0765  0.2955
 1399TIP3    H125688   5.155   3.949   3.395 -0.2124 -1.1835 -0.5510
 1399TIP3    H225689   5.160   3.818   3.471  0.9256 -0.4236  0.7357
 1400TIP3   OH225690   3.020   0.181   2.025 -0.2896  0.2077 -0.3914
 1400TIP3    H125691   3.026   0.194   2.119 -0.4173 -0.2494 -0.3152
 1400TIP3    H225692   2.993   0.266   1.990 -2.8849 -0.2657  0.2714
 1401TIP3   OH225693   2.608   4.327   5.309  0.0153 -0.6631 -0.1233
 1401TIP3    H125694   2.675   4.381   5.350  0.0090 -1.1112  0.4928
 1401TIP3    H225695   2.582   4.375   5.231 -0.0129  0.2400  0.4330
 1402TIP3   OH225696   0.371   3.124  15.279  0.3140 -0.3720  0.0778
 1402TIP3    H125697   0.310   3.050  15.273  1.1268 -0.9946 -0.7409
 1402TIP3    H225698   0.404   3.136  15.190  0.4700  0.7551  0.2703
 1403TIP3   OH225699   6.768   2.191  14.972  0.2607  0.1336 -0.0859
 1403TIP3    H125700   6.702   2.203  15.041 -0.7569 -1.4904 -0.7103
 1403TIP3    H225701   6.831   2.130  15.010 -1.6294 -2.7917 -1.3310
 1404TIP3   OH225702   3.806   4.168  13.050 -0.1815  0.1686 -0.6423
 1404TIP3    H125703   3.813   4.083  13.007  1.1410 -0.6021  0.9970
 1404TIP3    H225704   3.781   4.228  12.979 -3.0285 -1.8231 -1.5037
 1405TIP3   OH225705   2.632   2.817  12.672 -0.1281  0.3928 -0.6940
 1405TIP3    H125706   2.591   2.838  12.588 -0.0508  0.5264 -0.6975
 1405TIP3    H225707   2.630   2.898  12.722 -0.4328  0.2418 -0.4581
 1406TIP3   OH225708   1.694   6.261   0.401 -0.1601  0.2297 -0.3810
 1406TIP3    H125709   1.726   6.230   0.316 -2.6184 -0.3436 -1.1758
 1406TIP3    H225710   1.774   6.280   0.450  1.4054  2.4465 -3.4219
 1407TIP3   OH225711   2.555   0.088  17.138 -0.2996  0.1134  0.3984
 1407TIP3    H125712   2.513   0.130  17.213 -2.0537  0.1721 -0.5558
 1407TIP3    H225713   2.504   0.117  17.062 -1.0664 -2.9840 -0.4062
 1408TIP3   OH225714   6.184   3.623  14.140 -0.4175  0.2097 -0.0643
 1408TIP3    H125715   6.122   3.568  14.188  1.0862 -0.9631  0.6378
 1408TIP3    H225716   6.150   3.712  14.149 -2.3191 -0.4521 -0.2752
 1409TIP3   OH225717   2.700   3.721   4.850 -0.6551  0.5744  0.6718
 1409TIP3    H125718   2.677   3.674   4.769 -0.9393  1.5303  0.1798
 1409TIP3    H225719   2.617   3.759   4.880 -0.2318  1.7502  0.3965
 1410TIP3   OH225720   0.672   4.226  11.873  0.3654 -0.0380 -0.4495
 1410TIP3    H125721   0.751   4.264  11.912  0.5275 -0.7902 -0.0280
 1410TIP3    H225722   0.686   4.131  11.877  0.2910 -0.1400 -2.1524
 1411TIP3   OH225723   2.343   2.209   1.937  0.1898 -0.2782 -0.6066
 1411TIP3    H125724   2.300   2.244   2.014 -1.0625 -0.8104 -1.0461
 1411TIP3    H225725   2.416   2.270   1.921  0.0098  0.2590  0.5280
 1412TIP3   OH225726   6.543   3.521   4.575 -0.0987 -0.7174 -0.6836
 1412TIP3    H125727   6.623   3.574   4.575 -1.2536  1.1222  0.0163
 1412TIP3    H225728   6.567   3.441   4.621  1.2041  0.0275 -0.0234
 1413TIP3   OH225729   0.111   4.638   0.831 -0.1017 -0.5593  0.0661
 1413TIP3    H125730   0.145   4.553   0.805 -0.8015 -0.6298 -0.6540
 1413TIP3    H225731   0.123   4.641   0.926  1.2996 -0.8380 -0.0900
 1414TIP3   OH225732   0.346   3.235   4.737  0.5942 -0.6705 -0.6845
 1414TIP3    H125733   0.319   3.278   4.819 -0.0317  0.8036 -1.6133
 1414TIP3    H225734   0.265   3.195   4.704  0.6888 -0.6775 -0.9091
 1415TIP3   OH225735   3.530   4.832   1.622  0.0563  0.1426  0.0831
 1415TIP3    H125736   3.566   4.810   1.707 -1.1819 -1.8780  0.1528
 1415TIP3    H225737   3.556   4.760   1.565  0.8987  1.4751 -1.2879
 1416TIP3   OH225738   5.619   0.153  14.770  0.6135 -0.3127  0.0323
 1416TIP3    H125739   5.637   0.161  14.676 -1.2830 -0.8528 -0.4169
 1416TIP3    H225740   5.697   0.189  14.812  1.6375 -0.3296 -1.7360
 1417TIP3   OH225741   4.296   0.693  16.053  0.0143  0.4887  0.0480
 1417TIP3    H125742   4.209   0.728  16.034 -1.3565 -2.3347  0.5587
 1417TIP3    H225743   4.325   0.653  15.971  0.9022  1.4684 -0.1375
 1418TIP3   OH225744   2.544   0.176   3.339  0.3413  0.0526  0.5471
 1418TIP3    H125745   2.603   0.184   3.263  0.3953 -0.5018  0.5295
 1418TIP3    H225746   2.577   0.241   3.401  0.7199  0.0371  0.3662
 1419TIP3   OH225747   3.072   4.165  14.770 -0.1148 -0.5563 -0.3422
 1419TIP3    H125748   3.049   4.204  14.686 -1.3936 -1.0894 -0.2624
 1419TIP3    H225749   3.166   4.183  14.780  0.1065 -0.6594 -1.9664
 1420TIP3   OH225750   3.605   1.851   6.042 -0.3865 -0.7286  0.3164
 1420TIP3    H125751   3.650   1.884   6.120  0.0878 -2.3099  0.7495
 1420TIP3    H225752   3.562   1.928   6.005  1.1869  0.5004  0.9020
 1421TIP3   OH225753   5.725   6.370  15.163  0.0319  0.6703 -0.5916
 1421TIP3    H125754   5.708   6.278  15.144 -0.3638  0.2812  1.4377
 1421TIP3    H225755   5.640   6.405  15.190  0.5830  1.0696  0.7003
 1422TIP3   OH225756   0.798   2.154   6.658 -0.0058 -0.3331 -0.0857
 1422TIP3    H125757   0.720   2.102   6.637  0.9146 -1.5221 -0.6911
 1422TIP3    H225758   0.801   2.221   6.591  0.8734 -1.8530 -1.6370
 1423TIP3   OH225759   0.922   1.021   0.600 -0.0914 -0.2915  0.0344
 1423TIP3    H125760   1.016   1.012   0.614 -0.1001 -1.1458 -0.4633
 1423TIP3    H225761   0.896   1.088   0.664  0.5171 -1.4291  1.5328
 1424TIP3   OH225762   0.207   6.386   4.563 -0.6089 -0.3851  0.6108
 1424TIP3    H125763   0.269   6.322   4.526 -0.4377  0.2715 -0.2767
 1424TIP3    H225764   0.133   6.334   4.593  0.2144 -1.1547  1.3606
 1425TIP3   OH225765   3.675   0.960   0.064 -0.0075  0.2975  0.2622
 1425TIP3    H125766   3.582   0.984   0.064  0.1485  0.9027  0.2768
 1425TIP3    H225767   3.711   1.004   0.141  0.5496  1.0789 -0.4335
 1426TIP3   OH225768   4.203   6.236   4.531 -0.0067 -0.3790 -0.2838
 1426TIP3    H125769   4.253   6.181   4.471  0.9075  0.0106  0.1104
 1426TIP3    H225770   4.162   6.174   4.592  0.2537 -0.6820 -0.4127
 1427TIP3   OH225771   0.304   2.964  16.736 -0.2557  0.0082 -0.7210
 1427TIP3    H125772   0.389   3.008  16.742 -0.7257  0.9457 -0.7103
 1427TIP3    H225773   0.295   2.918  16.820 -0.3029  0.9401 -0.2012
 1428TIP3   OH225774   3.705   6.333  13.459  0.0974 -0.3235  0.2031
 1428TIP3    H125775   3.708   6.412  13.512  3.5958 -0.3295  0.2854
 1428TIP3    H225776   3.672   6.265  13.518  1.8122  0.1224  1.7765
 1429TIP3   OH225777   3.296   0.873  13.568 -0.3784  0.4157 -0.2850
 1429TIP3    H125778   3.347   0.862  13.487  0.9539 -0.4957  0.6175
 1429TIP3    H225779   3.231   0.939  13.547 -0.2537 -0.0043 -2.1916
 1430TIP3   OH225780   2.586   1.672   1.604 -0.5668 -0.1717  0.1208
 1430TIP3    H125781   2.678   1.671   1.578  0.1971 -1.8491  2.4451
 1430TIP3    H225782   2.583   1.614   1.681 -3.6921 -0.6802 -0.2579
 1431TIP3   OH225783   0.756   6.053  16.398 -0.0117  0.1180 -0.1070
 1431TIP3    H125784   0.705   6.033  16.476 -0.5387 -1.4683 -0.8154
 1431TIP3    H225785   0.692   6.050  16.326  0.7349 -0.0129 -0.7830
 1432TIP3   OH225786   4.065   0.475  12.805 -0.3931 -0.0195  0.2882
 1432TIP3    H125787   4.094   0.425  12.882 -0.0499  1.1816  0.9653
 1432TIP3    H225788   4.145   0.491  12.755 -0.7709 -1.8942 -1.0481
 1433TIP3   OH225789   0.762   2.911   4.174  0.3399 -0.2382 -0.3546
 1433TIP3    H125790   0.690   2.883   4.117 -0.7499  0.8439  0.4254
 1433TIP3    H225791   0.719   2.962   4.242  1.8647  0.3579  0.1939
 1434TIP3   OH225792   4.321   1.862   2.844 -0.2759 -0.1735 -0.0342
 1434TIP3    H125793   4.367   1.935   2.886 -1.1682  0.8527 -0.7694
 1434TIP3    H225794   4.390   1.803   2.816  0.3912 -0.3521  1.8758
 1435TIP3   OH225795   3.011   2.073   0.417 -0.4752 -0.0644  0.3020
 1435TIP3    H125796   3.015   2.137   0.489 -1.1483  0.8249 -0.4345
 1435TIP3    H225797   2.918   2.054   0.407 -0.3557 -0.4418 -0.1304
 1436TIP3   OH225798   3.445   5.132   0.564 -0.4480  0.1993 -0.1399
 1436TIP3    H125799   3.353   5.103   0.566 -0.4913  0.3317 -0.1745
 1436TIP3    H225800   3.458   5.176   0.648 -0.0576 -0.8941  0.3844
 1437TIP3   OH225801   4.846   2.902   2.403 -0.1353  0.0392 -0.1024
 1437TIP3    H125802   4.850   2.808   2.389 -0.4976  0.1528 -0.9940
 1437TIP3    H225803   4.917   2.938   2.351  3.2607 -0.0613  3.8861
 1438TIP3   OH225804   4.080   4.575  15.273 -0.2131 -0.2957  0.2476
 1438TIP3    H125805   4.157   4.530  15.238  0.0007  0.0548  0.2593
 1438TIP3    H225806   4.083   4.556  15.367  1.0686  1.4482  0.6108
 1439TIP3   OH225807   0.796   6.540   4.224  0.1462  0.4976 -0.5722
 1439TIP3    H125808   0.720   6.482   4.227  0.6682 -0.1990 -0.7286
 1439TIP3    H225809   0.799   6.582   4.310  1.7218 -2.2297  0.8148
 1440TIP3   OH225810   0.014   0.176  16.057  0.1415 -0.3383  0.5251
 1440TIP3    H125811  -0.069   0.130  16.047  0.9957 -2.0192  0.8376
 1440TIP3    H225812  -0.010   0.261  16.093 -1.5288 -0.3345 -0.5088
 1441TIP3   OH225813   1.489   1.470   3.506  0.0348  0.3790  0.7386
 1441TIP3    H125814   1.583   1.471   3.524  0.3073 -0.1785 -0.5448
 1441TIP3    H225815   1.478   1.529   3.432 -0.7298  0.9559  1.3032
 1442TIP3   OH225816   5.683   4.079   4.174  0.4325 -0.4807  0.3703
 1442TIP3    H125817   5.592   4.072   4.204  0.1480  0.9739 -0.0819
 1442TIP3    H225818   5.676   4.113   4.085  1.3700 -2.1256 -0.3720
 1443TIP3   OH225819   3.268   6.507  14.450  0.0933 -0.6243  0.2845
 1443TIP3    H125820   3.185   6.473  14.417  0.2841 -1.0550  0.2382
 1443TIP3    H225821   3.334   6.469  14.392  0.1624  1.8063 -1.3535
 1444TIP3   OH225822   6.319   5.625   0.967 -0.5666  0.3612 -0.3243
 1444TIP3    H125823   6.348   5.569   1.039 -0.6687  1.5527  0.6721
 1444TIP3    H225824   6.225   5.633   0.980 -0.4235  1.4796  0.0768
 1445TIP3   OH225825   2.064   0.960  14.602 -0.5005  0.3217  0.7318
 1445TIP3    H125826   2.120   0.902  14.551  1.5790  1.1789  1.9057
 1445TIP3    H225827   1.975   0.926  14.590 -0.1105  0.2605 -3.0889
 1446TIP3   OH225828   3.673   0.237  11.042 -0.2185  0.3641  0.0141
 1446TIP3    H125829   3.691   0.186  11.121 -0.0806 -0.1270 -0.3302
 1446TIP3    H225830   3.582   0.216  11.020  0.5571 -1.7572 -1.5585
 1447TIP3   OH225831   4.742   6.475   2.123  0.1716 -0.5523  0.1093
 1447TIP3    H125832   4.656   6.471   2.164  0.5213  0.6421  1.0074
 1447TIP3    H225833   4.776   6.561   2.147  0.8071 -0.1873 -1.8843
 1448TIP3   OH225834   4.703   6.045   3.096 -0.5831  0.0129 -0.5522
 1448TIP3    H125835   4.700   6.085   3.183  1.4888  0.0509 -0.4455
 1448TIP3    H225836   4.733   6.115   3.038 -0.1409 -0.4950 -0.9508
 1449TIP3   OH225837   4.016   2.035  16.771 -0.0960 -0.2353  0.2498
 1449TIP3    H125838   3.978   2.093  16.837  1.3642 -1.6278  2.4371
 1449TIP3    H225839   3.986   1.948  16.795 -0.2293 -0.7185 -1.4999
 1450TIP3   OH225840   2.208   2.264  12.004 -0.0604  0.9690 -0.0495
 1450TIP3    H125841   2.170   2.301  12.084 -0.2375  1.5731 -0.4016
 1450TIP3    H225842   2.289   2.222  12.033 -1.6359 -1.6195  0.9592
 1451TIP3   OH225843   0.242   4.995  16.124 -0.1422 -0.0663 -0.1281
 1451TIP3    H125844   0.313   4.930  16.126  0.2771  0.3532 -0.7854
 1451TIP3    H225845   0.228   5.011  16.031 -0.9977 -0.0251  0.0075
 1452TIP3   OH225846   3.703   6.517   2.132  0.3294 -0.4019  0.2586
 1452TIP3    H125847   3.752   6.554   2.059  1.3191  1.1098  1.6047
 1452TIP3    H225848   3.717   6.423   2.125 -1.8050 -0.6078 -2.9619
 1453TIP3   OH225849   4.551   2.548  14.836 -0.4124 -0.4719 -0.0498
 1453TIP3    H125850   4.571   2.595  14.756  1.2005  0.1357  0.6588
 1453TIP3    H225851   4.601   2.466  14.829 -1.1239 -0.9041 -0.1326
 1454TIP3   OH225852   0.740   2.405  13.734 -0.3165 -0.4337 -0.0623
 1454TIP3    H125853   0.664   2.455  13.703  1.6027  3.1304  0.4790
 1454TIP3    H225854   0.728   2.401  13.829  0.6128  1.0977  0.1499
 1455TIP3   OH225855   5.508   2.262   5.887 -0.4113 -0.0698 -0.2600
 1455TIP3    H125856   5.484   2.259   5.794  2.1389 -3.4502 -1.0129
 1455TIP3    H225857   5.571   2.334   5.893  0.6481 -0.8158 -1.6067
 1456TIP3   OH225858   1.847   2.994  10.854  0.1612  0.6223 -0.0280
 1456TIP3    H125859   1.778   2.944  10.899  0.7491 -0.3067 -0.1325
 1456TIP3    H225860   1.800   3.063  10.807 -0.9738 -1.3334 -1.9490
 1457TIP3   OH225861   4.468   1.494   1.177 -0.1543 -0.1453  0.2647
 1457TIP3    H125862   4.428   1.442   1.248 -1.9187  0.7190 -0.0303
 1457TIP3    H225863   4.531   1.550   1.221 -0.1199 -0.6988  0.9447
 1458TIP3   OH225864   6.040   3.094   0.418  0.2211  0.2851  0.4795
 1458TIP3    H125865   6.027   3.111   0.511  0.4265 -0.5371  0.6660
 1458TIP3    H225866   5.969   3.142   0.374 -1.3573 -1.2350  1.2269
 1459TIP3   OH225867   6.181   3.888  11.677 -0.3523  0.4739 -0.0479
 1459TIP3    H125868   6.142   3.945  11.743  0.6133  0.4820  0.5378
 1459TIP3    H225869   6.147   3.921  11.593 -0.3268  1.4904  0.3290
 1460TIP3   OH225870   3.011   5.458   2.608 -0.3286  0.2601  0.0749
 1460TIP3    H125871   3.051   5.455   2.522  2.3063 -2.3167  1.1915
 1460TIP3    H225872   3.061   5.523   2.657 -2.5377  2.5521 -0.5240
 1461TIP3   OH225873   4.308   4.306   0.810 -0.1563 -0.1549  0.3986
 1461TIP3    H125874   4.371   4.364   0.767 -2.3186  0.5749 -2.0222
 1461TIP3    H225875   4.267   4.360   0.877 -0.2030  0.2411  0.0530
 1462TIP3   OH225876   2.220   1.685  15.823  0.2289 -0.1701  0.2920
 1462TIP3    H125877   2.133   1.645  15.817 -1.8285  3.3939  2.5175
 1462TIP3    H225878   2.228   1.710  15.915  1.8163  3.1628 -0.6170
 1463TIP3   OH225879   4.560   6.314   4.095 -0.8308  0.0289 -0.0199
 1463TIP3    H125880   4.561   6.367   4.016  1.6971 -0.6408 -0.5514
 1463TIP3    H225881   4.569   6.377   4.167  0.9293  0.4732 -0.5708
 1464TIP3   OH225882   0.216   0.831  14.846 -0.8709 -0.3902  0.2707
 1464TIP3    H125883   0.145   0.813  14.907 -0.7268  0.7287  0.7900
 1464TIP3    H225884   0.290   0.856  14.901 -1.3530  2.8213 -0.3265
 1465TIP3   OH225885   0.975   5.016  16.990 -0.0363  0.2764 -0.1566
 1465TIP3    H125886   1.039   5.031  17.060  0.4036 -1.1935 -0.2053
 1465TIP3    H225887   0.975   4.921  16.978 -1.3943  0.3554 -0.9606
 1466TIP3   OH225888   4.210   3.455   4.275 -0.2252 -0.1534  0.2143
 1466TIP3    H125889   4.127   3.433   4.317 -0.8708  3.1742  0.9900
 1466TIP3    H225890   4.194   3.441   4.181 -1.6441  0.2734  0.3693
 1467TIP3   OH225891   3.617   3.122  17.028 -0.0744 -0.2540 -0.4495
 1467TIP3    H125892   3.673   3.047  17.008  0.9590  0.4322 -0.2331
 1467TIP3    H225893   3.625   3.134  17.123  2.0636  1.7939 -0.7721
 1468TIP3   OH225894   5.503   6.066   4.798  0.1520 -0.1762 -0.0950
 1468TIP3    H125895   5.580   6.043   4.852  0.5454  0.3711 -0.4213
 1468TIP3    H225896   5.512   6.160   4.783 -0.9082  0.0083  0.3657
 1469TIP3   OH225897   4.992   6.774   3.434  0.9894 -0.3643 -0.1709
 1469TIP3    H125898   4.962   6.864   3.445  2.0230  0.1395 -1.1923
 1469TIP3    H225899   5.081   6.773   3.471  1.4282 -0.6489 -1.1840
 1470TIP3   OH225900   0.640   4.835   1.411  0.2421 -0.3537 -0.6285
 1470TIP3    H125901   0.654   4.924   1.442  0.7150 -0.5532 -0.2727
 1470TIP3    H225902   0.727   4.796   1.408 -0.0575 -1.1266  0.1902
 1471TIP3   OH225903   6.279   1.113  14.216 -0.1194 -0.1841  0.3433
 1471TIP3    H125904   6.328   1.180  14.264 -1.1301  0.0997  1.0180
 1471TIP3    H225905   6.267   1.042  14.279 -1.4064  0.1641  0.5293
 1472TIP3   OH225906   4.898   6.572  16.353  0.5835 -0.0354  0.4016
 1472TIP3    H125907   4.822   6.540  16.305  1.3976 -1.7068  0.1430
 1472TIP3    H225908   4.955   6.495  16.361  2.9167  1.4485 -0.7188
 1473TIP3   OH225909   4.014   5.127   5.863  0.4334 -0.0551  0.0293
 1473TIP3    H125910   4.105   5.134   5.836  0.5143 -0.2633  0.2481
 1473TIP3    H225911   4.003   5.036   5.890  0.2576  0.0596  0.3548
 1474TIP3   OH225912   0.423   2.418  15.191  0.6051 -0.1603  0.1169
 1474TIP3    H125913   0.396   2.378  15.109 -1.1151  1.3926 -0.1249
 1474TIP3    H225914   0.399   2.353  15.258 -0.8830 -0.1577 -0.3726
 1475TIP3   OH225915   3.184   4.760   5.519  0.2335  0.3334  0.3612
 1475TIP3    H125916   3.231   4.680   5.496  0.6386  0.6457  0.0911
 1475TIP3    H225917   3.125   4.734   5.590  0.4434 -0.1779  0.3510
 1476TIP3   OH225918   3.677   6.610  16.237 -0.2828  0.2711  0.1807
 1476TIP3    H125919   3.674   6.704  16.256  1.3861  0.5449 -0.7201
 1476TIP3    H225920   3.596   6.575  16.275 -0.9539  2.0678  0.4936
 1477TIP3   OH225921   6.654   4.803  15.656  0.2731  0.4163  0.1643
 1477TIP3    H125922   6.561   4.785  15.645  0.0621  0.9827  0.9600
 1477TIP3    H225923   6.668   4.887  15.611  0.3315  0.4836  0.3063
 1478TIP3   OH225924   2.803   4.594  14.750  0.1484 -0.1805 -0.5238
 1478TIP3    H125925   2.849   4.530  14.806  0.3745 -1.3653 -2.0097
 1478TIP3    H225926   2.759   4.652  14.812  0.5400 -1.3386  0.8979
 1479TIP3   OH225927   2.779   1.615  15.201 -0.4741  0.0374  0.5685
 1479TIP3    H125928   2.790   1.700  15.244  2.1395 -1.1012  2.3743
 1479TIP3    H225929   2.715   1.569  15.255 -0.8943  0.3569  0.3515
 1480TIP3   OH225930   2.218   1.053   6.168  0.0388  0.4930 -0.2305
 1480TIP3    H125931   2.160   1.019   6.236  1.0844 -3.6504 -1.1142
 1480TIP3    H225932   2.304   1.054   6.209  0.2639  0.5520 -0.7014
 1481TIP3   OH225933   0.043   4.861   1.726 -0.0189 -0.0454 -0.1977
 1481TIP3    H125934   0.118   4.878   1.670  0.1187 -1.3063 -0.4100
 1481TIP3    H225935  -0.028   4.913   1.687 -0.0713 -1.3287 -1.8962
 1482TIP3   OH225936   4.853   6.825   0.311 -0.0705 -0.2114 -0.2709
 1482TIP3    H125937   4.770   6.822   0.263  0.7319  0.0604 -1.7248
 1482TIP3    H225938   4.836   6.886   0.383 -0.8234  0.6942 -1.1831
 1483TIP3   OH225939   0.232   0.248  17.163  0.5748  0.0236  0.6805
 1483TIP3    H125940   0.247   0.326  17.110 -0.0374 -0.8862 -0.8932
 1483TIP3    H225941   0.155   0.270  17.216 -0.1603  0.1860 -0.4159
 1484TIP3   OH225942   1.879   5.434   1.601 -0.3661 -0.1995 -0.0939
 1484TIP3    H125943   1.830   5.352   1.609 -0.1342 -0.4326 -1.0008
 1484TIP3    H225944   1.939   5.432   1.676  0.0027 -1.1221 -0.3887
 1485TIP3   OH225945   0.651   4.988  11.618  1.2442  0.0988  0.0913
 1485TIP3    H125946   0.635   5.057  11.682  1.3099  0.7149 -0.5356
 1485TIP3    H225947   0.564   4.956  11.595  0.7634  2.7658 -2.5793
 1486TIP3   OH225948   2.028   0.722  11.371 -0.2167  0.3332 -0.3386
 1486TIP3    H125949   1.971   0.773  11.429  0.3092  0.2936  0.2203
 1486TIP3    H225950   2.057   0.784  11.305  0.5150  0.7981  0.4062
 1487TIP3   OH225951   2.943   3.906  16.481  0.3693 -0.4880 -0.4603
 1487TIP3    H125952   3.006   3.978  16.487  0.8410 -1.0153  2.4234
 1487TIP3    H225953   2.871   3.932  16.539 -1.6800 -0.3663 -2.8964
 1488TIP3   OH225954   0.601   3.471  14.619  0.0148  0.6304  1.0539
 1488TIP3    H125955   0.568   3.386  14.648  0.5508 -0.3498 -0.9809
 1488TIP3    H225956   0.696   3.464  14.627  0.0396  1.2417  1.3547
 1489TIP3   OH225957   5.546   1.485  14.997 -0.2502  0.6559 -0.4366
 1489TIP3    H125958   5.526   1.450  15.083  0.7903  0.2695 -0.3358
 1489TIP3    H225959   5.549   1.409  14.940  2.0695  0.4968 -0.2082
 1490TIP3   OH225960   4.417   6.768   5.998  0.3089 -0.3587  0.4531
 1490TIP3    H125961   4.466   6.748   6.078 -1.0190  0.1122  1.4139
 1490TIP3    H225962   4.420   6.864   5.992 -0.4570 -0.3290  0.5048
 1491TIP3   OH225963   3.141   3.791   2.507  0.3543 -1.2479  0.7367
 1491TIP3    H125964   3.113   3.701   2.492  0.2353 -1.0849 -0.0246
 1491TIP3    H225965   3.173   3.790   2.597 -0.4046 -1.8598  1.0167
 1492TIP3   OH225966   2.705   1.447   0.107  0.1336  0.0745 -0.3404
 1492TIP3    H125967   2.689   1.482   0.020 -0.4237 -1.5142 -0.9057
 1492TIP3    H225968   2.797   1.466   0.125  0.9200 -1.5833 -2.2581
 1493TIP3   OH225969   0.038   4.030   4.740  0.4299  0.0348 -0.5689
 1493TIP3    H125970   0.024   4.039   4.646 -0.5944  0.9762 -0.3410
 1493TIP3    H225971   0.040   4.120   4.773  0.4425 -0.2910  0.3578
 1494TIP3   OH225972   1.835   5.548  16.744  0.3115 -0.4852  0.5750
 1494TIP3    H125973   1.849   5.580  16.833 -0.7090  0.0809  0.5478
 1494TIP3    H225974   1.895   5.599  16.690  0.8265 -0.7273  0.9173
 1495TIP3   OH225975   1.701   4.001   2.023 -0.1427 -0.2505 -0.0288
 1495TIP3    H125976   1.748   3.922   2.049 -0.3204  0.1555  1.6499
 1495TIP3    H225977   1.614   3.969   1.998 -1.2835 -0.4471  3.5105
 1496TIP3   OH225978   2.218   0.612  12.925 -0.6489  0.2775 -0.3233
 1496TIP3    H125979   2.215   0.686  12.985 -0.3025 -0.2808  0.4063
 1496TIP3    H225980   2.234   0.651  12.839 -0.4045  1.0380  0.0554
 1497TIP3   OH225981   0.563   1.335   0.423 -0.4102  0.4544  0.0503
 1497TIP3    H125982   0.633   1.358   0.362 -1.0197  0.2535 -0.7341
 1497TIP3    H225983   0.537   1.246   0.398 -1.4022  0.7733 -0.1086
 1498TIP3   OH225984   4.469   5.161  14.980 -0.0508 -0.1718  0.5043
 1498TIP3    H125985   4.388   5.126  15.015  0.8595 -0.4682  2.4976
 1498TIP3    H225986   4.489   5.237  15.036  1.4193 -0.5655  0.5743
 1499TIP3   OH225987   6.029   0.864   0.217  0.3906 -0.4782  0.7364
 1499TIP3    H125988   6.047   0.771   0.202  2.3080 -0.4717  2.4647
 1499TIP3    H225989   6.008   0.870   0.310  1.5694  0.9436  0.9532
 1500TIP3   OH225990   2.642   3.321  16.409  0.3311  0.0471 -0.3222
 1500TIP3    H125991   2.570   3.276  16.453  2.0713  0.4291  3.2588
 1500TIP3    H225992   2.694   3.251  16.371  0.1334 -0.5748  0.5212
 1501TIP3   OH225993   6.728   4.893  13.430 -0.5858  0.0174  0.5099
 1501TIP3    H125994   6.663   4.840  13.476 -0.0606 -0.7618  0.3778
 1501TIP3    H225995   6.773   4.831  13.373  1.0603  0.2753  1.4508
 1502TIP3   OH225996   2.410   4.602  14.749  0.3077 -0.2241 -0.1153
 1502TIP3    H125997   2.397   4.697  14.753 -1.4238 -0.4187 -0.6149
 1502TIP3    H225998   2.395   4.579  14.658 -0.0811 -1.0955  0.1581
 1503TIP3   OH225999   1.870   5.637   5.256 -0.3196  0.0289 -0.0093
 1503TIP3    H126000   1.839   5.547   5.255 -0.6143  0.1326 -0.4441
 1503TIP3    H226001   1.815   5.682   5.192  1.6806 -0.1102 -1.9376
 1504TIP3   OH226002   3.032   3.001  16.399  0.1205  0.4990 -0.3897
 1504TIP3    H126003   3.042   2.953  16.482 -1.3068 -0.4309 -0.7210
 1504TIP3    H226004   3.022   2.933  16.333  0.6442  1.2440 -1.2529
 1505TIP3   OH226005   1.163   2.991  11.216  0.0448  0.0222  0.2815
 1505TIP3    H126006   1.252   2.989  11.250 -0.3490 -1.5236  1.2886
 1505TIP3    H226007   1.163   2.927  11.144 -0.4449 -0.6208  0.8376
 1506TIP3   OH226008   2.614   5.523  13.495 -0.3559  0.6667  0.2256
 1506TIP3    H126009   2.696   5.481  13.470 -1.4933 -0.9367 -0.9861
 1506TIP3    H226010   2.598   5.492  13.585 -0.0513  0.2826  0.1513
 1507TIP3   OH226011   2.225   5.533   0.190 -0.1355 -0.2043 -0.2550
 1507TIP3    H126012   2.253   5.495   0.273 -1.7208 -1.3184 -0.1949
 1507TIP3    H226013   2.211   5.458   0.132 -0.1260  0.4937 -1.1839
 1508TIP3   OH226014   5.773   5.868  15.968 -0.0761  0.6255 -0.1222
 1508TIP3    H126015   5.677   5.871  15.965 -0.1672 -0.2548  1.2755
 1508TIP3    H226016   5.795   5.779  15.943  0.3239  0.5148  0.6150
 1509TIP3   OH226017   1.936   6.693   0.782 -0.5820  0.4340 -0.1604
 1509TIP3    H126018   1.942   6.731   0.694 -2.2201  0.5998 -0.2344
 1509TIP3    H226019   1.858   6.637   0.779 -0.3249 -0.0183  1.0149
 1510TIP3   OH226020   6.383   0.357   4.120 -0.5447 -0.2566  0.2235
 1510TIP3    H126021   6.429   0.441   4.114  0.6587 -0.9240 -0.0706
 1510TIP3    H226022   6.450   0.291   4.105 -1.6679 -1.2576 -0.6162
 1511TIP3   OH226023   3.657   2.287   1.536 -0.2800 -0.6243  0.1022
 1511TIP3    H126024   3.680   2.195   1.551 -2.3171 -0.9194  1.9283
 1511TIP3    H226025   3.719   2.337   1.589 -0.4237 -1.0626  0.6859
 1512TIP3   OH226026   2.249   2.159  16.229 -0.1487  0.1260 -0.0261
 1512TIP3    H126027   2.252   2.169  16.324  2.2134  1.1867 -0.1358
 1512TIP3    H226028   2.316   2.094  16.209  0.3665  0.9198 -1.0326
 1513TIP3   OH226029   0.337   1.146   2.449 -0.0864 -0.0933  0.2578
 1513TIP3    H126030   0.308   1.066   2.494  0.7665 -0.1337  0.7700
 1513TIP3    H226031   0.413   1.175   2.500  1.1526 -0.3350 -1.3594
 1514TIP3   OH226032   4.181   6.645  14.184  0.1651  0.0392  0.3750
 1514TIP3    H126033   4.179   6.734  14.218 -0.0003  0.4784 -0.7583
 1514TIP3    H226034   4.273   6.618  14.193  0.0082 -0.0900  1.7303
 1515TIP3   OH226035   2.863   6.195  13.275 -0.7288 -0.5743 -0.0968
 1515TIP3    H126036   2.944   6.218  13.229 -1.6550  1.3092 -0.9326
 1515TIP3    H226037   2.797   6.254  13.236 -1.7715  0.4826  2.9959
 1516TIP3   OH226038   6.805   2.282  11.560  0.8177  0.3475 -0.0270
 1516TIP3    H126039   6.884   2.243  11.599 -0.4908 -0.8094  1.6667
 1516TIP3    H226040   6.737   2.215  11.573 -0.3719  1.1387 -1.8017
 1517TIP3   OH226041   4.439   5.090  17.086  0.0088  0.0667 -0.0155
 1517TIP3    H126042   4.484   5.007  17.103  3.0823  1.7820  1.0706
 1517TIP3    H226043   4.370   5.093  17.152  0.1756 -1.3931  0.2687
 1518TIP3   OH226044   1.676   0.533   0.066  0.8086  0.1081  0.0393
 1518TIP3    H126045   1.759   0.565   0.104  0.5603 -0.4460  1.0901
 1518TIP3    H226046   1.609   0.567   0.125  0.4370 -1.1436  0.3566
 1519TIP3   OH226047   4.926   3.538   2.647 -0.5774 -0.4444  0.3849
 1519TIP3    H126048   4.876   3.598   2.592 -1.6889 -2.2312 -0.6297
 1519TIP3    H226049   4.926   3.580   2.733 -1.3197  1.0069 -0.2825
 1520TIP3   OH226050   0.428   2.822  13.795 -0.1658 -0.3365 -0.3833
 1520TIP3    H126051   0.340   2.795  13.769  0.4682 -0.2661 -2.7860
 1520TIP3    H226052   0.428   2.917  13.783  0.4183 -0.4123 -1.0302
 1521TIP3   OH226053   1.331   4.969   6.300 -0.3985  0.7812  0.3375
 1521TIP3    H126054   1.239   4.973   6.276 -0.4081 -0.3517  0.1026
 1521TIP3    H226055   1.359   4.881   6.273  1.0152  1.4582 -0.5692
 1522TIP3   OH226056   2.609   4.035   3.023 -0.6531 -0.1627  0.0936
 1522TIP3    H126057   2.622   4.086   2.943 -0.1301  0.3474  0.4965
 1522TIP3    H226058   2.656   3.953   3.008  1.0988  0.7046  0.6178
 1523TIP3   OH226059   6.152   2.327  11.524  0.0212  0.2600  0.2162
 1523TIP3    H126060   6.098   2.404  11.510 -0.8723 -0.3353  0.2820
 1523TIP3    H226061   6.092   2.253  11.508  1.3398 -0.4449 -1.9246
 1524TIP3   OH226062   5.144   4.276   1.128  0.1200  0.3548  0.5365
 1524TIP3    H126063   5.218   4.317   1.084 -0.6155  0.3194 -0.7657
 1524TIP3    H226064   5.183   4.229   1.202  1.2616  1.1921  0.4836
 1525TIP3   OH226065   5.980   4.201  12.005 -0.2145 -0.3044 -0.0548
 1525TIP3    H126066   5.983   4.158  11.919 -0.7752 -1.0796  0.2992
 1525TIP3    H226067   5.991   4.130  12.068  1.3192  0.3963  0.5176
 1526TIP3   OH226068   2.201   5.703   2.094 -0.4937  0.3453  0.0279
 1526TIP3    H126069   2.264   5.640   2.131 -0.0704  1.2547  0.9206
 1526TIP3    H226070   2.122   5.651   2.078  0.3500 -0.7409 -0.7631
 1527TIP3   OH226071   1.529   4.069  14.667  0.9154 -0.0901  0.1180
 1527TIP3    H126072   1.504   4.000  14.728 -0.9298  0.2493 -0.1980
 1527TIP3    H226073   1.493   4.041  14.583  0.9848  0.7843 -0.2133
 1528TIP3   OH226074   5.309   6.497  14.131  0.6173  0.0607  0.0731
 1528TIP3    H126075   5.267   6.517  14.215  1.5288  0.2603  0.4968
 1528TIP3    H226076   5.335   6.405  14.139  0.1255 -0.1126 -0.2558
 1529TIP3   OH226077   5.890   2.228   0.635  0.0580  0.1987 -0.3289
 1529TIP3    H126078   5.926   2.293   0.574 -1.3230  2.2330  0.8852
 1529TIP3    H226079   5.939   2.242   0.716  0.8544 -1.4591 -0.4757
 1530TIP3   OH226080   5.109   0.054  11.832 -0.1132  0.1178 -0.7289
 1530TIP3    H126081   5.186   0.091  11.874  0.6642 -1.7956 -0.3572
 1530TIP3    H226082   5.054   0.024  11.904 -0.2242 -0.3898 -1.0175
 1531TIP3   OH226083   3.889   5.007   2.142  0.0037 -0.4216 -0.1277
 1531TIP3    H126084   3.877   5.054   2.059  0.0199 -0.9780 -0.4477
 1531TIP3    H226085   3.979   4.974   2.138  0.3707  0.4260  0.5705
 1532TIP3   OH226086   0.873   3.767   2.307 -0.0749 -0.3195 -0.2908
 1532TIP3    H126087   0.812   3.696   2.286 -0.8950  0.5124 -0.8470
 1532TIP3    H226088   0.914   3.741   2.389 -3.9637  0.7028  2.2878
 1533TIP3   OH226089   5.439   6.249  13.630 -0.1611  0.3181  0.1351
 1533TIP3    H126090   5.346   6.265  13.617  0.2601  1.4420 -1.8691
 1533TIP3    H226091   5.479   6.336  13.634  0.8228 -0.1400  1.0114
 1534TIP3   OH226092   5.838   1.354  11.946  0.1040  0.2877  0.2202
 1534TIP3    H126093   5.899   1.290  11.911 -0.5101  0.7425 -1.8494
 1534TIP3    H226094   5.877   1.382  12.029  1.8995 -0.5478 -0.2921
 1535TIP3   OH226095   6.036   6.127   2.670 -0.8839 -0.4014 -0.2239
 1535TIP3    H126096   6.049   6.189   2.741  0.5368 -0.2941 -0.5406
 1535TIP3    H226097   6.037   6.180   2.591 -0.1483 -0.7643 -0.4643
 1536TIP3   OH226098   1.734   5.347   3.634  0.2303 -0.1033 -0.1033
 1536TIP3    H126099   1.748   5.300   3.716 -0.0190  2.2447  1.3959
 1536TIP3    H226100   1.657   5.307   3.596  1.0598 -2.0419  0.1524
 1537TIP3   OH226101   5.646   3.791  16.831  0.0151  0.3740 -0.4868
 1537TIP3    H126102   5.666   3.881  16.808  1.2194 -0.1489 -1.6224
 1537TIP3    H226103   5.618   3.750  16.749 -0.0645 -0.3942 -0.0931
 1538TIP3   OH226104   4.803   1.544   1.133  0.1993 -0.1615  1.0122
 1538TIP3    H126105   4.749   1.475   1.095  1.0365 -1.3753  1.9608
 1538TIP3    H226106   4.814   1.608   1.062  1.2500 -2.0710 -0.6440
 1539TIP3   OH226107   0.959   1.563  14.721  0.1310  0.4593 -0.0085
 1539TIP3    H126108   0.925   1.538  14.635 -5.6136  0.6845  1.7589
 1539TIP3    H226109   1.011   1.641  14.705  0.1833 -0.1279 -3.3267
 1540TIP3   OH226110   5.213   2.184  16.101 -0.1530 -0.0441 -0.1707
 1540TIP3    H126111   5.174   2.261  16.060 -1.4693 -0.3943  0.3576
 1540TIP3    H226112   5.250   2.216  16.183  1.1558  0.3822 -0.8974
 1541TIP3   OH226113   4.019   2.267   5.743 -0.0379 -0.2401  0.0174
 1541TIP3    H126114   3.957   2.301   5.806 -0.0787 -0.6967  0.2327
 1541TIP3    H226115   4.026   2.334   5.676 -1.7483 -0.7334 -0.6836
 1542TIP3   OH226116   3.133   5.652   4.980  0.4506 -0.3612 -0.1263
 1542TIP3    H126117   3.134   5.661   4.884 -0.4419  1.5968 -0.0097
 1542TIP3    H226118   3.067   5.585   4.997 -1.5829  1.3325 -0.8428
 1543TIP3   OH226119   5.531   5.706  13.147  0.2953  0.6367  0.4286
 1543TIP3    H126120   5.547   5.788  13.195  1.8686  0.3545  0.4493
 1543TIP3    H226121   5.443   5.680  13.173  0.4097  1.4516  1.7423
 1544TIP3   OH226122   6.550   2.568  16.571  0.2478 -0.3453 -0.6261
 1544TIP3    H126123   6.521   2.563  16.480  0.6178  0.2092 -0.7848
 1544TIP3    H226124   6.478   2.609  16.618 -0.1468 -1.0948 -0.5685
 1545TIP3   OH226125   3.113   6.528  15.437 -0.5331 -0.1132  0.6176
 1545TIP3    H126126   3.071   6.526  15.523  2.5987 -0.8321  2.2824
 1545TIP3    H226127   3.117   6.436  15.411  2.0092 -0.4112  1.6978
 1546TIP3   OH226128   3.561   2.843  12.199 -0.3442 -0.1577  0.6342
 1546TIP3    H126129   3.526   2.907  12.137  2.0478  0.1789 -0.4783
 1546TIP3    H226130   3.651   2.872  12.216 -0.2943 -1.3342  2.7857
 1547TIP3   OH226131   1.299   4.443   0.007 -0.9599 -0.2561  0.6602
 1547TIP3    H126132   1.268   4.502  -0.060  0.1136 -0.9440 -0.4916
 1547TIP3    H226133   1.385   4.477   0.031  0.8148 -2.5644 -1.7821
 1548TIP3   OH226134   4.101   1.434  15.621 -0.1754  0.4379 -0.2262
 1548TIP3    H126135   4.167   1.432  15.690  0.2079  1.1023 -0.5596
 1548TIP3    H226136   4.130   1.369  15.557 -0.3750  0.0309  0.0889
 1549TIP3   OH226137   0.024   6.207   3.792  0.1812 -0.7262 -0.0145
 1549TIP3    H126138  -0.060   6.163   3.804 -0.2349  0.1317  0.3391
 1549TIP3    H226139   0.088   6.136   3.789 -0.5494 -1.3945 -0.2678
 1550TIP3   OH226140   1.135   6.084  17.032  0.8541  0.3058  0.2970
 1550TIP3    H126141   1.202   6.057  16.969 -0.0596  1.6193 -1.3136
 1550TIP3    H226142   1.163   6.171  17.061  0.3996  0.4190  0.4031
 1551TIP3   OH226143   2.907   1.802   3.162 -1.1719  0.4362  0.7360
 1551TIP3    H126144   2.936   1.793   3.071  0.1973  1.3048  1.0532
 1551TIP3    H226145   2.873   1.715   3.185  1.5108 -0.8204  0.3702
 1552TIP3   OH226146   4.801   0.318  15.454 -0.2317 -0.8892 -0.4165
 1552TIP3    H126147   4.803   0.377  15.529  1.3627 -0.6705 -0.6053
 1552TIP3    H226148   4.817   0.374  15.378  0.6960 -1.4548 -0.6565
 1553TIP3   OH226149   3.392   2.660   1.749 -0.0165 -0.4003  0.1044
 1553TIP3    H126150   3.342   2.615   1.681 -0.0403  1.4321 -1.1428
 1553TIP3    H226151   3.483   2.636   1.732 -0.2235 -2.0308  1.0767
 1554TIP3   OH226152   1.571   4.627   2.576  0.1684 -0.3580  0.6249
 1554TIP3    H126153   1.608   4.697   2.629  1.0119  0.6157 -1.1827
 1554TIP3    H226154   1.612   4.637   2.490 -1.3006 -1.7455 -0.2930
 1555TIP3   OH226155   4.671   5.418  16.890  0.4603 -0.3209  0.4087
 1555TIP3    H126156   4.692   5.334  16.931 -0.8200 -0.4192  0.9175
 1555TIP3    H226157   4.622   5.394  16.811  2.3327 -0.1099 -0.8839
 1556TIP3   OH226158   1.535   2.581   1.519  0.2240  0.4310  0.1590
 1556TIP3    H126159   1.451   2.623   1.536 -0.2399 -0.6631  0.6294
 1556TIP3    H226160   1.539   2.575   1.423  0.3181  1.5548  0.0764
 1557TIP3   OH226161   2.370   6.715  15.361  0.3479 -0.5787  0.4692
 1557TIP3    H126162   2.385   6.784  15.295  0.8420 -0.6993  0.4493
 1557TIP3    H226163   2.288   6.674  15.334 -0.3908  0.5340  0.9482
 1558TIP3   OH226164   2.573   2.736   6.476  0.0220  0.0111  0.2587
 1558TIP3    H126165   2.553   2.650   6.439  1.0541 -0.7970  1.4885
 1558TIP3    H226166   2.633   2.717   6.549  1.8882  1.9149 -0.6753
 1559TIP3   OH226167   3.278   2.933  10.960  0.3085  0.1387 -0.7169
 1559TIP3    H126168   3.326   2.984  11.025  0.0940 -1.6662  0.9556
 1559TIP3    H226169   3.338   2.864  10.934 -0.0668  0.0921 -1.4997
 1560TIP3   OH226170   0.378   5.661   3.963  0.0324 -0.0247 -0.2420
 1560TIP3    H126171   0.304   5.611   3.996 -0.5409  1.4709  0.8615
 1560TIP3    H226172   0.452   5.601   3.969 -0.6718 -0.8300  0.7939
 1561TIP3   OH226173   4.538   6.369  13.422 -0.2451 -0.0240 -0.2559
 1561TIP3    H126174   4.556   6.463  13.410  1.2518 -0.0842  1.1851
 1561TIP3    H226175   4.500   6.363  13.509 -0.7508 -0.7286 -0.5159
 1562TIP3   OH226176   3.423   5.173  14.551  0.4941  0.2304 -0.2534
 1562TIP3    H126177   3.328   5.169  14.559  0.5217 -1.0611 -0.3361
 1562TIP3    H226178   3.441   5.261  14.519 -0.6376  0.6415  0.2055
 1563TIP3   OH226179   5.458   4.897   5.024  0.2646  0.1198 -0.3650
 1563TIP3    H126180   5.415   4.872   4.943  0.3507 -0.7721 -0.1518
 1563TIP3    H226181   5.551   4.877   5.009  0.7034  2.3243 -0.9395
 1564TIP3   OH226182   6.824   5.857  16.802  0.1618  0.6753 -0.2585
 1564TIP3    H126183   6.814   5.769  16.838 -1.7037  0.6638 -0.7209
 1564TIP3    H226184   6.788   5.852  16.714  3.0864  1.1330 -1.6100
 1565TIP3   OH226185   1.640   0.555  17.003  0.3112  0.0490  0.6166
 1565TIP3    H126186   1.555   0.596  16.986 -0.8092 -2.2606  0.2326
 1565TIP3    H226187   1.654   0.569  17.097 -0.3294  0.7054  0.6309
 1566TIP3   OH226188   4.804   2.506  11.903 -0.2504  0.2943 -0.3511
 1566TIP3    H126189   4.887   2.470  11.872 -0.3499  1.2825 -1.8781
 1566TIP3    H226190   4.798   2.478  11.994  1.6917  0.0956 -0.2472
 1567TIP3   OH226191   1.478   0.488  15.193 -0.2766 -0.3732 -0.5132
 1567TIP3    H126192   1.512   0.461  15.278  0.0341  0.3264 -0.4039
 1567TIP3    H226193   1.391   0.450  15.188 -1.5625  2.0203  1.4228
 1568TIP3   OH226194   0.265   0.344   2.324  0.1947 -0.4872  0.1967
 1568TIP3    H126195   0.198   0.312   2.384  1.7077 -0.9640  1.7245
 1568TIP3    H226196   0.346   0.304   2.356  1.4224  1.1678 -0.7278
 1569TIP3   OH226197   5.013   5.872   5.114  0.1380 -0.1833  0.2120
 1569TIP3    H126198   4.934   5.869   5.061  0.1159  0.6902  0.1803
 1569TIP3    H226199   4.988   5.830   5.197  0.4517 -2.4579 -0.7793
 1570TIP3   OH226200   2.462   1.071   0.263 -0.4728 -0.8680  0.1062
 1570TIP3    H126201   2.510   1.152   0.277 -1.4833 -0.4123  0.9948
 1570TIP3    H226202   2.526   1.012   0.223  0.1092  0.5420 -1.1243
 1571TIP3   OH226203   1.699   2.954  12.556 -0.1158  0.2617  0.1738
 1571TIP3    H126204   1.608   2.973  12.579  0.3606  2.6123  0.4613
 1571TIP3    H226205   1.721   2.876  12.606 -1.7366  0.1170  0.7178
 1572TIP3   OH226206   1.012   4.321  15.240 -0.2777  0.1704 -0.1844
 1572TIP3    H126207   0.961   4.328  15.320  1.2061  1.2448  0.7091
 1572TIP3    H226208   0.946   4.315  15.170 -1.5917  0.2395  1.0048
 1573TIP3   OH226209   3.374   0.619  11.402  0.0798 -0.3419 -0.1347
 1573TIP3    H126210   3.451   0.636  11.456  0.5422  1.7277 -1.3182
 1573TIP3    H226211   3.300   0.636  11.460  0.4991 -1.2211  0.6868
 1574TIP3   OH226212   0.543   4.300   5.302  0.2153  0.3791 -0.4930
 1574TIP3    H126213   0.526   4.206   5.302  1.4055  0.1397  0.3663
 1574TIP3    H226214   0.624   4.310   5.353 -0.4019  1.9612  0.2527
 1575TIP3   OH226215   1.641   6.679   4.835  0.1020 -0.0994  0.0945
 1575TIP3    H126216   1.586   6.682   4.914 -1.6530  2.7332 -1.0882
 1575TIP3    H226217   1.597   6.615   4.778 -1.7018  1.6381 -0.5662
 1576TIP3   OH226218   5.799   2.382  12.056  0.3771 -0.1430  0.1384
 1576TIP3    H126219   5.828   2.292  12.041 -0.7489 -0.5719  0.4302
 1576TIP3    H226220   5.829   2.430  11.978 -1.8960 -1.4893 -1.7113
 1577TIP3   OH226221   5.761   1.764   4.351 -0.4355 -0.7596  0.0113
 1577TIP3    H126222   5.702   1.835   4.326 -0.2305 -0.3435  0.6824
 1577TIP3    H226223   5.775   1.777   4.445  2.4381  0.4760 -0.4809
 1578TIP3   OH226224   4.086   3.096   1.622  0.1403 -0.1486  0.5260
 1578TIP3    H126225   3.991   3.097   1.629  0.0861  0.3007 -0.1791
 1578TIP3    H226226   4.116   3.162   1.684 -0.0019 -0.2601  0.7162
 1579TIP3   OH226227   3.785   3.487   0.445  0.5538  0.0480 -0.0170
 1579TIP3    H126228   3.798   3.392   0.443  0.5077  0.0344 -1.8204
 1579TIP3    H226229   3.873   3.524   0.442  0.5498  0.0614  0.0249
 1580TIP3   OH226230   4.549   0.435   2.444  0.0162  0.1113  0.3939
 1580TIP3    H126231   4.458   0.405   2.451 -0.1145  0.1403 -0.8754
 1580TIP3    H226232   4.542   0.529   2.431  0.2378  0.1383  0.4814
 1581TIP3   OH226233   1.334   3.578  14.056 -0.3859 -0.3335  0.7461
 1581TIP3    H126234   1.241   3.557  14.065 -0.5168  0.5488  1.6467
 1581TIP3    H226235   1.379   3.509  14.105 -0.5848 -0.5151  0.6758
 1582TIP3   OH226236   1.760   2.059  12.835 -0.9126  0.1469 -0.3014
 1582TIP3    H126237   1.854   2.060  12.852 -0.6529 -0.3452 -1.6018
 1582TIP3    H226238   1.733   1.968  12.850 -0.8915 -0.0385 -1.2773
 1583TIP3   OH226239   0.818   6.752   4.914 -0.1068  0.4357 -0.1781
 1583TIP3    H126240   0.833   6.828   4.858 -0.6278 -0.7476 -2.0080
 1583TIP3    H226241   0.769   6.691   4.859 -1.5940 -0.3887  1.9173
 1584TIP3   OH226242   6.304   5.999  16.637  0.5400  0.0622 -0.2127
 1584TIP3    H126243   6.246   6.037  16.571  2.1336  0.5110 -1.4071
 1584TIP3    H226244   6.332   6.073  16.690 -1.7008 -0.4536  1.8399
 1585TIP3   OH226245   4.665   4.234   4.545 -0.0034  0.1434 -0.2325
 1585TIP3    H126246   4.614   4.311   4.572  2.7215  1.3051  2.0919
 1585TIP3    H226247   4.660   4.235   4.449  0.3472  3.6365 -0.3678
 1586TIP3   OH226248   0.215   2.863  13.330  0.0575 -0.4492  0.0254
 1586TIP3    H126249   0.142   2.919  13.357 -1.9988 -2.6244 -0.6969
 1586TIP3    H226250   0.247   2.824  13.411 -1.2786 -1.3986  0.1133
 1587TIP3   OH226251   6.659   6.576  12.991 -0.4044 -0.5857 -0.0479
 1587TIP3    H126252   6.611   6.502  13.029  0.5584 -1.3271 -0.2293
 1587TIP3    H226253   6.751   6.555  13.007 -0.0378 -0.2222 -1.5456
 1588TIP3   OH226254   6.765   4.560   4.330 -0.3748 -0.5266  0.4268
 1588TIP3    H126255   6.824   4.530   4.398 -0.5118  0.5381  1.0314
 1588TIP3    H226256   6.679   4.563   4.372 -0.5172 -0.1650  0.1190
 1589TIP3   OH226257   2.731   3.857   1.068 -0.3295 -0.8013  0.0640
 1589TIP3    H126258   2.821   3.864   1.099 -0.0951 -1.1930 -0.5132
 1589TIP3    H226259   2.711   3.945   1.035  0.1752 -0.9519 -0.6734
 1590TIP3   OH226260   4.509   4.277  12.557 -0.2414 -0.6724  0.3427
 1590TIP3    H126261   4.541   4.227  12.632  0.0884 -0.2701  0.4751
 1590TIP3    H226262   4.484   4.362  12.593  2.1604  0.4058 -0.3310
 1591TIP3   OH226263   5.986   6.678  13.392  0.4255  0.3393  0.3721
 1591TIP3    H126264   6.064   6.639  13.432  1.0035  1.3721  0.2762
 1591TIP3    H226265   6.010   6.769  13.376 -0.7689  0.6493  0.2389
 1592TIP3   OH226266   2.003   2.459   1.587 -0.0878  0.4511 -0.1535
 1592TIP3    H126267   1.932   2.504   1.632 -1.2492 -0.5763 -0.9015
 1592TIP3    H226268   2.039   2.399   1.652  1.7775  2.6463  1.0019
 1593TIP3   OH226269   1.430   0.249   0.335 -0.4424  0.5663 -0.7475
 1593TIP3    H126270   1.431   0.215   0.425  1.7091  1.8957 -0.1914
 1593TIP3    H226271   1.500   0.202   0.291  0.4329  1.9353 -0.8717
 1594TIP3   OH226272   4.148   1.262   5.048  0.0992  0.1388 -0.1371
 1594TIP3    H126273   4.132   1.170   5.029  0.3802 -0.2979  1.5611
 1594TIP3    H226274   4.221   1.286   4.991 -0.7619 -0.3172 -1.4869
 1595TIP3   OH226275   0.123   6.191   6.625  0.5009 -0.1801 -0.0708
 1595TIP3    H126276   0.170   6.117   6.586  0.0638 -1.1880  1.2532
 1595TIP3    H226277   0.055   6.213   6.560  0.9916 -0.5707 -0.7250
 1596TIP3   OH226278   4.985   1.182   3.572 -0.5658  0.7180 -0.5308
 1596TIP3    H126279   4.955   1.143   3.490 -1.9555  1.4392 -0.3960
 1596TIP3    H226280   5.079   1.196   3.559 -0.4585 -0.6139 -1.3946
 1597TIP3   OH226281   2.883   5.238   5.616 -0.2491  0.0569  0.2861
 1597TIP3    H126282   2.962   5.281   5.650  0.2702  1.2369 -2.1673
 1597TIP3    H226283   2.916   5.163   5.566 -0.9754 -1.4863  1.9899
 1598TIP3   OH226284   4.335   1.471  15.766 -0.5499  0.3328  0.2628
 1598TIP3    H126285   4.425   1.474  15.798 -1.3812 -0.0820  2.8058
 1598TIP3    H226286   4.316   1.561  15.741  0.6130  0.3770 -0.6017
 1599TIP3   OH226287   5.532   3.742  17.095 -0.3998  0.5526  0.2263
 1599TIP3    H126288   5.563   3.713  17.009 -0.6290 -0.8872  0.5902
 1599TIP3    H226289   5.500   3.831  17.081 -0.9742  0.1351 -1.3171
 1600TIP3   OH226290   1.740   6.356   4.574  0.0820 -0.4406 -0.6718
 1600TIP3    H126291   1.792   6.427   4.611 -0.0426 -1.4282  1.5605
 1600TIP3    H226292   1.787   6.331   4.495  1.6243  0.3445 -0.0451
 1601TIP3   OH226293   1.227   1.955   0.929  0.0595  0.0308  0.4315
 1601TIP3    H126294   1.148   1.975   0.980 -1.0873 -0.0359 -1.2665
 1601TIP3    H226295   1.289   1.921   0.994 -1.7447 -1.1489  1.6165
 1602TIP3   OH226296   2.933   5.943   0.968 -0.4756  0.9486  0.5074
 1602TIP3    H126297   2.840   5.951   0.986 -0.5476  3.2840 -0.5175
 1602TIP3    H226298   2.944   5.979   0.880  1.3610  0.5700  0.5339
 1603TIP3   OH226299   3.329   6.002  15.103  0.4014  0.3922 -0.0175
 1603TIP3    H126300   3.286   6.018  15.187  1.2573  2.0426  0.1444
 1603TIP3    H226301   3.259   6.013  15.039  0.4517  3.0817  0.2396
 1604TIP3   OH226302   3.327   4.383  13.947 -0.2103 -0.0415  0.2238
 1604TIP3    H126303   3.351   4.302  13.902 -0.3690  0.7935 -1.4339
 1604TIP3    H226304   3.311   4.445  13.877 -2.1911  0.8582  1.4122
 1605TIP3   OH226305   0.666   3.093  11.323  0.8541  0.7479 -0.1840
 1605TIP3    H126306   0.602   3.060  11.387  1.9699  1.2882  1.2621
 1605TIP3    H226307   0.626   3.173  11.290 -0.3549 -0.2339 -1.2394
 1606TIP3   OH226308   1.918   2.416  15.465 -0.1917 -0.3241  0.3447
 1606TIP3    H126309   1.841   2.434  15.519 -0.5232 -2.4537  0.6783
 1606TIP3    H226310   1.882   2.381  15.383  0.3776  1.0744 -0.5497
 1607TIP3   OH226311   1.079   4.449  11.258 -0.2808 -0.0011  0.7137
 1607TIP3    H126312   1.169   4.482  11.260  0.3613 -1.3198 -1.7718
 1607TIP3    H226313   1.025   4.526  11.279  1.3796  0.6911  2.8191
 1608TIP3   OH226314   6.088   3.220  11.644 -0.2234 -0.1163  0.2885
 1608TIP3    H126315   6.115   3.254  11.559  3.3054  0.4955  1.4873
 1608TIP3    H226316   6.032   3.289  11.680  2.2221  1.9959  0.3411
 1609TIP3   OH226317   2.921   2.491   2.820  0.3915  0.2220 -0.2248
 1609TIP3    H126318   2.938   2.583   2.799  0.7027  0.3475  0.5487
 1609TIP3    H226319   2.834   2.474   2.785  0.0522  1.0059  0.2290
 1610TIP3   OH226320   2.897   5.787  12.015 -0.5219 -0.1187 -0.4054
 1610TIP3    H126321   2.881   5.693  12.019  0.6300 -0.3730 -1.2147
 1610TIP3    H226322   2.990   5.796  12.034 -0.5230  0.8087 -0.7894
 1611TIP3   OH226323   6.527   5.882   0.273  0.2349 -0.3979 -0.2446
 1611TIP3    H126324   6.504   5.900   0.364 -1.5730  0.8009 -0.8873
 1611TIP3    H226325   6.475   5.805   0.250  1.3830 -1.2585 -0.0218
 1612TIP3   OH226326   3.055   6.625  13.815  0.2732  0.2697 -0.7569
 1612TIP3    H126327   3.063   6.530  13.824 -0.7878  0.2370 -0.0205
 1612TIP3    H226328   3.146   6.656  13.811  0.7545 -0.5115  2.0698
 1613TIP3   OH226329   6.350   3.477  12.695  0.0269 -0.1572 -0.2150
 1613TIP3    H126330   6.395   3.459  12.612  1.0000 -0.6323  0.3852
 1613TIP3    H226331   6.300   3.556  12.678  0.0877 -0.3260 -1.3001
 1614TIP3   OH226332   5.966   3.413  15.847 -0.3185  0.3189  0.0648
 1614TIP3    H126333   5.951   3.492  15.796 -0.1860  0.7167  0.6223
 1614TIP3    H226334   5.924   3.343  15.798 -0.1770  0.6879 -0.5877
 1615TIP3   OH226335   5.587   4.976   4.632  0.0303 -0.0774  0.1771
 1615TIP3    H126336   5.577   4.905   4.568 -0.1333  0.1494 -0.0464
 1615TIP3    H226337   5.647   4.940   4.698 -0.4861 -0.6268  0.3573
 1616TIP3   OH226338   3.079   4.163   6.153  0.0505 -0.4937 -0.0557
 1616TIP3    H126339   3.004   4.107   6.132 -1.5659  2.2099 -2.2255
 1616TIP3    H226340   3.042   4.251   6.155  2.8457  0.7463  0.9911
 1617TIP3   OH226341   1.103   1.853   2.393  0.8704 -0.5508 -0.2378
 1617TIP3    H126342   1.189   1.811   2.389  2.1463  1.9007  0.1031
 1617TIP3    H226343   1.112   1.932   2.341 -0.7225  0.5302  1.0388
 1618TIP3   OH226344   1.811   2.340  13.630 -0.4625 -0.2793  0.3161
 1618TIP3    H126345   1.730   2.382  13.658 -1.7843 -2.6179  0.3091
 1618TIP3    H226346   1.857   2.319  13.711 -0.2935  0.2312  0.3568
 1619TIP3   OH226347   6.122   4.398  14.015  0.0081 -0.2672 -0.4564
 1619TIP3    H126348   6.200   4.452  14.022  0.6313 -1.1113 -0.6507
 1619TIP3    H226349   6.049   4.459  14.021  0.5661  0.2699  3.2174
 1620TIP3   OH226350   1.113   4.249  11.427  0.0954  0.4412  0.8310
 1620TIP3    H126351   1.027   4.208  11.433  0.2840 -0.0522  0.2407
 1620TIP3    H226352   1.098   4.329  11.378  0.1381 -0.1793 -0.2365
 1621TIP3   OH226353   1.147   2.461  13.704  0.2176 -0.3077  0.1831
 1621TIP3    H126354   1.183   2.487  13.620 -0.5984  1.2351  0.2730
 1621TIP3    H226355   1.057   2.435  13.685 -0.1224  0.4978  0.6159
 1622TIP3   OH226356   2.703   1.443  15.656  0.0598 -0.2848  0.5479
 1622TIP3    H126357   2.754   1.385  15.712 -0.3115 -1.4780 -0.3117
 1622TIP3    H226358   2.634   1.477  15.712  0.4576 -0.4315  1.1322
 1623TIP3   OH226359   5.705   4.126  13.139  0.1590 -0.0001  0.2904
 1623TIP3    H126360   5.764   4.088  13.075  0.5241  0.4993  0.3306
 1623TIP3    H226361   5.662   4.050  13.179  0.7352 -0.3614  0.2347
 1624TIP3   OH226362   2.587   2.692  10.489 -0.8325  0.1611  0.0647
 1624TIP3    H126363   2.657   2.754  10.471 -1.5115  0.6789 -0.8523
 1624TIP3    H226364   2.518   2.744  10.531 -0.3125 -0.5304  1.8826
 1625TIP3   OH226365   2.229   4.108   3.861 -0.0082 -0.4661  0.4440
 1625TIP3    H126366   2.186   4.171   3.919 -2.1049  0.7950 -2.2337
 1625TIP3    H226367   2.204   4.023   3.897 -1.5439  0.2522  1.2099
 1626TIP3   OH226368   2.321   5.870   1.915 -0.0813 -0.2489  0.3703
 1626TIP3    H126369   2.265   5.947   1.906  1.0594  0.4822 -0.8338
 1626TIP3    H226370   2.266   5.805   1.958 -1.6899  0.5911 -0.3465
 1627TIP3   OH226371   0.784   3.339  15.393  0.0055 -0.7494  0.1047
 1627TIP3    H126372   0.707   3.287  15.415  0.1127 -0.6793  0.6841
 1627TIP3    H226373   0.857   3.293  15.436  0.1437 -0.2987  0.3667
 1628TIP3   OH226374   1.672   5.226   5.563  0.2750 -0.4828  0.3430
 1628TIP3    H126375   1.619   5.286   5.511  0.3845  0.5345  1.3834
 1628TIP3    H226376   1.731   5.186   5.499  1.0092  1.3993 -0.2190
 1629TIP3   OH226377   5.211   6.814  15.308  0.1511 -0.6688 -0.7053
 1629TIP3    H126378   5.224   6.896  15.261  2.5127  0.1141  1.0987
 1629TIP3    H226379   5.116   6.809  15.322 -0.1277  1.3471 -1.5372
 1630TIP3   OH226380   2.964   4.396  14.884  0.0027  0.6064 -0.0635
 1630TIP3    H126381   2.977   4.303  14.865  0.6560  0.1977  2.1842
 1630TIP3    H226382   2.935   4.399  14.974 -1.7517  2.5188 -0.6234
 1631TIP3   OH226383   3.534   1.531  14.301  0.2542 -0.2183 -0.7667
 1631TIP3    H126384   3.460   1.577  14.261 -0.1486 -0.4456 -0.3080
 1631TIP3    H226385   3.557   1.585  14.377 -0.1538 -0.6964 -0.2852
 1632TIP3   OH226386   1.191   2.823   3.585 -0.1928  0.0262 -0.0347
 1632TIP3    H126387   1.235   2.754   3.634  0.1230 -0.4598 -0.9887
 1632TIP3    H226388   1.137   2.777   3.521  0.4855  0.6527 -1.0879
 1633TIP3   OH226389   4.055   6.109  11.994  0.0648  0.1146  0.5056
 1633TIP3    H126390   3.992   6.039  11.976  0.5927 -0.0612 -0.8218
 1633TIP3    H226391   4.138   6.064  12.006  0.2564  0.4620  0.4991
 1634TIP3   OH226392   4.064   1.462   6.059 -0.0820  0.2615  0.1240
 1634TIP3    H126393   4.090   1.504   5.977  0.6729  0.3052  0.3744
 1634TIP3    H226394   4.041   1.535   6.117 -1.9926  0.1901 -0.4629
 1635TIP3   OH226395   1.012   1.201  15.413  0.7260 -0.2445  0.0453
 1635TIP3    H126396   0.942   1.249  15.370 -0.6564 -1.9118  0.3577
 1635TIP3    H226397   1.072   1.178  15.342  0.4982  0.3946 -0.3653
 1636TIP3   OH226398   2.549   2.147  17.110  0.5440  0.5550 -0.0908
 1636TIP3    H126399   2.511   2.227  17.075  0.8056  0.3699 -0.8061
 1636TIP3    H226400   2.507   2.076  17.061 -1.4265  0.0778  2.0866
 1637TIP3   OH226401   5.963   3.287  12.369 -0.3168 -0.3016  0.0427
 1637TIP3    H126402   5.895   3.352  12.385 -0.1483  0.1220 -0.8876
 1637TIP3    H226403   5.919   3.203  12.378 -1.7728 -0.0748 -3.4508
 1638TIP3   OH226404   4.790   0.465   1.405  0.0196  0.1218  0.0459
 1638TIP3    H126405   4.695   0.463   1.420  0.0595 -2.4335  0.3256
 1638TIP3    H226406   4.815   0.373   1.397  2.6033  0.6971  0.6620
 1639TIP3   OH226407   3.284   0.255   4.301 -0.0284 -0.2039  0.0134
 1639TIP3    H126408   3.342   0.257   4.376  1.0505 -0.8987 -0.7633
 1639TIP3    H226409   3.283   0.163   4.274 -0.9645 -0.0874 -0.3979
 1640TIP3   OH226410   6.236   5.549   2.520  0.1785 -0.0855 -0.2664
 1640TIP3    H126411   6.157   5.523   2.472  1.0534 -0.4631 -1.5421
 1640TIP3    H226412   6.220   5.640   2.544 -0.4808 -0.0377 -0.8456
 1641TIP3   OH226413   6.161   2.822   1.083  1.0520 -0.3691 -0.4622
 1641TIP3    H126414   6.146   2.753   1.148 -2.5848 -0.0155 -0.6937
 1641TIP3    H226415   6.098   2.802   1.013  2.7592  0.9570 -2.4720
 1642TIP3   OH226416   2.225   2.774  11.205  0.5375 -0.1628  0.2794
 1642TIP3    H126417   2.135   2.771  11.171  1.4213  0.1318 -2.2881
 1642TIP3    H226418   2.234   2.862  11.241 -0.1037 -0.0931  0.2825
 1643TIP3   OH226419   5.258   3.142  12.837 -0.5071 -0.0575  0.5107
 1643TIP3    H126420   5.197   3.207  12.873  0.1132  0.1627  1.1917
 1643TIP3    H226421   5.318   3.193  12.783 -0.7185 -0.2339  0.0986
 1644TIP3   OH226422   5.341   0.821   1.413 -0.9880 -0.3131 -0.0679
 1644TIP3    H126423   5.413   0.840   1.474 -0.6911  2.3831 -1.1159
 1644TIP3    H226424   5.286   0.759   1.461  2.0025 -2.6075  0.7382
 1645TIP3   OH226425   2.818   5.662   0.615  0.6931  0.8115 -0.3022
 1645TIP3    H126426   2.791   5.661   0.707  2.7626 -0.4196  0.3638
 1645TIP3    H226427   2.737   5.649   0.566 -0.4365  1.3176  1.3441
 1646TIP3   OH226428   0.074   2.348  11.324 -0.1058 -0.4669 -0.2803
 1646TIP3    H126429   0.023   2.335  11.404  0.7938 -1.2969  0.1910
 1646TIP3    H226430   0.104   2.260  11.300  3.4554  0.1876  1.0887
 1647TIP3   OH226431   6.751   0.459  16.980 -0.1864  0.2414 -0.3606
 1647TIP3    H126432   6.788   0.493  17.061 -1.6156  0.5833  0.1747
 1647TIP3    H226433   6.771   0.525  16.914 -0.9317  1.0340  0.1890
 1648TIP3   OH226434   0.794   5.142   5.814 -0.2814 -0.7049  0.1944
 1648TIP3    H126435   0.842   5.103   5.887  1.3820 -1.4992 -1.2415
 1648TIP3    H226436   0.819   5.089   5.738 -0.3501  1.3003 -1.3145
 1649TIP3   OH226437   5.296   0.667   6.214  0.4000  0.0560  0.1326
 1649TIP3    H126438   5.361   0.702   6.274  0.2103 -1.9242  1.6126
 1649TIP3    H226439   5.240   0.611   6.269  0.0143 -1.6063 -1.8155
 1650TIP3   OH226440   5.538   1.841  17.218  0.4734  0.4336  0.2318
 1650TIP3    H126441   5.497   1.926  17.204 -0.7633 -0.4183 -1.7460
 1650TIP3    H226442   5.515   1.790  17.140  3.5627 -0.8111  0.0050
 1651TIP3   OH226443   4.357   5.947  14.826 -0.3240  0.3747 -0.1400
 1651TIP3    H126444   4.437   5.946  14.774 -0.6407 -0.6000 -0.6363
 1651TIP3    H226445   4.324   6.036  14.817  0.8150  0.8598  0.2625
 1652TIP3   OH226446   1.061   4.187   6.416  0.5936 -0.4897  0.0919
 1652TIP3    H126447   1.009   4.182   6.336 -0.7425 -0.3051  0.9147
 1652TIP3    H226448   1.016   4.253   6.470  1.8862 -0.0696  0.6952
 1653TIP3   OH226449   4.951   4.936  16.979  0.0630 -0.0254 -0.3353
 1653TIP3    H126450   4.875   4.881  16.961 -1.2057  2.4081 -3.4406
 1653TIP3    H226451   5.020   4.901  16.923  0.3863 -0.5361  0.3682
 1654TIP3   OH226452   5.608   3.018  15.309  0.0707  0.0822 -0.2742
 1654TIP3    H126453   5.573   2.950  15.367  2.3623  0.7794  2.1194
 1654TIP3    H226454   5.686   2.978  15.270  0.2184  0.6347 -0.5506
 1655TIP3   OH226455   3.954   2.481   2.433  0.0073  0.2248 -0.3687
 1655TIP3    H126456   3.961   2.564   2.481  0.2795 -0.7225  1.3182
 1655TIP3    H226457   4.026   2.428   2.467 -0.8929 -1.1421 -0.5105
 1656TIP3   OH226458   0.548   3.065   0.386 -0.4733 -0.3260  0.4016
 1656TIP3    H126459   0.617   3.096   0.327 -0.3978  1.4640  1.3474
 1656TIP3    H226460   0.569   3.105   0.470 -2.3920 -0.1346  0.8367
 1657TIP3   OH226461   2.175   6.585  13.163  0.0613 -0.0400 -0.3265
 1657TIP3    H126462   2.163   6.511  13.222  1.2142 -0.0012 -0.0165
 1657TIP3    H226463   2.215   6.653  13.217  1.1705 -0.0157 -1.1233
 1658TIP3   OH226464   6.335   6.508   2.124  0.2566 -0.0522 -0.5223
 1658TIP3    H126465   6.243   6.531   2.108  0.3417  1.0196  0.3714
 1658TIP3    H226466   6.344   6.516   2.219  0.9657 -1.3888 -0.4641
 1659TIP3   OH226467   3.275   0.628   2.978  0.5250 -0.3452 -0.4519
 1659TIP3    H126468   3.306   0.622   2.888  0.4053  2.6354 -0.8064
 1659TIP3    H226469   3.198   0.571   2.981  0.4513 -0.4006 -2.2726
 1660TIP3   OH226470   3.099   1.989   2.745 -0.3695  0.4467  0.3925
 1660TIP3    H126471   3.014   1.946   2.757 -1.3261 -0.3667 -5.9265
 1660TIP3    H226472   3.162   1.917   2.749 -1.0324 -0.3741 -2.3595
 1661TIP3   OH226473   2.142   1.681   5.787 -0.2830 -0.0346  0.1381
 1661TIP3    H126474   2.142   1.725   5.872  0.7943 -0.5894  0.4421
 1661TIP3    H226475   2.049   1.670   5.766 -0.5997  2.1613  0.1451
 1662TIP3   OH226476   1.694   0.979  13.238  0.6109  0.9788 -0.6276
 1662TIP3    H126477   1.636   1.037  13.188 -0.0604  0.2356 -0.7331
 1662TIP3    H226478   1.780   0.991  13.198  0.0512  0.2243 -2.1673
 1663TIP3   OH226479   5.990   2.639   3.097 -0.9477 -0.0346  0.2556
 1663TIP3    H126480   5.972   2.568   3.159  0.5531 -0.3288  0.3946
 1663TIP3    H226481   6.069   2.681   3.131 -0.6438  0.4012 -0.9455
 1664TIP3   OH226482   6.650   3.747  11.346  0.0211  0.5425  0.3880
 1664TIP3    H126483   6.592   3.777  11.416  0.1266  0.3076  0.5778
 1664TIP3    H226484   6.607   3.669  11.311 -1.8977  2.5792 -2.2184
 1665TIP3   OH226485   0.074   3.573   4.372 -1.0559 -0.2908 -0.6338
 1665TIP3    H126486   0.149   3.534   4.417 -1.4841 -0.0461  0.3259
 1665TIP3    H226487   0.053   3.651   4.424 -2.5925 -0.9024 -0.2678
 1666TIP3   OH226488   4.598   3.687   4.943 -0.3712 -0.1825 -0.9561
 1666TIP3    H126489   4.566   3.598   4.927  0.3607 -0.0443 -3.6440
 1666TIP3    H226490   4.556   3.740   4.876  0.5719  1.1834 -0.5027
 1667TIP3   OH226491   6.604   1.873   3.497  0.7060 -0.6371 -0.0031
 1667TIP3    H126492   6.692   1.867   3.535  1.2275 -0.1890 -1.1173
 1667TIP3    H226493   6.561   1.942   3.547  1.3402 -0.1436 -0.1277
 1668TIP3   OH226494   1.070   5.518   2.669 -0.1255 -0.0927  0.0445
 1668TIP3    H126495   0.979   5.547   2.668 -0.5076 -1.2582 -1.1288
 1668TIP3    H226496   1.111   5.564   2.596 -0.3390 -1.2410 -0.8196
 1669TIP3   OH226497   6.297   3.312  16.272 -0.0517 -0.0041  0.1217
 1669TIP3    H126498   6.316   3.219  16.280  0.3413 -0.0186 -0.8325
 1669TIP3    H226499   6.243   3.319  16.194  0.6575  0.6554 -0.3201
 1670TIP3   OH226500   2.840   6.341   1.678  0.1769  0.0856  0.1621
 1670TIP3    H126501   2.761   6.382   1.643 -0.1314 -0.5916  0.0504
 1670TIP3    H226502   2.889   6.413   1.718 -0.0417  0.6685 -0.6017
 1671TIP3   OH226503   2.865   0.003  15.510 -0.1757 -0.3505 -1.2609
 1671TIP3    H126504   2.812   0.061  15.456  0.1166  1.3503  0.2018
 1671TIP3    H226505   2.804  -0.034  15.574  0.3137  1.6537  0.4611
 1672TIP3   OH226506   5.984   3.062   1.090  0.2445  0.3123 -0.3881
 1672TIP3    H126507   6.032   2.993   1.044  0.9092  0.3307  0.2578
 1672TIP3    H226508   5.960   3.022   1.174  1.2179  1.0771  0.2617
 1673TIP3   OH226509   3.262   4.790  15.740 -0.2511  0.3846 -0.0046
 1673TIP3    H126510   3.169   4.769  15.737 -0.4457  1.1962  0.0892
 1673TIP3    H226511   3.297   4.755  15.658 -0.6915  0.3193 -0.1683
 1674TIP3   OH226512   5.691   1.573   5.663 -0.3847  0.2588  0.0739
 1674TIP3    H126513   5.739   1.635   5.608 -0.7360  0.0794 -0.4478
 1674TIP3    H226514   5.601   1.577   5.631 -0.8104  0.8680  1.2882
 1675TIP3   OH226515   0.124   1.344  11.461 -0.1363  0.0987 -0.1889
 1675TIP3    H126516   0.220   1.340  11.465  0.1024  3.1002 -0.1397
 1675TIP3    H226517   0.105   1.367  11.370 -0.6623  1.0361  0.1405
 1676TIP3   OH226518   5.245   5.106   4.403  0.2276 -0.4146 -0.0741
 1676TIP3    H126519   5.340   5.122   4.409 -0.2915  3.3756  0.4052
 1676TIP3    H226520   5.212   5.128   4.491 -1.1907 -0.7773 -0.4999
 1677TIP3   OH226521   5.279   0.809  15.624 -0.2221 -0.2296 -0.6955
 1677TIP3    H126522   5.357   0.773  15.581  0.5734  0.0412  0.4758
 1677TIP3    H226523   5.302   0.813  15.716 -1.6887 -0.2531 -0.3062
 1678TIP3   OH226524   0.938   4.203   6.172 -0.1191  0.3019  0.1888
 1678TIP3    H126525   0.935   4.252   6.091 -2.0288  1.7402  1.0592
 1678TIP3    H226526   0.849   4.170   6.184  0.0317  0.4151  1.8667
 1679TIP3   OH226527   6.319   4.715  12.479  0.5027 -0.1510  0.7502
 1679TIP3    H126528   6.275   4.787  12.523  1.3277  0.0195  1.3227
 1679TIP3    H226529   6.411   4.723  12.506  0.6896 -1.1314  0.4467
 1680TIP3   OH226530   3.595   4.873  11.920  0.0078 -0.8667 -0.0476
 1680TIP3    H126531   3.622   4.904  11.834 -0.3512 -1.8238 -0.5231
 1680TIP3    H226532   3.593   4.951  11.975  0.3754 -0.2696 -0.8697
 1681TIP3   OH226533   4.751   2.998   3.203 -0.2977  0.1305 -0.4408
 1681TIP3    H126534   4.842   2.997   3.172  0.1610 -3.0138  0.5991
 1681TIP3    H226535   4.754   3.045   3.286  0.5104 -0.4450 -0.1342
 1682TIP3   OH226536   0.586   2.956  14.290 -0.5149 -0.1835 -0.3687
 1682TIP3    H126537   0.528   2.880  14.292 -0.4196 -0.2604 -0.4713
 1682TIP3    H226538   0.595   2.976  14.197  0.9951 -1.2390 -0.4805
 1683TIP3   OH226539   1.469   4.660   2.030  0.1065 -0.2537  0.5778
 1683TIP3    H126540   1.437   4.657   1.940 -0.1952 -0.4235  0.6909
 1683TIP3    H226541   1.434   4.581   2.071  0.0016 -0.0305  0.9227
 1684TIP3   OH226542   0.841   0.233  15.484 -0.1592 -0.1565 -0.1917
 1684TIP3    H126543   0.827   0.201  15.395  1.9156  2.0532 -1.4277
 1684TIP3    H226544   0.774   0.299  15.497 -1.1250 -1.1963  0.3630
 1685TIP3   OH226545   6.580   5.632   4.410 -0.9316 -0.3831  0.4946
 1685TIP3    H126546   6.640   5.558   4.403  2.7367  2.3235  0.4298
 1685TIP3    H226547   6.522   5.623   4.335 -0.1647 -2.7775  0.1002
 1686TIP3   OH226548   5.109   4.030  10.958 -0.1853 -0.0206  0.1007
 1686TIP3    H126549   5.162   3.950  10.962  0.4256  0.4072  2.3070
 1686TIP3    H226550   5.173   4.100  10.941 -0.2217  0.3202  1.2637
 1687TIP3   OH226551   4.540   3.781  12.140  0.3345 -0.2883  0.7358
 1687TIP3    H126552   4.556   3.874  12.127 -3.3789  0.4457  0.2961
 1687TIP3    H226553   4.557   3.741  12.055  0.8051  0.1794  0.6099
 1688TIP3   OH226554   0.184   5.647   4.885 -0.2654 -0.9377 -0.4969
 1688TIP3    H126555   0.102   5.655   4.934  0.8753  2.6802  1.1764
 1688TIP3    H226556   0.179   5.715   4.818  0.7375 -1.7587 -1.4440
 1689TIP3   OH226557   5.378   6.770   5.008 -0.0992 -0.6821 -0.2028
 1689TIP3    H126558   5.378   6.683   4.966 -0.1722 -1.0233  0.4856
 1689TIP3    H226559   5.330   6.756   5.090 -0.4645  0.1066 -0.2744
 1690TIP3   OH226560   2.157   5.682  14.688 -0.0711 -0.8064  0.0985
 1690TIP3    H126561   2.230   5.738  14.715  1.2259 -2.8662  1.1953
 1690TIP3    H226562   2.169   5.671  14.594  0.5916 -0.5147  0.1413
 1691TIP3   OH226563   0.894   2.766   4.846  1.1789 -0.6776  0.1881
 1691TIP3    H126564   0.853   2.705   4.907 -0.4086 -1.1732 -1.2857
 1691TIP3    H226565   0.873   2.853   4.880 -2.6023 -0.8408 -1.2400
 1692TIP3   OH226566   5.676   6.030  15.573 -0.1931  0.3544 -0.1274
 1692TIP3    H126567   5.684   6.046  15.479 -1.3604  0.5136 -0.2098
 1692TIP3    H226568   5.642   6.112  15.609 -0.0714  0.1828  0.3943
 1693TIP3   OH226569   3.999   0.621   5.497  0.8326  0.5514 -0.3137
 1693TIP3    H126570   4.028   0.593   5.411  0.8642  0.1652 -0.1750
 1693TIP3    H226571   4.041   0.562   5.558 -0.6719 -0.3998 -0.1434
 1694TIP3   OH226572   1.910   1.748  16.568  0.7954 -0.1603 -1.0716
 1694TIP3    H126573   1.871   1.802  16.637 -0.3641 -1.4075 -0.6947
 1694TIP3    H226574   1.838   1.693  16.538  1.3556  0.1490 -3.1090
 1695TIP3   OH226575   4.539   3.916  17.066 -0.2568  0.7524  0.2621
 1695TIP3    H126576   4.546   3.944  17.157 -2.2293  3.5137 -0.3122
 1695TIP3    H226577   4.551   3.821  17.069 -0.4023  0.7379  3.3871
 1696TIP3   OH226578   5.807   0.132  15.615 -0.2669 -0.3605  0.2790
 1696TIP3    H126579   5.737   0.196  15.599  1.6096  1.5168 -0.9186
 1696TIP3    H226580   5.798   0.069  15.545  0.6817  1.2694 -1.3922
 1697TIP3   OH226581   0.204   6.755  14.635 -0.3289 -0.3018  0.6469
 1697TIP3    H126582   0.265   6.686  14.608 -2.4431 -2.4232  0.9613
 1697TIP3    H226583   0.118   6.716  14.624 -1.5678  0.8850  4.5622
 1698TIP3   OH226584   3.326   6.564  16.423 -0.0415 -0.3810 -0.0027
 1698TIP3    H126585   3.383   6.543  16.496 -0.2248  0.7682  0.4791
 1698TIP3    H226586   3.348   6.654  16.399  0.2307 -0.8269 -1.5701
 1699TIP3   OH226587   5.162   5.569  13.859  0.9434  0.2737 -0.0327
 1699TIP3    H126588   5.108   5.646  13.842 -0.2616  0.3203  3.3027
 1699TIP3    H226589   5.133   5.505  13.794 -2.2035  0.7579  0.7298
 1700TIP3   OH226590   2.705   2.427  10.421  0.2550  0.0288 -0.2297
 1700TIP3    H126591   2.630   2.402  10.369  1.0893 -1.0676 -0.9487
 1700TIP3    H226592   2.696   2.522  10.432 -0.1540  0.2354 -2.0462
 1701TIP3   OH226593   1.528   5.395   5.391 -0.7327 -0.0321  0.4983
 1701TIP3    H126594   1.454   5.337   5.374 -1.5735  1.0564  0.3035
 1701TIP3    H226595   1.533   5.452   5.314  0.6979 -0.4684  0.2427
 1702TIP3   OH226596   1.410   4.629   4.482  0.6720  0.5201  0.3230
 1702TIP3    H126597   1.345   4.689   4.518  0.2159  1.0029 -1.2151
 1702TIP3    H226598   1.491   4.680   4.478  1.3652 -0.2430  2.7427
 1703TIP3   OH226599   3.919   4.661  16.884  0.4075 -0.3361 -0.2625
 1703TIP3    H126600   3.854   4.632  16.948 -2.9837  1.5811 -2.5343
 1703TIP3    H226601   3.928   4.755  16.900  0.1411  0.0066 -1.9899
 1704TIP3   OH226602   4.801   4.827   1.679 -0.0411 -0.4573 -0.1477
 1704TIP3    H126603   4.760   4.776   1.749 -1.3751 -0.2155 -0.7299
 1704TIP3    H226604   4.767   4.788   1.598  1.3544 -0.6262 -0.6807
 1705TIP3   OH226605   4.576   6.805  15.133  0.3349  0.1756  0.4403
 1705TIP3    H126606   4.574   6.795  15.038 -0.5509  2.3248  0.1667
 1705TIP3    H226607   4.652   6.754  15.161  1.1038  0.1533 -1.5202
 1706TIP3   OH226608   1.276   2.283   4.930  0.3437 -0.0294  0.0994
 1706TIP3    H126609   1.195   2.283   4.983 -0.3918  0.4851 -0.9858
 1706TIP3    H226610   1.290   2.192   4.908  0.1555 -0.1450  0.4421
 1707TIP3   OH226611   2.145   6.115   1.743  0.1769 -0.5622 -0.1586
 1707TIP3    H126612   2.125   6.098   1.835  0.3453  0.4968  0.0799
 1707TIP3    H226613   2.088   6.054   1.695  0.9562 -1.9873  0.6472
 1708TIP3   OH226614   4.663   2.808  16.938 -1.1397 -0.3199  1.1886
 1708TIP3    H126615   4.646   2.891  16.893 -2.7370 -0.7023  1.0382
 1708TIP3    H226616   4.620   2.742  16.883  0.5558 -1.3413  1.0189
 1709TIP3   OH226617   6.159   6.222   0.438 -0.0321 -0.0243 -0.3258
 1709TIP3    H126618   6.250   6.203   0.416 -0.0817  0.1159 -0.6491
 1709TIP3    H226619   6.108   6.174   0.373 -0.1969 -0.3292  0.0223
 1710TIP3   OH226620   3.358   1.493   2.674 -0.0309  0.3227 -0.1877
 1710TIP3    H126621   3.327   1.438   2.746  0.9329  1.4970  1.1954
 1710TIP3    H226622   3.453   1.496   2.686  0.2442 -0.0708 -2.0065
 1711TIP3   OH226623   3.914   1.381  15.806 -0.3419 -0.9561  0.4626
 1711TIP3    H126624   3.958   1.391  15.722  1.1505 -1.0811  1.1923
 1711TIP3    H226625   3.983   1.352  15.866 -0.7490  1.5206  2.2915
 1712TIP3   OH226626   2.149   1.591  11.611  0.3372  0.2256 -0.3867
 1712TIP3    H126627   2.153   1.496  11.608 -0.9976  0.1118  0.6285
 1712TIP3    H226628   2.239   1.619  11.593  0.6241 -1.1822 -1.3243
 1713TIP3   OH226629   3.850   4.623  12.590  0.2449 -0.0697 -0.2576
 1713TIP3    H126630   3.781   4.668  12.638  2.0465  0.8079  1.6853
 1713TIP3    H226631   3.827   4.530  12.597 -2.0836  0.2811 -1.9987
 1714TIP3   OH226632   5.091   2.050  11.531  0.3276  0.4446  0.5301
 1714TIP3    H126633   5.090   2.145  11.520  1.0034  0.3975 -0.0214
 1714TIP3    H226634   5.112   2.036  11.623  0.3934  0.8300  0.5728
 1715TIP3   OH226635   0.039   3.398  14.296 -0.1696 -0.1053 -0.1038
 1715TIP3    H126636   0.059   3.308  14.319  0.8152 -0.3510 -1.7791
 1715TIP3    H226637   0.121   3.445  14.309 -0.1162  0.1222 -1.1463
 1716TIP3   OH226638   0.841   0.239  11.252 -0.1888 -0.4389 -0.1996
 1716TIP3    H126639   0.935   0.238  11.233 -0.3483  0.2956 -1.1230
 1716TIP3    H226640   0.825   0.327  11.286 -0.2039 -1.2203  1.9573
 1717TIP3   OH226641   5.760   1.673  13.468 -0.4666  0.1020  1.0703
 1717TIP3    H126642   5.699   1.722  13.523  0.4360  1.2285  1.1103
 1717TIP3    H226643   5.841   1.670  13.519  0.3026  0.9202 -0.0442
 1718TIP3   OH226644   2.210   5.430  12.774 -0.0963  0.2930 -0.4631
 1718TIP3    H126645   2.276   5.452  12.840  0.0492  1.0633 -0.8428
 1718TIP3    H226646   2.211   5.505  12.714 -2.2554  0.9359  0.2291
 1719TIP3   OH226647   2.613   4.802  10.749  0.4093 -0.2332 -0.4889
 1719TIP3    H126648   2.604   4.714  10.714  0.7640 -1.4980  2.3229
 1719TIP3    H226649   2.543   4.852  10.706  0.1768 -1.8592 -2.1289
 1720TIP3   OH226650   0.676   0.469  13.941  0.7006 -0.3770  0.0591
 1720TIP3    H126651   0.592   0.448  13.900 -0.0043  0.1925  1.1492
 1720TIP3    H226652   0.673   0.564  13.954  1.4657 -0.3677  0.2206
 1721TIP3   OH226653   0.182   0.266  14.061 -0.3105  0.0395  0.0158
 1721TIP3    H126654   0.140   0.204  14.121 -0.5104  0.0107 -0.1540
 1721TIP3    H226655   0.169   0.352  14.102 -0.2305 -0.0073  0.1374
 1722TIP3   OH226656   4.011   3.828   4.530 -0.1002  0.2147 -0.4435
 1722TIP3    H126657   3.940   3.823   4.594  0.2533 -1.1998 -0.1296
 1722TIP3    H226658   3.968   3.836   4.445 -0.7249 -2.0534 -0.4091
 1723TIP3   OH226659   4.305   4.625   6.278 -0.4703 -0.2059  0.2380
 1723TIP3    H126660   4.222   4.671   6.289 -1.1138 -1.5278  1.1995
 1723TIP3    H226661   4.281   4.532   6.280  0.9409 -0.6061 -0.2994
 1724TIP3   OH226662   5.188   5.787  14.511 -0.1959  0.4124  0.3232
 1724TIP3    H126663   5.205   5.758  14.600 -2.8850 -0.7703  0.5507
 1724TIP3    H226664   5.222   5.717  14.456 -1.0849 -0.2414  0.5844
 1725TIP3   OH226665   1.364   4.192   2.807 -0.3815  0.6226  0.4042
 1725TIP3    H126666   1.316   4.201   2.889 -1.3923 -0.4867 -0.0266
 1725TIP3    H226667   1.457   4.201   2.831 -0.7353  1.6289  1.4348
 1726TIP3   OH226668   6.670   6.054  16.917 -0.3669 -0.6103 -0.2148
 1726TIP3    H126669   6.652   6.013  17.001  0.6197 -1.1972 -0.2715
 1726TIP3    H226670   6.704   5.983  16.862  0.4950  0.0711 -0.6012
 1727TIP3   OH226671   4.823   5.144  15.666  0.4632 -0.6581  0.8360
 1727TIP3    H126672   4.834   5.059  15.624 -0.5056  0.1286 -1.1085
 1727TIP3    H226673   4.837   5.126  15.759  4.0755 -2.2383  0.1711
 1728TIP3   OH226674   5.451   6.157   0.133 -0.4695  0.5481  0.2449
 1728TIP3    H126675   5.456   6.157   0.037 -1.3435  0.6393  0.1925
 1728TIP3    H226676   5.427   6.068   0.156 -0.8145  0.6645  0.3434
 1729TIP3   OH226677   5.722   4.226   1.324  0.7297 -0.5474 -0.1948
 1729TIP3    H126678   5.778   4.249   1.398  1.6710 -0.0673 -1.0327
 1729TIP3    H226679   5.671   4.305   1.307  0.4481 -0.6876 -0.0095
 1730TIP3   OH226680   6.472   3.348  16.037 -0.4584  0.2419  0.2122
 1730TIP3    H126681   6.442   3.435  16.012 -0.7792  0.2556  0.6145
 1730TIP3    H226682   6.487   3.355  16.132 -0.0115 -0.0061  0.1597
 1731TIP3   OH226683   1.518   2.368  14.654 -0.1287  0.0515  0.7717
 1731TIP3    H126684   1.612   2.363  14.673  0.1378  0.2957 -0.4044
 1731TIP3    H226685   1.483   2.422  14.725  0.8241  0.9823  0.5664
 1732TIP3   OH226686   0.974   5.048  15.430  0.2114  0.4453 -0.0181
 1732TIP3    H126687   1.058   5.005  15.412 -0.3968 -0.3177 -1.2088
 1732TIP3    H226688   0.911   5.001  15.374 -0.9603  1.1709  0.6515
 1733TIP3   OH226689   3.376   5.101  11.898  0.7658 -0.1674  0.8268
 1733TIP3    H126690   3.315   5.170  11.924 -0.6214 -1.4170  1.0051
 1733TIP3    H226691   3.346   5.023  11.945  2.0087 -1.0168  0.2725
 1734TIP3   OH226692   6.585   4.471  15.517  0.3031 -0.1709 -0.4187
 1734TIP3    H126693   6.600   4.417  15.595 -3.0306 -2.2261 -0.9565
 1734TIP3    H226694   6.562   4.408  15.449 -0.3385  1.7582 -2.0905
 1735TIP3   OH226695   5.012   5.792  13.767 -0.6805  0.9439 -0.0542
 1735TIP3    H126696   5.028   5.864  13.828 -2.6512 -0.3123  2.1297
 1735TIP3    H226697   4.921   5.804  13.740 -0.7504 -0.2059 -0.3732
 1736TIP3   OH226698   0.656   6.093   0.909 -0.0280 -0.0969 -0.7462
 1736TIP3    H126699   0.596   6.111   0.982  0.5819 -0.7919 -0.0619
 1736TIP3    H226700   0.607   6.120   0.831 -0.3845  1.4498 -0.0331
 1737TIP3   OH226701   5.153   4.447  14.861  0.3331 -0.0608  0.2121
 1737TIP3    H126702   5.227   4.435  14.920  1.7424  0.0055 -1.4689
 1737TIP3    H226703   5.153   4.541  14.841 -0.1400 -0.0763  0.1303
 1738TIP3   OH226704   4.618   2.249  11.564  0.3414 -0.3412  0.0005
 1738TIP3    H126705   4.658   2.326  11.524 -0.6148  0.5730  0.7493
 1738TIP3    H226706   4.604   2.274  11.655 -0.4470 -1.2172  0.1371
 1739TIP3   OH226707   5.192   1.001  14.199  0.0446 -0.0171 -0.0067
 1739TIP3    H126708   5.232   0.938  14.259  1.1757  1.5578  0.9761
 1739TIP3    H226709   5.188   1.083  14.249  1.3325  1.4726 -2.1130
 1740TIP3   OH226710   2.256   5.149   0.494 -0.6528  0.4230 -0.6000
 1740TIP3    H126711   2.216   5.093   0.561 -1.5287  2.6295  0.8360
 1740TIP3    H226712   2.208   5.129   0.414 -1.0481 -0.7350 -0.0873
 1741TIP3   OH226713   3.819   6.608   4.223  0.0331 -0.1822 -0.1966
 1741TIP3    H126714   3.865   6.613   4.307 -1.4958  1.4614  0.6102
 1741TIP3    H226715   3.815   6.515   4.203  1.0896 -0.5569  1.1564
 1742TIP3   OH226716   5.425   2.313  15.508  0.0292  0.1941  0.2910
 1742TIP3    H126717   5.381   2.390  15.542  0.9688  0.8347  0.0963
 1742TIP3    H226718   5.423   2.323  15.413 -2.1445 -1.3406  0.0923
 1743TIP3   OH226719   0.479   3.688  13.488  0.1864 -0.0763 -0.1439
 1743TIP3    H126720   0.483   3.593  13.477  0.8568 -0.0085 -0.6422
 1743TIP3    H226721   0.519   3.704  13.573 -1.3498 -0.3403  0.6475
 1744TIP3   OH226722   6.197   5.376  12.782  0.5607  0.2866  0.0688
 1744TIP3    H126723   6.135   5.353  12.851 -0.0123 -1.8451 -1.0695
 1744TIP3    H226724   6.183   5.469  12.767 -2.6602 -0.1507 -0.3667
 1745TIP3   OH226725   3.889   0.197   1.807 -0.4083  0.4180  0.1217
 1745TIP3    H126726   3.887   0.104   1.829  0.1693  0.0743 -1.1820
 1745TIP3    H226727   3.886   0.199   1.712 -0.0496  1.7272  0.1201
 1746TIP3   OH226728   2.789   5.912   0.518  0.0429  0.2870  0.1025
 1746TIP3    H126729   2.801   5.831   0.568 -0.5773 -0.2189 -0.5355
 1746TIP3    H226730   2.694   5.921   0.510  0.1220  0.1127 -1.3465
 1747TIP3   OH226731   5.369   4.157   5.868 -0.1754 -0.1420  0.4174
 1747TIP3    H126732   5.412   4.110   5.939 -0.1031 -1.3803 -0.4112
 1747TIP3    H226733   5.437   4.164   5.800  0.0585  1.8575  0.7976
 1748TIP3   OH226734   6.794   5.270   5.614  0.0289 -0.1514 -0.2911
 1748TIP3    H126735   6.714   5.323   5.621 -0.3072 -0.7033  0.1706
 1748TIP3    H226736   6.763   5.180   5.611  0.5603 -0.3080 -1.8521
 1749TIP3   OH226737   5.541   0.097   0.021  0.5020  0.8291  0.0935
 1749TIP3    H126738   5.468   0.048   0.058  0.0636 -0.4128 -2.2131
 1749TIP3    H226739   5.610   0.089   0.087 -0.9178  0.7051  1.6301
 1750TIP3   OH226740   4.043   3.198  16.568 -0.1484 -0.5251  0.3659
 1750TIP3    H126741   4.068   3.281  16.610 -0.4522  0.1301 -0.7064
 1750TIP3    H226742   3.948   3.204  16.557 -0.1435 -0.9295  0.0915
 1751TIP3   OH226743   4.352   6.702  11.424  0.5187  0.6415  0.3521
 1751TIP3    H126744   4.272   6.735  11.382  0.6189 -1.0848 -1.2967
 1751TIP3    H226745   4.423   6.733  11.368  0.6878 -1.2970 -0.5790
 1752TIP3   OH226746   1.995   4.880  12.343 -0.4747 -0.2080  0.2962
 1752TIP3    H126747   1.921   4.824  12.319 -1.1303  0.2503  1.1877
 1752TIP3    H226748   2.073   4.827  12.324 -1.0422 -0.8638 -0.2339
 1753TIP3   OH226749   4.537   6.757  11.880 -0.6266 -0.4146  0.1585
 1753TIP3    H126750   4.579   6.671  11.879 -0.8144 -0.5606 -2.4283
 1753TIP3    H226751   4.514   6.773  11.788 -0.8491  2.2784  0.6026
 1754TIP3   OH226752   1.615   3.959   5.892  0.0732 -0.5901 -0.0709
 1754TIP3    H126753   1.534   3.955   5.943  0.2297  1.7723  0.4953
 1754TIP3    H226754   1.683   3.928   5.951  0.1110  1.2448  0.9360
 1755TIP3   OH226755   4.614   2.443   4.632  0.0327 -0.1362 -0.1684
 1755TIP3    H126756   4.591   2.370   4.574  0.6730  0.2004 -0.8623
 1755TIP3    H226757   4.699   2.418   4.669 -1.4954 -1.5903  2.7307
 1756TIP3   OH226758   4.495   1.042   2.245 -0.3213  0.2388  0.0339
 1756TIP3    H126759   4.587   1.036   2.220 -0.3972  1.5926 -0.6473
 1756TIP3    H226760   4.448   1.052   2.162 -0.9488  0.9074  0.4588
 1757TIP3   OH226761   0.924   5.008  14.206  0.4765  0.1458  0.1178
 1757TIP3    H126762   0.917   5.003  14.110 -1.4519  1.5298  0.1141
 1757TIP3    H226763   0.903   5.099  14.226  0.8247 -0.1318  1.8834
 1758TIP3   OH226764   3.065   4.175   3.841  0.3969  0.0353  0.1729
 1758TIP3    H126765   3.105   4.222   3.915  1.1905  0.8810 -0.7625
 1758TIP3    H226766   2.982   4.143   3.875  1.6975 -1.4947  2.0962
 1759TIP3   OH226767   5.551   4.418  15.848 -0.2928 -0.3556 -0.3923
 1759TIP3    H126768   5.479   4.356  15.838 -1.4122  0.6963  0.6535
 1759TIP3    H226769   5.621   4.367  15.889 -0.9702 -1.0735 -0.0978
 1760TIP3   OH226770   5.194   0.455  11.595  0.2780 -0.4187 -0.0912
 1760TIP3    H126771   5.215   0.493  11.509  2.6978  0.2263  0.7056
 1760TIP3    H226772   5.238   0.512  11.658 -0.4634 -1.5439  1.5174
 1761TIP3   OH226773   5.451   0.321  13.040 -0.2011 -0.0500 -0.7122
 1761TIP3    H126774   5.433   0.262  13.113 -0.9938  1.6247  0.5074
 1761TIP3    H226775   5.426   0.271  12.962 -0.8065 -1.3313  0.2629
 1762TIP3   OH226776   3.831   4.233  13.595 -0.2184 -0.2260  0.4089
 1762TIP3    H126777   3.801   4.147  13.624  1.1678 -1.3111 -1.1362
 1762TIP3    H226778   3.753   4.276  13.560 -0.8255 -1.0777  0.6905
 1763TIP3   OH226779   1.282   5.770   0.964  0.2748  0.6092 -0.1856
 1763TIP3    H126780   1.273   5.839   0.899 -0.1517 -1.0826 -2.0484
 1763TIP3    H226781   1.192   5.755   0.995 -0.1995 -1.2091 -2.2003
 1764TIP3   OH226782   0.827   4.915   1.912 -0.3372 -0.1657  0.5900
 1764TIP3    H126783   0.772   4.886   1.985  0.8154 -2.1939  0.7198
 1764TIP3    H226784   0.798   4.863   1.838  0.2114  0.0349  0.2304
 1765TIP3   OH226785   5.068   5.944   4.406 -0.1269  0.5987  0.0615
 1765TIP3    H126786   5.071   5.855   4.441 -0.0297  1.3934  2.2284
 1765TIP3    H226787   5.028   5.934   4.320 -0.0100 -1.5469  0.1892
 1766TIP3   OH226788   5.386   0.842  15.309 -0.6349  0.4186 -0.0851
 1766TIP3    H126789   5.348   0.928  15.328  2.4306  1.8182  0.2517
 1766TIP3    H226790   5.443   0.823  15.383  0.1366 -1.0719 -0.9905
 1767TIP3   OH226791   6.064   3.237  14.814  0.2046  0.0389  0.0861
 1767TIP3    H126792   6.089   3.322  14.851  1.8819 -0.8662  1.1450
 1767TIP3    H226793   6.063   3.177  14.889 -0.3062 -1.0149 -0.7417
 1768TIP3   OH226794   2.939   4.048  13.369  0.5399 -0.4232 -0.0288
 1768TIP3    H126795   3.018   3.994  13.369  1.1349  0.4275  0.3891
 1768TIP3    H226796   2.892   4.022  13.449 -0.1339 -1.6547 -0.7964
 1769TIP3   OH226797   2.177   6.239   3.364 -0.0240  0.3847 -0.1574
 1769TIP3    H126798   2.117   6.171   3.336 -0.0282  0.4644 -0.3403
 1769TIP3    H226799   2.123   6.296   3.420 -0.2755  0.7962 -0.8124
 1770TIP3   OH226800   6.161   4.257   1.468 -0.0532 -1.5490 -0.2672
 1770TIP3    H126801   6.230   4.306   1.512 -0.6529  1.0928 -2.0305
 1770TIP3    H226802   6.207   4.189   1.418  0.9241 -2.0430  1.2516
 1771TIP3   OH226803   3.039   2.126  17.177 -0.6748  0.5246 -0.0107
 1771TIP3    H126804   3.078   2.166  17.100 -0.8879  3.1807  1.1304
 1771TIP3    H226805   3.096   2.152  17.249 -2.3879  1.2083  1.1685
 1772TIP3   OH226806   1.167   4.712  14.011  0.5741  0.3318  0.1381
 1772TIP3    H126807   1.257   4.733  14.036  0.6513  0.1330  0.0326
 1772TIP3    H226808   1.163   4.730  13.917 -0.0661  2.2926  0.4922
 1773TIP3   OH226809   1.277   6.828  16.543  0.0258 -0.4894  0.8913
 1773TIP3    H126810   1.185   6.854  16.546  0.6358  1.9046  0.8200
 1773TIP3    H226811   1.300   6.832  16.451  0.5194  0.2052  1.0386
 1774TIP3   OH226812   4.926   0.221  10.861 -0.0990 -0.4427 -0.0340
 1774TIP3    H126813   4.885   0.286  10.803  0.5529  0.5252  0.5493
 1774TIP3    H226814   4.854   0.165  10.889 -0.4833 -0.7468 -1.5312
 1775TIP3   OH226815   1.851   5.768  10.669 -0.1878  0.4439 -0.0370
 1775TIP3    H126816   1.925   5.709  10.657  0.0423  0.2807  1.8511
 1775TIP3    H226817   1.890   5.855  10.675 -0.4084  0.6669 -1.5306
 1776TIP3   OH226818   4.524   3.542   5.542  0.4487  0.3819 -0.5343
 1776TIP3    H126819   4.524   3.618   5.483 -4.1176  2.3849  1.5423
 1776TIP3    H226820   4.551   3.578   5.626  0.5578 -0.9460  0.0177
 1777TIP3   OH226821   6.770   4.936   3.577  0.0458  0.3378 -0.2575
 1777TIP3    H126822   6.757   4.934   3.482  1.9267 -1.6468 -0.5583
 1777TIP3    H226823   6.848   4.990   3.589  0.9105 -0.9014 -0.0699
 1778TIP3   OH226824   5.314   3.654   3.643 -0.0520  0.7951 -0.4811
 1778TIP3    H126825   5.313   3.558   3.637  0.5513  0.4475  2.7884
 1778TIP3    H226826   5.324   3.684   3.553  1.4951 -2.2670 -1.4664
 1779TIP3   OH226827   1.908   0.363  15.101 -0.2261 -0.0326  0.1684
 1779TIP3    H126828   1.963   0.434  15.068 -2.0325  1.0252 -0.6961
 1779TIP3    H226829   1.936   0.286  15.052  2.1485 -0.1424  1.5160
 1780TIP3   OH226830   0.971   6.147  12.252  0.1603  0.4933 -0.2592
 1780TIP3    H126831   0.946   6.075  12.311 -1.6007  0.2154 -1.2636
 1780TIP3    H226832   1.056   6.121  12.217  1.3325  0.7334  2.2044
 1781TIP3   OH226833   4.361   3.535  11.143 -0.0281 -0.1627 -0.0409
 1781TIP3    H126834   4.438   3.551  11.088 -0.2009 -0.9687 -0.5479
 1781TIP3    H226835   4.287   3.565  11.090 -0.0076  1.6326  0.8811
 1782TIP3   OH226836   1.279   4.316  15.303 -0.1155  0.1236 -1.0348
 1782TIP3    H126837   1.188   4.303  15.277 -0.1863 -0.0304 -0.7140
 1782TIP3    H226838   1.275   4.376  15.377 -0.0628 -0.9352 -0.1603
 1783TIP3   OH226839   5.687   6.035   1.654  0.1249  0.3864  0.2184
 1783TIP3    H126840   5.743   6.110   1.672  1.1296 -0.4497  0.7256
 1783TIP3    H226841   5.728   5.992   1.579  0.7087 -0.7130  1.1177
 1784TIP3   OH226842   3.942   6.103  17.038  0.1225 -0.6218  0.6529
 1784TIP3    H126843   3.992   6.023  17.021  0.6584 -0.2821  0.6092
 1784TIP3    H226844   3.852   6.073  17.052 -0.3142 -0.9929 -2.3128
 1785TIP3   OH226845   0.796   4.495   4.115 -0.1483 -0.1445 -0.1227
 1785TIP3    H126846   0.837   4.466   4.034 -0.5726  0.9165 -0.7364
 1785TIP3    H226847   0.868   4.538   4.163 -0.2468  0.6321 -0.6541
 1786TIP3   OH226848   4.713   5.457  14.108 -0.2873  0.7766  0.3914
 1786TIP3    H126849   4.678   5.443  14.195  0.3994 -0.6659  0.4711
 1786TIP3    H226850   4.797   5.499  14.122 -0.1533  0.4960  0.4336
 1787TIP3   OH226851   2.392   5.690   5.800  0.3103 -0.3126  0.1683
 1787TIP3    H126852   2.334   5.764   5.781 -0.5724 -0.7582  1.1054
 1787TIP3    H226853   2.480   5.728   5.795 -0.1480  1.4233  2.9603
 1788TIP3   OH226854   2.646   1.005   2.227 -0.4440 -0.0028  0.2220
 1788TIP3    H126855   2.674   0.972   2.312  2.3349  0.4849 -0.3904
 1788TIP3    H226856   2.556   1.034   2.240  0.5094  1.9787  3.5766
 1789TIP3   OH226857   2.780   5.117   1.177  0.1935 -0.4012 -0.0692
 1789TIP3    H126858   2.832   5.123   1.257  1.2596 -2.2821 -0.5718
 1789TIP3    H226859   2.761   5.208   1.154 -1.4958  0.2056  3.1229
 1790TIP3   OH226860   4.427   6.464  16.124  0.7510 -0.0647  0.2086
 1790TIP3    H126861   4.480   6.390  16.095  1.1998  0.4410 -0.2907
 1790TIP3    H226862   4.422   6.454  16.219  2.1218  0.1181  0.3181
 1791TIP3   OH226863   4.529   6.467   0.413  0.6984  0.1154 -0.0920
 1791TIP3    H126864   4.512   6.397   0.477 -0.3524  0.5049  0.0775
 1791TIP3    H226865   4.520   6.548   0.464 -0.1225  0.4304 -0.7090
 1792TIP3   OH226866   3.706   1.995   1.640 -0.0384  0.0296 -0.4325
 1792TIP3    H126867   3.792   2.001   1.598 -0.3489  0.4260 -1.0328
 1792TIP3    H226868   3.720   2.031   1.727  0.5915 -0.6859 -0.2235
 1793TIP3   OH226869   6.211   1.619   2.485 -0.6102  0.3963 -0.2534
 1793TIP3    H126870   6.251   1.663   2.409 -1.9736  0.3465 -1.0236
 1793TIP3    H226871   6.221   1.681   2.557 -1.2248  1.3698 -0.9868
 1794TIP3   OH226872   4.766   5.655  16.012  0.8918 -0.1779  0.2600
 1794TIP3    H126873   4.786   5.561  16.002 -0.6620 -0.5789  0.6756
 1794TIP3    H226874   4.714   5.660  16.092 -1.4970  0.6376 -1.2508
 1795TIP3   OH226875   6.087   6.286   2.889  0.2437 -0.4297 -0.2788
 1795TIP3    H126876   6.109   6.378   2.900  0.9405 -0.4114 -1.6283
 1795TIP3    H226877   6.150   6.239   2.943  2.0778 -0.2423 -2.1180
 1796TIP3   OH226878   3.031   4.530  10.609 -0.3906  0.0620  0.5212
 1796TIP3    H126879   2.997   4.480  10.535  1.4965  1.1456 -1.1724
 1796TIP3    H226880   2.963   4.594  10.628 -1.0276 -0.4151 -0.0857
 1797TIP3   OH226881   2.809   2.747   1.547  0.2241  0.0239 -0.2574
 1797TIP3    H126882   2.781   2.762   1.457 -0.2017 -1.5403 -0.4157
 1797TIP3    H226883   2.872   2.817   1.565  0.9406 -0.1129 -2.0558
 1798TIP3   OH226884   5.808   3.345  15.623 -0.2743  0.3355 -0.2524
 1798TIP3    H126885   5.764   3.309  15.546  1.5832  1.2233 -1.8372
 1798TIP3    H226886   5.756   3.422  15.646 -1.2008 -0.2867 -0.2039
 1799TIP3   OH226887   1.509   0.390   1.054  0.1462 -0.3185  0.4423
 1799TIP3    H126888   1.454   0.454   1.099  1.7586  1.2518  0.3419
 1799TIP3    H226889   1.589   0.386   1.106  1.0620 -0.3433 -0.8961
 1800TIP3   OH226890   3.808   0.019   4.606 -0.1240 -0.4967  0.0215
 1800TIP3    H126891   3.901   0.022   4.629 -0.2749  0.2449  0.5732
 1800TIP3    H226892   3.806  -0.028   4.523  0.7326 -0.6413  0.0678
 1801TIP3   OH226893   1.692   0.700   3.259  0.8891  0.4105 -0.3279
 1801TIP3    H126894   1.724   0.779   3.216  1.4684 -0.4238 -1.4868
 1801TIP3    H226895   1.601   0.719   3.280  0.6398  0.9390 -1.7645
 1802TIP3   OH226896   0.733   1.475  15.558 -0.2716 -0.1956  0.2901
 1802TIP3    H126897   0.698   1.564  15.557 -0.1458 -0.1430 -1.3950
 1802TIP3    H226898   0.809   1.481  15.617  1.0101  1.3473 -1.4000
 1803TIP3   OH226899   3.608   6.506  12.437 -0.7062  0.4353  0.5491
 1803TIP3    H126900   3.522   6.536  12.408 -0.2983  0.0159 -1.1749
 1803TIP3    H226901   3.590   6.431  12.492 -1.4989  1.1702  1.3275
 1804TIP3   OH226902   3.719   3.756   0.419 -0.2208 -0.5846  0.1579
 1804TIP3    H126903   3.740   3.801   0.501  1.1228 -0.3985 -0.2595
 1804TIP3    H226904   3.758   3.669   0.429 -1.1921 -1.0212  0.2219
 1805TIP3   OH226905   0.263   4.777  11.835 -0.0425 -0.2953 -0.3434
 1805TIP3    H126906   0.353   4.749  11.820  0.2387 -0.5391  1.4807
 1805TIP3    H226907   0.209   4.710  11.795  0.6183 -1.1827  0.2149
 1806TIP3   OH226908   4.136   2.458  12.707 -0.4902 -0.4462 -0.2234
 1806TIP3    H126909   4.201   2.432  12.641 -0.3112  0.4632 -0.4187
 1806TIP3    H226910   4.146   2.394  12.777  0.2220 -0.6540 -0.5035
 1807TIP3   OH226911   2.612   2.953  11.911 -0.0489  0.0313  0.2252
 1807TIP3    H126912   2.533   3.004  11.891 -0.4095 -0.9791 -1.0723
 1807TIP3    H226913   2.684   3.004  11.873 -0.0900  0.7835  1.1120
 1808TIP3   OH226914   1.595   4.646   6.563 -0.1437  0.1647  0.0448
 1808TIP3    H126915   1.511   4.637   6.519  1.6686 -1.4022 -3.5550
 1808TIP3    H226916   1.632   4.727   6.527  2.0677 -1.9788 -3.0417
 1809TIP3   OH226917   1.964   6.243   0.474  0.1366  0.4026  0.0857
 1809TIP3    H126918   1.928   6.155   0.460 -0.6793  0.5071  1.4115
 1809TIP3    H226919   2.029   6.232   0.542  0.5604  0.7151 -0.2619
 1810TIP3   OH226920   1.108   0.279   0.523 -0.1213  0.7564 -0.6917
 1810TIP3    H126921   1.177   0.343   0.537 -0.4524  0.9666  0.0526
 1810TIP3    H226922   1.154   0.196   0.508  0.4132  0.0696  3.4622
 1811TIP3   OH226923   2.672   3.391   6.529  0.7063 -0.5467 -0.1473
 1811TIP3    H126924   2.678   3.308   6.482  1.8593 -0.8030  0.4234
 1811TIP3    H226925   2.693   3.369   6.620  1.4586  0.4409 -0.0711
 1812TIP3   OH226926   3.859   4.364   5.072 -0.3424 -0.2980 -0.3237
 1812TIP3    H126927   3.803   4.310   5.127 -1.8382  0.9114 -0.5900
 1812TIP3    H226928   3.880   4.308   4.997 -2.4987 -0.3193 -0.9807
 1813TIP3   OH226929   2.233   4.151   2.253 -0.1155 -0.4552  0.5980
 1813TIP3    H126930   2.268   4.062   2.257  0.4599 -0.2534  0.1396
 1813TIP3    H226931   2.306   4.207   2.278  0.0610  0.0051 -0.8509
 1814TIP3   OH226932   6.514   0.844  15.075  0.6071 -0.3001  0.5156
 1814TIP3    H126933   6.554   0.761  15.050  2.1545  0.6065 -0.1527
 1814TIP3    H226934   6.507   0.893  14.993 -2.7333 -0.6789  0.4086
 1815TIP3   OH226935   5.255   3.699  17.195  0.0509  0.1745  0.1597
 1815TIP3    H126936   5.347   3.700  17.169  1.2592  0.0385  3.9131
 1815TIP3    H226937   5.236   3.788  17.223 -0.3922 -0.2192  1.1493
 1816TIP3   OH226938   1.166   5.708   5.070 -0.3651 -0.3031  0.2160
 1816TIP3    H126939   1.202   5.790   5.039 -2.3524 -0.1719 -1.9822
 1816TIP3    H226940   1.072   5.725   5.081 -0.2965 -1.2218  3.6041
 1817TIP3   OH226941   2.498   1.296   0.599 -0.0709 -0.5168 -0.2947
 1817TIP3    H126942   2.472   1.303   0.507 -0.5801 -0.9657 -0.1952
 1817TIP3    H226943   2.564   1.226   0.600 -1.1622 -1.5897 -0.1299
 1818TIP3   OH226944   3.449   6.269   1.408 -0.2005  0.1879  0.0517
 1818TIP3    H126945   3.503   6.344   1.382  0.6522 -0.2772  0.4554
 1818TIP3    H226946   3.481   6.197   1.353 -0.9068  0.0771 -0.2179
 1819TIP3   OH226947   5.587   0.965  16.701  0.3366  0.1709  0.2779
 1819TIP3    H126948   5.647   0.892  16.717  0.3117 -0.1719 -1.0562
 1819TIP3    H226949   5.539   0.940  16.622  0.0268  1.4503  0.0328
 1820TIP3   OH226950   3.423   3.768   6.100  0.7730 -0.0971 -0.1174
 1820TIP3    H126951   3.462   3.855   6.089  0.4142  0.3669  1.9725
 1820TIP3    H226952   3.446   3.742   6.189  0.3768 -1.9069 -0.5155
 1821TIP3   OH226953   6.170   6.192  11.454 -0.0145 -0.3248  0.4426
 1821TIP3    H126954   6.089   6.242  11.466 -0.7266 -0.6584 -2.2801
 1821TIP3    H226955   6.239   6.250  11.485 -1.1000  0.9779  0.5073
 1822TIP3   OH226956   2.381   4.940  13.849 -0.4007  0.4285  0.0006
 1822TIP3    H126957   2.348   4.958  13.937 -1.1605 -1.1184  0.0665
 1822TIP3    H226958   2.370   4.845  13.838  0.8944  0.3867 -1.2749
 1823TIP3   OH226959   6.640   0.110   5.482 -0.0981  0.4067  0.3363
 1823TIP3    H126960   6.551   0.134   5.508  0.0616 -0.5377  1.8664
 1823TIP3    H226961   6.629   0.068   5.396 -1.2076 -0.2063  0.7548
 1824TIP3   OH226962   4.426   1.651   3.102 -0.5770 -0.1052  0.0222
 1824TIP3    H126963   4.403   1.572   3.151 -0.7070 -1.1074 -1.5833
 1824TIP3    H226964   4.347   1.704   3.104 -0.9728 -0.6790 -0.1245
 1825TIP3   OH226965   4.990   4.878   2.978 -0.0256 -0.0476  0.3002
 1825TIP3    H126966   5.015   4.890   3.070 -1.1042 -0.7884  0.7075
 1825TIP3    H226967   5.069   4.844   2.936  0.3681 -0.0556  1.0234
 1826TIP3   OH226968   4.053   3.811  11.693 -0.3213 -0.5693 -0.1665
 1826TIP3    H126969   4.130   3.766  11.727 -0.5005 -1.0240 -0.3417
 1826TIP3    H226970   4.055   3.792  11.599 -1.1528 -1.3857 -0.0372
 1827TIP3   OH226971   4.092   0.548   5.199  0.6394 -0.2902 -0.4916
 1827TIP3    H126972   4.062   0.520   5.113  1.9413 -2.8778 -0.1885
 1827TIP3    H226973   4.184   0.572   5.185  0.2560  1.4629 -0.2093
 1828TIP3   OH226974   6.588   0.890   1.386 -0.0210 -0.2730 -0.5782
 1828TIP3    H126975   6.681   0.900   1.369  0.1870 -1.5345 -0.2613
 1828TIP3    H226976   6.562   0.810   1.340 -1.2629  0.7827 -1.7961
 1829TIP3   OH226977   1.423   2.070  14.817  0.1995  0.1488  0.3391
 1829TIP3    H126978   1.468   2.130  14.876  0.7841 -1.4882  1.6587
 1829TIP3    H226979   1.344   2.044  14.863 -0.4385  0.4753 -0.5439
 1830TIP3   OH226980   3.056   2.218  12.858  0.4757  0.6849 -0.3599
 1830TIP3    H126981   3.088   2.198  12.946  0.8605 -0.6847 -0.7862
 1830TIP3    H226982   2.963   2.239  12.870  0.6114  0.8734  0.4086
 1831TIP3   OH226983   6.653   1.638   6.012  0.2643 -0.3615  0.4720
 1831TIP3    H126984   6.562   1.640   5.979  1.2343  1.3259 -2.4914
 1831TIP3    H226985   6.676   1.730   6.024  2.7601 -0.3634 -2.8798
 1832TIP3   OH226986   3.395   4.240  12.398 -0.3009 -0.0111 -0.0810
 1832TIP3    H126987   3.401   4.323  12.352  3.0820  0.8406  1.6072
 1832TIP3    H226988   3.436   4.176  12.339 -0.1531  0.1262 -0.1267
 1833TIP3   OH226989   3.935   0.719   6.004 -0.0729  0.0429  0.1490
 1833TIP3    H126990   3.992   0.642   6.013  0.3623  0.2961 -0.3456
 1833TIP3    H226991   3.877   0.697   5.931  1.7956  1.1952 -1.7970
 1834TIP3   OH226992   5.272   6.628  16.964  0.1931  0.7251  0.0199
 1834TIP3    H126993   5.344   6.657  17.020  0.7459  1.6604 -1.1333
 1834TIP3    H226994   5.269   6.693  16.894 -1.1338  0.1415 -0.4917
 1835TIP3   OH226995   6.334   5.012   4.137  0.1549 -0.5892 -0.5169
 1835TIP3    H126996   6.272   5.061   4.082 -1.5776 -1.5068  0.5272
 1835TIP3    H226997   6.398   5.078   4.164 -0.2529  0.3719 -1.7590
 1836TIP3   OH226998   1.520   1.428   2.876 -0.3988 -0.2763 -0.5810
 1836TIP3    H126999   1.541   1.423   2.969 -0.3581 -1.3715 -0.6398
 1836TIP3    H227000   1.429   1.458   2.874 -0.4348 -0.3568 -0.1894
 1837TIP3   OH227001   0.316   6.528   1.633  0.2366  0.4591 -0.2152
 1837TIP3    H127002   0.400   6.516   1.588  0.6973  1.4960  0.3338
 1837TIP3    H227003   0.250   6.506   1.567  0.9104 -2.5866 -0.0032
 1838TIP3   OH227004   5.901   5.357  12.739  0.2911  0.4056 -0.0923
 1838TIP3    H127005   5.817   5.377  12.781 -0.6131  1.5620 -2.3180
 1838TIP3    H227006   5.964   5.412  12.786 -0.7626  2.0294 -0.4922
 1839TIP3   OH227007   6.518   5.723  14.339  0.1120 -0.5522 -0.3148
 1839TIP3    H127008   6.482   5.764  14.261 -0.8637 -1.4345 -0.3463
 1839TIP3    H227009   6.595   5.675  14.308 -1.7126 -3.0682 -1.2892
 1840TIP3   OH227010   2.109   0.853   1.140 -0.5802 -0.3136  0.3206
 1840TIP3    H127011   2.122   0.946   1.123  0.2842 -0.2679  1.1976
 1840TIP3    H227012   2.174   0.809   1.085 -1.1712 -0.4229 -0.3027
 1841TIP3   OH227013   2.721   2.415   5.481 -0.1810 -0.8706  0.6152
 1841TIP3    H127014   2.657   2.386   5.416 -1.0778 -1.2411  1.6372
 1841TIP3    H227015   2.730   2.340   5.540  1.2967 -0.8651  0.4268
 1842TIP3   OH227016   0.533   0.939  11.829 -0.0933 -0.0197 -0.7919
 1842TIP3    H127017   0.568   0.967  11.914  0.3478  0.2211 -1.0453
 1842TIP3    H227018   0.467   1.005  11.808 -0.2636 -0.1276 -0.5961
 1843TIP3   OH227019   1.312   1.605  12.298 -0.6081 -0.3944  0.2171
 1843TIP3    H127020   1.322   1.545  12.373  0.8394  0.0094  0.3710
 1843TIP3    H227021   1.219   1.627  12.299 -0.9887 -1.8469  0.7664
 1844TIP3   OH227022   5.581   6.460   1.901  0.0582 -1.0678 -0.2036
 1844TIP3    H127023   5.530   6.537   1.929  0.7262 -0.9404  0.7341
 1844TIP3    H227024   5.549   6.389   1.957  2.9504 -0.3397  2.6808
 1845TIP3   OH227025   2.196   3.948   3.246  0.5417 -0.3766 -0.0969
 1845TIP3    H127026   2.132   3.889   3.207  0.7414 -1.3158  0.9593
 1845TIP3    H227027   2.280   3.904   3.234  0.7692 -0.0253  0.1765
 1846TIP3   OH227028   4.763   6.226   4.811 -0.1637 -0.1646 -0.1587
 1846TIP3    H127029   4.688   6.273   4.845  1.6944  1.0049  2.6582
 1846TIP3    H227030   4.808   6.289   4.754 -1.4896 -1.0525 -2.3344
 1847TIP3   OH227031   1.738   4.521  14.480 -0.4419 -0.0519  0.0543
 1847TIP3    H127032   1.718   4.428  14.468  4.2128 -1.7264  2.5217
 1847TIP3    H227033   1.706   4.542  14.567  0.6773 -0.2040  0.5276
 1848TIP3   OH227034   6.201   6.563  16.382 -0.0853  0.0411 -0.1227
 1848TIP3    H127035   6.197   6.467  16.376  3.1756 -0.1355 -2.0794
 1848TIP3    H227036   6.239   6.581  16.468 -0.0335 -0.4534 -0.0400
 1849TIP3   OH227037   6.079   4.210  12.617 -0.3816  0.1383  0.1587
 1849TIP3    H127038   6.082   4.166  12.532 -2.4168 -1.2378  0.7063
 1849TIP3    H227039   6.078   4.303  12.595  0.6169 -0.1399 -1.2262
 1850TIP3   OH227040   1.188   3.737   3.854 -0.2407 -0.2281  0.2719
 1850TIP3    H127041   1.223   3.818   3.892 -1.1625  0.1612  0.3015
 1850TIP3    H227042   1.256   3.709   3.792 -1.4547  2.5909 -2.6174
 1851TIP3   OH227043   0.734   5.524  12.446  0.0041  0.1290  0.2690
 1851TIP3    H127044   0.651   5.496  12.485 -0.3648  2.9603  1.7551
 1851TIP3    H227045   0.724   5.505  12.352 -2.2497  0.2072  0.4503
 1852TIP3   OH227046   5.539   6.346  15.946  0.3330  0.0085  0.5144
 1852TIP3    H127047   5.527   6.271  16.005  0.6087  0.9431  1.7834
 1852TIP3    H227048   5.634   6.358  15.942  0.3246 -0.1232 -0.2353
 1853TIP3   OH227049   6.229   0.016   0.000 -0.4103  0.3784  0.2126
 1853TIP3    H127050   6.224  -0.077  -0.021  0.3952  0.4748 -0.4512
 1853TIP3    H227051   6.280   0.020   0.081 -0.5173  0.2361  0.2858
 1854TIP3   OH227052   1.452   2.858  11.781 -0.0450  0.1917 -0.4259
 1854TIP3    H127053   1.521   2.847  11.716  0.7811 -1.8696  0.6817
 1854TIP3    H227054   1.371   2.839  11.734  0.3371  0.6177 -1.2733
 1855TIP3   OH227055   2.816   4.201  11.550  0.3610  0.1167 -0.0773
 1855TIP3    H127056   2.884   4.268  11.561  0.7353 -0.4188  0.9046
 1855TIP3    H227057   2.765   4.204  11.631  0.3471 -0.7620 -0.0493
 1856TIP3   OH227058   0.294   5.861  15.409 -0.1142  0.5297 -0.5327
 1856TIP3    H127059   0.288   5.872  15.503 -0.1672 -1.4106 -0.2697
 1856TIP3    H227060   0.206   5.835  15.381  0.6397 -2.3488 -0.5374
 1857TIP3   OH227061   1.529   3.326   5.170 -0.1880 -0.1647 -0.0240
 1857TIP3    H127062   1.521   3.419   5.187 -0.2144  0.4647 -2.9173
 1857TIP3    H227063   1.443   3.301   5.135  0.2289 -0.9416 -0.5247
 1858TIP3   OH227064   4.981   0.846   3.099 -0.2141  0.2077 -0.3546
 1858TIP3    H127065   4.896   0.885   3.119  0.5566  1.4849  0.6192
 1858TIP3    H227066   5.044   0.902   3.145  1.1419 -0.7917 -0.9342
 1859TIP3   OH227067   5.871   0.851  14.198  0.3879 -0.1106  0.8434
 1859TIP3    H127068   5.892   0.760  14.217 -1.1644 -1.0883 -1.6684
 1859TIP3    H227069   5.915   0.870  14.115 -2.5726 -0.0100 -0.8601
 1860TIP3   OH227070   0.235   1.061   5.139 -0.1233  0.4159 -0.3798
 1860TIP3    H127071   0.192   1.143   5.164 -0.4740  0.8199 -2.1738
 1860TIP3    H227072   0.309   1.088   5.085  0.1707 -0.4168 -0.4084
 1861TIP3   OH227073   2.892   1.438   4.579  0.3856 -0.2021 -0.3322
 1861TIP3    H127074   2.892   1.354   4.625 -3.1995  0.7998  1.8853
 1861TIP3    H227075   2.955   1.492   4.627 -1.1492 -0.1062  1.7390
 1862TIP3   OH227076   1.686   1.489   3.853 -0.4886  0.0700  0.2322
 1862TIP3    H127077   1.692   1.434   3.775  1.5963 -0.4422  0.6740
 1862TIP3    H227078   1.622   1.445   3.909 -1.2497 -0.1102 -0.7699
 1863TIP3   OH227079   1.703   1.548  13.043  0.1160  0.3272 -0.4614
 1863TIP3    H127080   1.729   1.533  12.953  0.3017 -0.2668 -0.3147
 1863TIP3    H227081   1.617   1.589  13.037 -0.2656 -0.5183 -0.8920
 1864TIP3   OH227082   2.643   3.812   6.133 -0.0925  0.1557  0.3013
 1864TIP3    H127083   2.584   3.819   6.208  0.7098 -0.0623  0.9736
 1864TIP3    H227084   2.687   3.728   6.145  0.1350  0.1763 -0.3498
 1865TIP3   OH227085   3.073   4.018  16.100  0.8373 -0.2734  0.4908
 1865TIP3    H127086   3.159   4.029  16.061  0.6735  0.6623  0.3783
 1865TIP3    H227087   3.088   4.025  16.194  0.9295 -0.4639  0.4919
 1866TIP3   OH227088   5.422   3.997  11.724 -0.4587  0.2756 -0.1927
 1866TIP3    H127089   5.466   4.068  11.770  3.8444 -0.4227 -2.6648
 1866TIP3    H227090   5.415   4.028  11.634 -2.4316 -0.8836 -0.4967
 1867TIP3   OH227091   6.654   4.423   1.323  0.3257 -0.0945  0.1586
 1867TIP3    H127092   6.559   4.410   1.318  0.0527  0.7459  2.0896
 1867TIP3    H227093   6.668   4.511   1.287  0.5129 -0.5539 -0.9338
 1868TIP3   OH227094   2.419   6.246  14.380  0.0540  0.1493  0.3224
 1868TIP3    H127095   2.415   6.340  14.398 -1.2098  0.5239 -1.6420
 1868TIP3    H227096   2.333   6.213  14.408 -0.4309  0.0552 -1.1716
 1869TIP3   OH227097   0.056   2.378  14.297 -0.1653  0.2558 -0.0031
 1869TIP3    H127098   0.080   2.377  14.389 -1.8736  1.4833  0.5126
 1869TIP3    H227099   0.007   2.297  14.284  2.8967 -1.6610 -0.7739
 1870TIP3   OH227100   2.549   3.780  13.806  0.0717 -0.1222 -0.1197
 1870TIP3    H127101   2.602   3.856  13.827 -0.0390  0.5280 -2.0134
 1870TIP3    H227102   2.600   3.705  13.837  0.6824  0.6444  0.7705
 1871TIP3   OH227103   3.096   2.721  10.717 -0.1488 -0.2762 -0.5342
 1871TIP3    H127104   3.145   2.692  10.794  0.2237  0.8776 -0.3300
 1871TIP3    H227105   3.005   2.698  10.736 -0.0732  0.0943  0.2980
 1872TIP3   OH227106   0.456   2.620   1.324  0.1148  0.1606  0.1348
 1872TIP3    H127107   0.454   2.710   1.292  2.6163  0.1222 -0.3163
 1872TIP3    H227108   0.455   2.629   1.420 -1.5788  0.5184  0.1283
 1873TIP3   OH227109   1.156   3.227   6.868 -0.1125  0.4648 -0.1386
 1873TIP3    H127110   1.068   3.219   6.830  0.3082  0.5256 -1.1570
 1873TIP3    H227111   1.210   3.171   6.812  0.8741  2.0091 -0.7717
 1874TIP3   OH227112   5.348   1.683  15.599 -0.0038  0.4019  0.7170
 1874TIP3    H127113   5.358   1.645  15.512  0.0033 -0.7426  1.1967
 1874TIP3    H227114   5.426   1.736  15.612 -0.0850  0.7121 -0.0318
 1875TIP3   OH227115   4.735   0.035  12.841 -0.0027 -0.4999 -0.5375
 1875TIP3    H127116   4.652   0.037  12.794 -0.1148  0.9102 -0.3375
 1875TIP3    H227117   4.711   0.045  12.933  0.3084 -1.6763 -0.3164
 1876TIP3   OH227118   2.192   5.125  11.506  0.2148  0.4231  0.7271
 1876TIP3    H127119   2.201   5.221  11.507 -2.9564  0.9819 -2.3007
 1876TIP3    H227120   2.248   5.097  11.434 -0.1201  0.2553  0.5285
 1877TIP3   OH227121   6.741   1.938  11.379  0.2901  0.0409 -0.0019
 1877TIP3    H127122   6.696   1.881  11.317  0.3150 -0.2625  0.2551
 1877TIP3    H227123   6.672   1.995  11.414 -0.2670 -1.5275  1.6462
 1878TIP3   OH227124   6.822   4.276  16.702 -0.6389  0.3492  0.2349
 1878TIP3    H127125   6.848   4.266  16.793  2.5118 -0.2566 -0.6109
 1878TIP3    H227126   6.805   4.186  16.672  0.2965  0.3179 -0.2454
 1879TIP3   OH227127   0.060   3.439  14.943  0.3502  0.0868 -0.2904
 1879TIP3    H127128   0.028   3.415  15.029  1.2049 -1.4337 -0.3603
 1879TIP3    H227129  -0.018   3.466  14.894 -0.3413 -0.4763  0.4982
 1880TIP3   OH227130   5.023   5.787  12.858  0.1870 -0.0544 -0.5752
 1880TIP3    H127131   4.978   5.703  12.853  0.4534 -0.1590 -1.2877
 1880TIP3    H227132   5.067   5.785  12.943 -0.4897 -0.2784 -0.2164
 1881TIP3   OH227133   0.783   4.614  12.006 -0.5144 -0.6014  0.5041
 1881TIP3    H127134   0.869   4.578  12.030 -1.2240 -0.8903  2.7724
 1881TIP3    H227135   0.721   4.563  12.057 -2.0110  0.0615 -0.5964
 1882TIP3   OH227136   0.591   3.158  15.448  0.1993  0.1139 -0.0524
 1882TIP3    H127137   0.518   3.132  15.392  0.6194  1.2845 -1.2061
 1882TIP3    H227138   0.645   3.080  15.454 -1.1622 -0.7985  0.8976
 1883TIP3   OH227139   0.915   3.112   2.259 -0.1811  0.0237  0.0046
 1883TIP3    H127140   0.900   3.168   2.336  0.6651  1.7034 -0.9888
 1883TIP3    H227141   0.883   3.164   2.185 -0.7564 -1.4653 -0.8336
 1884TIP3   OH227142   0.676   0.161  14.230 -0.5232 -0.1040  0.5696
 1884TIP3    H127143   0.604   0.163  14.167 -0.4244  0.9639  0.4692
 1884TIP3    H227144   0.688   0.253  14.255  2.1045  0.0347 -0.8941
 1885TIP3   OH227145   3.889   2.377  11.342  0.4085  0.5348 -0.9534
 1885TIP3    H127146   3.961   2.430  11.377  1.1781 -1.8309  1.4153
 1885TIP3    H227147   3.933   2.303  11.300 -0.5970 -0.3879 -0.4313
 1886TIP3   OH227148   1.225   0.170   2.517 -0.4324  0.4105 -0.1188
 1886TIP3    H127149   1.294   0.218   2.470 -0.7570 -1.8793 -3.3122
 1886TIP3    H227150   1.247   0.078   2.503 -3.7900 -0.4042 -0.8632
 1887TIP3   OH227151   4.483   6.233   1.093  0.1815 -0.3573  0.4099
 1887TIP3    H127152   4.540   6.309   1.077 -1.7146  1.3787  1.4083
 1887TIP3    H227153   4.525   6.187   1.165  0.6826  0.4900  0.6763
 1888TIP3   OH227154   4.040   4.677   0.933  0.4807  0.6256  0.0067
 1888TIP3    H127155   4.106   4.708   0.995  1.2886 -1.5236  0.3037
 1888TIP3    H227156   4.085   4.673   0.849  0.1166  1.1305 -0.2166
 1889TIP3   OH227157   5.393   6.342  12.600  0.4609 -0.7591  0.2572
 1889TIP3    H127158   5.416   6.249  12.591  0.0615 -1.1099  2.3331
 1889TIP3    H227159   5.395   6.358  12.695 -0.5719  1.0743  0.0108
 1890TIP3   OH227160   2.800   5.143  14.131 -0.6687  0.1438  0.4545
 1890TIP3    H127161   2.740   5.070  14.145 -0.7677  0.1643  0.1502
 1890TIP3    H227162   2.828   5.135  14.040  0.7932 -0.5943  0.9460
 1891TIP3   OH227163   0.827   1.465   0.598 -0.3796 -0.6870 -0.3191
 1891TIP3    H127164   0.785   1.468   0.512  0.4024 -0.5713 -0.7047
 1891TIP3    H227165   0.796   1.545   0.642 -1.1858 -1.0057 -0.2882
 1892TIP3   OH227166   2.148   2.129   5.043 -0.2327 -0.6321 -0.0580
 1892TIP3    H127167   2.191   2.182   5.110  2.6713 -0.6900 -1.7016
 1892TIP3    H227168   2.114   2.053   5.090 -1.0028  0.7428  1.7382
 1893TIP3   OH227169   2.246   2.865  16.226 -0.2020 -0.1960 -0.0710
 1893TIP3    H127170   2.316   2.924  16.198 -1.3610  0.6297 -1.3046
 1893TIP3    H227171   2.169   2.921  16.236 -0.5462 -0.9411  2.0842
 1894TIP3   OH227172   3.717   0.360  14.606  0.1727 -0.4129 -0.7502
 1894TIP3    H127173   3.648   0.295  14.617 -0.9287  0.7976 -0.1907
 1894TIP3    H227174   3.675   0.443  14.629  1.1179  0.7064 -2.8495
 1895TIP3   OH227175   3.056   3.552  10.774 -0.6326 -0.0042 -0.2920
 1895TIP3    H127176   3.091   3.600  10.848 -0.2414  0.0105 -0.4852
 1895TIP3    H227177   2.982   3.502  10.810 -0.4090 -0.0414  0.1149
 1896TIP3   OH227178   0.911   2.491   4.753  0.7234 -0.4504  0.3347
 1896TIP3    H127179   0.922   2.500   4.847  2.3558 -1.0669  0.2290
 1896TIP3    H227180   0.967   2.559   4.715 -1.4500  1.1424 -0.2123
 1897TIP3   OH227181   0.483   2.030   4.265  0.2314 -0.7449 -0.2695
 1897TIP3    H127182   0.537   1.954   4.289  0.6776 -0.3352  0.0468
 1897TIP3    H227183   0.543   2.104   4.271 -0.6443 -0.1025  1.3476
 1898TIP3   OH227184   1.561   3.226   0.324 -0.5973 -0.3115  0.4994
 1898TIP3    H127185   1.654   3.230   0.347 -0.4385 -1.4677  0.1422
 1898TIP3    H227186   1.524   3.163   0.386 -1.3620  0.8332  1.2529
 1899TIP3   OH227187   3.519   2.875   5.397 -0.1523 -0.0697  0.3453
 1899TIP3    H127188   3.437   2.827   5.391  0.5004 -1.1015 -0.7301
 1899TIP3    H227189   3.584   2.809   5.418  0.7060  0.3756 -0.7877
 1900TIP3   OH227190   2.017   1.561   2.969  0.3132 -0.0502 -0.2153
 1900TIP3    H127191   2.088   1.615   3.003  2.5456 -3.6460  1.4069
 1900TIP3    H227192   1.956   1.552   3.042  0.7966 -1.0187  0.0758
 1901TIP3   OH227193   0.702   3.696  13.646 -0.5205 -0.1955 -0.3698
 1901TIP3    H127194   0.701   3.600  13.656  0.9771 -0.1957 -0.0736
 1901TIP3    H227195   0.751   3.711  13.566 -1.5907  0.3068 -0.9466
 1902TIP3   OH227196   3.020   2.468   4.901 -0.1986  0.1880  0.1231
 1902TIP3    H127197   2.952   2.415   4.942  1.0958 -0.0149  2.1975
 1902TIP3    H227198   2.997   2.558   4.922 -1.5837  0.4256 -2.1079
 1903TIP3   OH227199   3.350   1.301  11.913 -0.6107  0.2439 -0.0237
 1903TIP3    H127200   3.441   1.293  11.943 -0.0683  0.9178 -1.3883
 1903TIP3    H227201   3.358   1.320  11.819 -2.1780  0.0450 -0.2152
 1904TIP3   OH227202   3.160   6.773   0.879 -0.1229 -0.1063  0.1888
 1904TIP3    H127203   3.233   6.786   0.818  0.4026  0.6163  0.9470
 1904TIP3    H227204   3.101   6.847   0.861 -0.3829 -0.3618 -0.0169
 1905TIP3   OH227205   5.705   5.626   4.279 -0.5931 -0.2725 -0.1552
 1905TIP3    H127206   5.662   5.574   4.347 -0.7012  0.9892  0.7807
 1905TIP3    H227207   5.709   5.568   4.204  1.6701 -2.5941  1.5933
 1906TIP3   OH227208   5.778   5.612   2.351  0.1254  0.3012 -0.8237
 1906TIP3    H127209   5.693   5.638   2.386 -1.5982 -1.9714 -2.9923
 1906TIP3    H227210   5.790   5.668   2.274 -0.9296 -1.3304 -2.2495
 1907TIP3   OH227211   3.521   6.186  10.723 -0.2914 -0.6301 -0.1783
 1907TIP3    H127212   3.576   6.250  10.678 -1.9868 -0.3520 -1.9250
 1907TIP3    H227213   3.568   6.169  10.805  1.7753  0.4835 -1.0516
 1908TIP3   OH227214   6.524   5.807  13.334 -0.4934  0.1224  0.0309
 1908TIP3    H127215   6.496   5.894  13.304 -1.3013  0.1640  0.8684
 1908TIP3    H227216   6.570   5.824  13.416  0.0339 -0.1767 -0.1949
 1909TIP3   OH227217   1.282   6.545  15.857 -0.2562 -0.4577  0.4329
 1909TIP3    H127218   1.372   6.533  15.826 -0.2586 -1.0968  0.6497
 1909TIP3    H227219   1.284   6.514  15.948 -0.6192 -0.1530  0.5453
 1910TIP3   OH227220   0.209   2.569  12.111  0.1050 -0.1294  0.6236
 1910TIP3    H127221   0.164   2.555  12.028  0.4172 -1.3371  0.6438
 1910TIP3    H227222   0.166   2.646  12.149 -0.6460 -0.1137 -0.2325
 1911TIP3   OH227223   4.864   2.632   1.849 -0.4216  0.5005  0.2433
 1911TIP3    H127224   4.926   2.569   1.886  1.2351  1.3422 -0.9271
 1911TIP3    H227225   4.827   2.677   1.925  2.0897  1.4606  0.9992
 1912TIP3   OH227226   2.144   5.515   1.437 -0.2636  0.5808  0.1536
 1912TIP3    H127227   2.152   5.495   1.343  0.8763 -0.7815  0.5144
 1912TIP3    H227228   2.067   5.468   1.466 -0.1688  0.3728  0.0664
 1913TIP3   OH227229   2.471   3.050  13.074 -0.8045  0.0786 -0.1768
 1913TIP3    H127230   2.407   3.119  13.058 -0.0678  0.9627  0.5787
 1913TIP3    H227231   2.470   3.038  13.169  2.3351  2.3523  0.2982
 1914TIP3   OH227232   1.494   1.064   2.949  0.5955 -0.9943  0.4383
 1914TIP3    H127233   1.557   1.099   2.886 -1.3572  0.5261 -0.7890
 1914TIP3    H227234   1.493   1.127   3.021 -0.8339  0.0299 -0.4321
 1915TIP3   OH227235   4.872   6.686  12.028  0.4860 -0.2450 -0.1475
 1915TIP3    H127236   4.838   6.755  12.086  0.5141  1.3282 -1.8884
 1915TIP3    H227237   4.819   6.610  12.048 -1.7522  1.1728 -0.3046
 1916TIP3   OH227238   6.327   1.347   4.943 -0.0641  0.6075  1.1215
 1916TIP3    H127239   6.237   1.329   4.914  0.0100  0.3619  1.0411
 1916TIP3    H227240   6.353   1.268   4.990  1.1219 -0.5119 -1.2538
 1917TIP3   OH227241   1.393   4.937  16.979 -0.2223  0.1821  0.0194
 1917TIP3    H127242   1.364   4.930  16.888 -1.3435  0.0652  0.3665
 1917TIP3    H227243   1.312   4.940  17.029  0.3600 -1.1138  1.1126
 1918TIP3   OH227244   2.750   2.426  10.940  0.4730  0.2030  0.6742
 1918TIP3    H127245   2.814   2.372  10.987 -0.2986 -0.2677  1.1958
 1918TIP3    H227246   2.715   2.367  10.872  2.3105  1.1580 -1.2334
 1919TIP3   OH227247   6.362   1.143  15.173 -0.4826  0.2010 -0.0766
 1919TIP3    H127248   6.325   1.146  15.261  0.7566  0.8124  0.4497
 1919TIP3    H227249   6.416   1.221  15.167  3.1444 -2.0625  0.3215
 1920TIP3   OH227250   0.365   4.521   4.367  0.4760 -0.0759 -0.1251
 1920TIP3    H127251   0.402   4.464   4.300 -0.8076 -0.8182 -0.2434
 1920TIP3    H227252   0.330   4.461   4.432  0.5186  0.6210  0.5600
 1921TIP3   OH227253   0.064   0.162   3.390  0.0560  0.3022  0.0384
 1921TIP3    H127254  -0.006   0.167   3.326  0.1100 -3.5686 -0.5991
 1921TIP3    H227255   0.021   0.132   3.470  0.6136  0.5287  0.4313
 1922TIP3   OH227256   4.328   2.300   1.723  0.2898 -0.7217  0.4262
 1922TIP3    H127257   4.361   2.358   1.792  0.0688  0.8076 -0.7059
 1922TIP3    H227258   4.298   2.222   1.770  1.5770 -0.3942  1.8944
 1923TIP3   OH227259   1.703   4.465   5.354  0.5060  0.1706  0.1316
 1923TIP3    H127260   1.797   4.485   5.356  0.6018 -0.2232  1.9701
 1923TIP3    H227261   1.696   4.381   5.309  0.6986  1.5056 -2.5457
 1924TIP3   OH227262   0.458   3.437  10.631 -0.1894 -0.8122  0.1619
 1924TIP3    H127263   0.430   3.526  10.650  1.6697 -0.9048  4.4416
 1924TIP3    H227264   0.550   3.444  10.607 -0.1759 -1.5564 -0.0537
 1925TIP3   OH227265   4.368   0.720   0.468 -0.0369 -0.3541  0.4920
 1925TIP3    H127266   4.298   0.740   0.530 -1.0837 -0.2882 -0.6612
 1925TIP3    H227267   4.352   0.630   0.441 -0.7917  0.2118 -1.1065
 1926TIP3   OH227268   5.231   1.636  14.729  0.0830  0.0591 -0.0948
 1926TIP3    H127269   5.222   1.694  14.804 -0.0649 -0.0721 -0.0113
 1926TIP3    H227270   5.144   1.632  14.691  0.2548  0.4765 -0.5385
 1927TIP3   OH227271   6.042   0.228  10.829 -0.3523 -0.2220  0.8123
 1927TIP3    H127272   6.119   0.180  10.798  0.8595  1.8918  0.3785
 1927TIP3    H227273   6.030   0.298  10.765 -1.4945  0.6155  1.8885
 1928TIP3   OH227274   3.750   3.614   3.619 -0.1281 -0.9139  0.0646
 1928TIP3    H127275   3.839   3.602   3.652  0.2270 -0.0502 -0.5445
 1928TIP3    H227276   3.735   3.539   3.561  0.2011 -1.0615  0.1728
 1929TIP3   OH227277   2.361   0.277   0.557  0.1047  0.6611 -0.7912
 1929TIP3    H127278   2.322   0.282   0.644 -3.2165  0.9872 -2.1689
 1929TIP3    H227279   2.435   0.217   0.568 -0.9644 -0.3113  1.9698
 1930TIP3   OH227280   4.536   0.734   5.107 -0.0339  0.3588  0.1685
 1930TIP3    H127281   4.618   0.759   5.149 -0.2372  0.3042  0.6081
 1930TIP3    H227282   4.539   0.776   5.021  0.7492 -0.2058 -0.0778
 1931TIP3   OH227283   5.203   5.928  15.536 -0.3988 -0.3159 -0.3167
 1931TIP3    H127284   5.262   5.930  15.611  0.6983 -0.0495 -1.1532
 1931TIP3    H227285   5.193   6.020  15.511 -0.4209 -0.4306 -0.7383
 1932TIP3   OH227286   0.574   2.445   5.515  0.3535 -0.1166  0.4016
 1932TIP3    H127287   0.597   2.459   5.607 -0.3495 -1.2014  0.7577
 1932TIP3    H227288   0.481   2.423   5.517  0.6860 -1.7182 -0.3991
 1933TIP3   OH227289   3.958   4.308  11.286 -0.1523 -0.1623  0.2664
 1933TIP3    H127290   3.894   4.369  11.323  0.3391 -1.8548  4.4042
 1933TIP3    H227291   4.043   4.344  11.311  0.4384  0.0531 -1.8311
 1934TIP3   OH227292   5.850   1.270  11.496 -0.0311 -0.7511 -0.2241
 1934TIP3    H127293   5.842   1.199  11.560  0.3529  0.0429  0.7398
 1934TIP3    H227294   5.943   1.269  11.472 -0.3191 -1.5412 -1.3855
 1935TIP3   OH227295   3.830   2.843  12.277  0.4867  0.0561 -0.4379
 1935TIP3    H127296   3.799   2.759  12.311 -0.5504  0.2264 -0.9476
 1935TIP3    H227297   3.872   2.821  12.194 -0.2415  0.0921 -0.8248
 1936TIP3   OH227298   2.203   3.061   3.103  0.1492 -0.2273  0.6824
 1936TIP3    H127299   2.149   2.984   3.084  0.3682 -0.5289  1.2507
 1936TIP3    H227300   2.164   3.098   3.182  0.6683 -0.3468  0.9983
 1937TIP3   OH227301   4.367   2.287   0.745  0.3525  0.1713  0.3022
 1937TIP3    H127302   4.319   2.320   0.822  1.7513  1.4095  0.6888
 1937TIP3    H227303   4.453   2.264   0.779  0.2104 -1.6633 -0.4618
 1938TIP3   OH227304   3.466   2.036   1.352  0.6005 -0.4274 -0.7338
 1938TIP3    H127305   3.561   2.034   1.345  0.6244 -1.9284 -0.2958
 1938TIP3    H227306   3.445   1.963   1.410 -0.8416 -0.3256 -1.0978
 1939TIP3   OH227307   5.452   0.094  13.972 -0.0356  0.3856 -0.6434
 1939TIP3    H127308   5.413   0.176  14.000  1.3398  0.4667  1.1652
 1939TIP3    H227309   5.527   0.120  13.919 -0.5225  0.2537 -1.4178
 1940TIP3   OH227310   1.107   4.542  14.257  0.3255  0.2092  0.4273
 1940TIP3    H127311   1.148   4.595  14.189 -1.0948 -0.1761 -0.7682
 1940TIP3    H227312   1.096   4.602  14.331  0.2536  1.1333 -0.3180
 1941TIP3   OH227313   2.133   3.131   3.343 -0.2531  0.9271  0.2358
 1941TIP3    H127314   2.140   3.112   3.437  1.3031  0.5996  0.0790
 1941TIP3    H227315   2.126   3.227   3.338 -0.4743  0.9371  0.6816
 1942TIP3   OH227316   4.407   2.894   5.425 -0.8639 -0.2061 -0.5564
 1942TIP3    H127317   4.373   2.808   5.451 -0.0887  0.3909  2.9130
 1942TIP3    H227318   4.343   2.956   5.459  0.6824  0.6821  0.9091
 1943TIP3   OH227319   6.335   3.004  16.571 -0.0407 -0.2201 -0.0572
 1943TIP3    H127320   6.261   2.946  16.557 -0.5863 -0.1775  2.2288
 1943TIP3    H227321   6.297   3.091  16.579  0.1927 -0.2276  1.3790
 1944TIP3   OH227322   3.510   0.254   0.073  0.7100 -0.2447  0.1411
 1944TIP3    H127323   3.431   0.201   0.067  1.1506 -0.9406  0.3672
 1944TIP3    H227324   3.506   0.312  -0.004 -0.3600  0.2265  0.5286
 1945TIP3   OH227325   0.282   1.003   1.553  0.1607 -0.0403 -0.1477
 1945TIP3    H127326   0.318   1.065   1.489  1.1839  0.4677  0.8820
 1945TIP3    H227327   0.339   0.927   1.547  1.4151  0.7159  1.3968
 1946TIP3   OH227328   0.215   6.158   2.853  0.1530  0.4765 -0.7649
 1946TIP3    H127329   0.208   6.185   2.762  1.1285  0.5180 -0.8355
 1946TIP3    H227330   0.247   6.067   2.849 -1.2352 -0.0546 -0.4874
 1947TIP3   OH227331   5.183   2.999   4.490  0.1448  0.8721  0.2072
 1947TIP3    H127332   5.165   3.051   4.568  0.6536  1.1626  0.1321
 1947TIP3    H227333   5.096   2.974   4.457 -0.0977  1.5603  0.3174
 1948TIP3   OH227334   2.504   2.785   5.659  0.1327 -0.1067  0.4279
 1948TIP3    H127335   2.491   2.728   5.583 -0.8920 -1.8588  1.8358
 1948TIP3    H227336   2.598   2.802   5.659  0.4010 -1.3760 -0.3514
 1949TIP3   OH227337   4.451   4.221   2.490 -0.1090  0.6166 -0.5007
 1949TIP3    H127338   4.463   4.303   2.444 -1.4660  1.7771  1.0877
 1949TIP3    H227339   4.500   4.231   2.572  0.5297 -0.5652 -0.7083
 1950TIP3   OH227340   5.186   1.915  12.284  0.5462  0.2728 -0.9854
 1950TIP3    H127341   5.239   1.985  12.321 -0.5346  0.3781  0.4605
 1950TIP3    H227342   5.104   1.919  12.334 -0.1126 -1.0386 -1.9228
 1951TIP3   OH227343   3.196   3.751  10.295  0.5029 -0.0604  0.2349
 1951TIP3    H127344   3.132   3.680  10.304  0.3298  0.1951  1.1350
 1951TIP3    H227345   3.281   3.709  10.310  0.3583  0.0066  1.3269
 1952TIP3   OH227346   5.364   3.738   5.532 -0.0053 -0.0572  0.1248
 1952TIP3    H127347   5.434   3.790   5.493 -0.7933  0.8891 -0.0643
 1952TIP3    H227348   5.284   3.781   5.503 -0.6898 -1.5029 -0.1980
 1953TIP3   OH227349   6.773   4.403  13.941 -0.5571 -0.2586 -0.2819
 1953TIP3    H127350   6.793   4.497  13.949 -0.4188 -0.3972  1.4559
 1953TIP3    H227351   6.858   4.360  13.937 -0.6217 -0.3142 -1.3417
 1954TIP3   OH227352   4.410   2.496   0.545  0.2684 -0.1997 -0.0451
 1954TIP3    H127353   4.333   2.479   0.490  0.4559  0.4131 -0.5117
 1954TIP3    H227354   4.411   2.424   0.607  0.4429 -1.2838 -1.2696
 1955TIP3   OH227355   3.724   2.494   0.079  0.4507 -0.0094 -0.0826
 1955TIP3    H127356   3.680   2.465  -0.001  0.3867  0.7792 -0.3376
 1955TIP3    H227357   3.794   2.430   0.092 -0.8109 -1.3705  0.3884
 1956TIP3   OH227358   3.323   3.338   0.501 -0.3423 -0.3300 -0.2950
 1956TIP3    H127359   3.312   3.384   0.584  0.4985  2.0428 -1.4185
 1956TIP3    H227360   3.262   3.264   0.506  1.3731 -1.7504  3.3768
 1957TIP3   OH227361   0.652   2.065  14.027  0.0304 -0.2215 -0.2753
 1957TIP3    H127362   0.721   2.062  14.094  0.5204  0.2033 -0.7532
 1957TIP3    H227363   0.616   2.153  14.033 -0.5209 -0.4603  0.0132
 1958TIP3   OH227364   2.117   6.049   1.995 -0.5938 -0.5621 -0.3881
 1958TIP3    H127365   2.043   5.999   2.031  0.6824 -1.7721  0.6620
 1958TIP3    H227366   2.124   6.126   2.052 -0.3254 -1.0460  0.2421
 1959TIP3   OH227367   2.318   1.654   5.596 -0.1245 -0.0762 -0.2832
 1959TIP3    H127368   2.386   1.612   5.649  0.3553 -0.4143 -1.1467
 1959TIP3    H227369   2.249   1.674   5.658  0.6775  0.0905  0.5865
 1960TIP3   OH227370   2.402   0.688  13.603 -0.0970 -0.1254  0.2482
 1960TIP3    H127371   2.366   0.668  13.516  1.0951  0.1846 -0.3382
 1960TIP3    H227372   2.491   0.652  13.601  0.4983  1.2585  0.7727
 1961TIP3   OH227373   0.239   3.521   0.025  0.0573 -0.0750 -0.2975
 1961TIP3    H127374   0.334   3.521   0.037  0.3653  0.7780 -2.3221
 1961TIP3    H227375   0.208   3.449   0.079  1.9254 -0.7308 -0.0262
 1962TIP3   OH227376   3.530   3.118   4.410 -0.6257  0.0671 -0.0224
 1962TIP3    H127377   3.522   3.173   4.332 -0.9913 -1.0152 -0.7880
 1962TIP3    H227378   3.611   3.146   4.452 -0.3392  0.5730 -0.8862
 1963TIP3   OH227379   4.629   5.312  15.166  0.6120 -0.8364 -0.0850
 1963TIP3    H127380   4.624   5.358  15.250 -1.2375  0.7239 -0.9937
 1963TIP3    H227381   4.680   5.233  15.186 -0.9077 -1.2258  2.8268
 1964TIP3   OH227382   4.046   3.366   5.113  0.4889 -0.0467 -0.3664
 1964TIP3    H127383   3.968   3.402   5.071  0.7711  0.6168 -0.3363
 1964TIP3    H227384   4.114   3.370   5.045  0.8027  0.5110 -0.0281
 1965TIP3   OH227385   2.549   0.002   3.643  0.1987  0.5290  0.0509
 1965TIP3    H127386   2.463  -0.020   3.607 -0.4232  1.1025  1.1442
 1965TIP3    H227387   2.556   0.096   3.631  2.0752  0.1243 -2.9500
 1966TIP3   OH227388   2.808   1.826  16.582 -0.2744  0.0539 -0.0959
 1966TIP3    H127389   2.729   1.783  16.547  0.9445 -2.0472 -0.4134
 1966TIP3    H227390   2.845   1.762  16.643 -0.1544  2.0384  2.0422
 1967TIP3   OH227391   5.900   5.459  12.452 -0.2010  0.3060 -0.3624
 1967TIP3    H127392   5.830   5.522  12.471 -0.3708 -0.3489  1.3857
 1967TIP3    H227393   5.954   5.459  12.532  0.3889 -0.9794 -0.7453
 1968TIP3   OH227394   1.948   2.818  11.299 -0.1691  0.3547  0.1860
 1968TIP3    H127395   2.034   2.848  11.329 -1.2426  2.0248  1.8715
 1968TIP3    H227396   1.889   2.890  11.322 -1.6784  0.4253 -3.2876
 1969TIP3   OH227397   5.157   4.090   5.152 -0.1207  0.4276 -0.0619
 1969TIP3    H127398   5.250   4.089   5.127  0.3496  2.2722  1.3413
 1969TIP3    H227399   5.114   4.033   5.089  2.2670 -2.2104  0.4867
 1970TIP3   OH227400   4.450   5.274  11.617  0.2109 -0.5218  0.0251
 1970TIP3    H127401   4.420   5.309  11.700 -1.1468 -1.2297 -0.1494
 1970TIP3    H227402   4.494   5.348  11.574  0.0645  0.1074  0.9442
 1971TIP3   OH227403   6.190   0.857   5.167 -0.7945 -0.3017  0.4212
 1971TIP3    H127404   6.167   0.920   5.235 -0.3037  0.3486 -0.0033
 1971TIP3    H227405   6.268   0.814   5.200 -1.8917 -1.6760  1.3283
 1972TIP3   OH227406   4.833   2.464   1.524 -0.1549  0.1761  0.7253
 1972TIP3    H127407   4.795   2.424   1.602  0.1242 -0.8701  0.3364
 1972TIP3    H227408   4.927   2.448   1.533 -0.0980  0.2566  0.2920
 1973TIP3   OH227409   6.334   5.701  15.122 -0.1297 -0.2661  0.0295
 1973TIP3    H127410   6.318   5.784  15.077  1.6953  0.1407  0.0265
 1973TIP3    H227411   6.289   5.710  15.206 -1.4375 -0.0060 -0.6858
 1974TIP3   OH227412   0.124   2.236  13.495 -0.0267  0.2272  0.6988
 1974TIP3    H127413   0.057   2.169  13.510  0.8010 -0.6812  0.4778
 1974TIP3    H227414   0.204   2.199  13.532  1.0887 -0.1874 -1.8813
 1975TIP3   OH227415   4.780   4.141   1.852  0.1850 -0.6923  0.1199
 1975TIP3    H127416   4.701   4.189   1.876  0.5908 -0.7498  1.6182
 1975TIP3    H227417   4.752   4.084   1.780 -1.7385 -2.4239  2.1270
 1976TIP3   OH227418   3.943   2.739   5.138 -0.1039  0.2983  0.5175
 1976TIP3    H127419   3.914   2.803   5.073  0.1748  1.2642  1.3128
 1976TIP3    H227420   3.880   2.667   5.131 -0.3844  0.6254 -0.4444
 1977TIP3   OH227421   5.065   0.614  14.432 -0.5055  0.0093  0.1508
 1977TIP3    H127422   5.027   0.678  14.492 -0.7460 -2.4303  2.7967
 1977TIP3    H227423   4.989   0.566  14.398 -0.2621  0.4568 -1.0740
 1978TIP3   OH227424   6.628   3.981  17.167 -0.2778  0.3340  0.1180
 1978TIP3    H127425   6.724   3.984  17.169 -0.1439 -0.8312 -1.9224
 1978TIP3    H227426   6.606   3.998  17.075 -2.1961  3.2403  0.9674
 1979TIP3   OH227427   4.918   6.713  15.896  0.7488 -0.1221  0.1917
 1979TIP3    H127428   4.845   6.739  15.840  0.6011  0.9876  0.8750
 1979TIP3    H227429   4.986   6.779  15.880  0.6429  0.3131  1.4282
 1980TIP3   OH227430   4.008   1.866   5.580 -0.1265  0.2005  0.0482
 1980TIP3    H127431   3.970   1.904   5.659  0.3577  1.8861 -0.4699
 1980TIP3    H227432   3.935   1.863   5.518 -0.4296 -0.8062  0.4508
 1981TIP3   OH227433   6.486   5.148   4.494  0.2250 -0.1237 -0.0448
 1981TIP3    H127434   6.425   5.201   4.443  1.4567  1.4823  0.0421
 1981TIP3    H227435   6.559   5.132   4.434  0.6508 -0.2134  0.4928
 1982TIP3   OH227436   6.439   3.244  13.452  0.3058 -0.1617  0.9832
 1982TIP3    H127437   6.520   3.284  13.481 -0.0540  0.1040  1.6315
 1982TIP3    H227438   6.430   3.166  13.506 -0.8918  0.8805  2.3533
 1983TIP3   OH227439   6.367   0.018  14.079 -0.5658  0.6449 -0.2330
 1983TIP3    H127440   6.285   0.033  14.033 -0.8473  0.0261  0.0508
 1983TIP3    H227441   6.402  -0.062  14.041 -1.8357 -1.0892  1.9865
 1984TIP3   OH227442   1.777   0.214  12.274 -0.4432  0.6593 -0.4484
 1984TIP3    H127443   1.733   0.144  12.323  1.2013  1.3644  2.2690
 1984TIP3    H227444   1.722   0.291  12.287  0.2572  0.9675  0.8217
 1985TIP3   OH227445   5.202   3.203  15.318 -0.4361 -0.3091 -0.4002
 1985TIP3    H127446   5.114   3.218  15.282 -0.4427  2.8686  0.6727
 1985TIP3    H227447   5.261   3.242  15.253  0.1024 -1.0440 -0.3669
 1986TIP3   OH227448   3.842   2.858  13.734 -0.1594  0.2718  1.0720
 1986TIP3    H127449   3.917   2.803  13.757 -0.2338 -0.2830  0.0166
 1986TIP3    H227450   3.772   2.827  13.791 -0.6842 -1.9140 -0.6251
 1987TIP3   OH227451   0.032   5.516  16.503 -0.2646 -0.2363 -0.8386
 1987TIP3    H127452   0.026   5.602  16.544 -0.5078 -1.3007  1.5334
 1987TIP3    H227453  -0.058   5.483  16.503  0.0833 -1.2425  0.0801
 1988TIP3   OH227454   5.094   1.811  15.373 -0.2554 -0.4113 -0.4062
 1988TIP3    H127455   5.139   1.878  15.321 -0.3106  0.1861  0.3041
 1988TIP3    H227456   5.048   1.859  15.441 -2.1357 -0.9964 -1.1957
 1989TIP3   OH227457   5.488   1.298   4.841  0.2859 -0.3039  0.8265
 1989TIP3    H127458   5.455   1.272   4.927  0.4050 -0.4966  0.8156
 1989TIP3    H227459   5.489   1.216   4.791 -0.3562 -0.0902  0.4529
 1990TIP3   OH227460   2.776   2.589   3.392  0.2699  0.1492 -0.6840
 1990TIP3    H127461   2.697   2.616   3.439 -0.4748  2.4834 -3.0709
 1990TIP3    H227462   2.837   2.562   3.462 -3.3757 -4.6590  1.2233
 1991TIP3   OH227463   3.715   1.269  15.608 -0.4223 -0.4567  0.1638
 1991TIP3    H127464   3.691   1.283  15.700 -1.2703 -1.0373  0.0409
 1991TIP3    H227465   3.785   1.203  15.612 -0.6649 -0.7035  0.3723
 1992TIP3   OH227466   5.817   3.757  17.223  0.0790  0.7473  0.0587
 1992TIP3    H127467   5.744   3.744  17.163  0.2380  1.4658 -0.3038
 1992TIP3    H227468   5.798   3.700  17.297  0.4089 -0.9880 -1.1306
 1993TIP3   OH227469   4.373   0.896   1.717  0.5888  0.3543 -0.1147
 1993TIP3    H127470   4.292   0.847   1.730  0.1522  0.5326 -1.9588
 1993TIP3    H227471   4.442   0.832   1.734  0.0545 -0.2316 -0.1251
 1994TIP3   OH227472   3.430   3.948  16.648 -0.6852 -0.1976  0.4103
 1994TIP3    H127473   3.335   3.955  16.636 -0.5582  1.7220  0.2299
 1994TIP3    H227474   3.449   3.856  16.631 -2.6159 -0.8019  1.2274
 1995TIP3   OH227475   6.483   5.627  16.911 -0.8684  0.8482  0.0953
 1995TIP3    H127476   6.468   5.675  16.830  0.6164 -0.5221 -1.0620
 1995TIP3    H227477   6.395   5.605  16.943 -1.4728  1.3788 -1.1514
 1996TIP3   OH227478   6.712   3.387  14.539  0.6889  0.3585 -0.0505
 1996TIP3    H127479   6.749   3.404  14.453  2.8639 -0.5013  0.6568
 1996TIP3    H227480   6.780   3.338  14.586  0.2690  2.1544  2.7041
 1997TIP3   OH227481   2.918   6.280   3.854  0.2557  0.0609 -0.1017
 1997TIP3    H127482   2.954   6.329   3.929  1.5287  1.7284 -1.6977
 1997TIP3    H227483   2.895   6.348   3.791  1.1610 -1.3429 -2.0390
 1998TIP3   OH227484   5.908   4.769  10.988 -0.2327  0.1117  0.3194
 1998TIP3    H127485   5.987   4.715  10.991 -0.6640 -0.5267  0.2770
 1998TIP3    H227486   5.873   4.754  10.900 -0.2846  0.5728  0.2575
 1999TIP3   OH227487   5.370   6.599   5.391  0.7360 -0.0283 -0.5305
 1999TIP3    H127488   5.298   6.613   5.453  1.5507  0.1213  0.4122
 1999TIP3    H227489   5.393   6.687   5.361  2.6396  0.3424  1.6794
 2000TIP3   OH227490   1.937   3.540  14.202  0.0341 -0.3274 -0.2510
 2000TIP3    H127491   1.882   3.526  14.279 -0.3880 -0.0569 -0.4951
 2000TIP3    H227492   1.924   3.461  14.149  0.5422 -0.6370  0.0813
 2001TIP3   OH227493   5.351   2.755   0.778 -0.3624  0.1073  0.1164
 2001TIP3    H127494   5.342   2.723   0.689 -0.2920  0.7331 -0.1210
 2001TIP3    H227495   5.400   2.687   0.824 -1.0126 -0.5468 -0.1365
 2002TIP3   OH227496   0.776   2.429  10.317 -0.4457 -0.1746 -0.0927
 2002TIP3    H127497   0.761   2.374  10.239 -0.3478  1.2530 -1.1559
 2002TIP3    H227498   0.871   2.439  10.321 -0.4996  0.4004 -0.2480
 2003TIP3   OH227499   0.124   5.236  11.240  0.1484 -0.2604  0.0804
 2003TIP3    H127500   0.163   5.223  11.327  0.3571  1.4105  0.2864
 2003TIP3    H227501   0.036   5.200  11.247 -0.0364  0.3572  1.1742
 2004TIP3   OH227502   1.928   5.941  11.690 -0.3424  0.3580  0.0589
 2004TIP3    H127503   1.847   5.890  11.696  0.3391 -0.6581  0.9658
 2004TIP3    H227504   1.937   5.983  11.775 -0.8851  2.0470 -0.6686
 2005TIP3   OH227505   2.772   1.696   4.483  0.7368 -0.1646  0.4498
 2005TIP3    H127506   2.752   1.625   4.422  0.1448 -0.0560  0.5060
 2005TIP3    H227507   2.712   1.767   4.457  1.8659  0.6141 -0.1263
 2006TIP3   OH227508   4.221   5.077  11.258  0.3289 -0.0898 -0.3998
 2006TIP3    H127509   4.167   4.999  11.248  0.6723 -0.0903 -2.8416
 2006TIP3    H227510   4.160   5.150  11.244  0.4506 -0.0000 -0.4627
 2007TIP3   OH227511   4.991   2.164  16.870 -0.2596  0.7824 -0.6919
 2007TIP3    H127512   5.013   2.081  16.912 -1.7910  0.1637 -1.0489
 2007TIP3    H227513   5.021   2.231  16.932 -1.0592 -0.0807  0.6694
 2008TIP3   OH227514   1.731   3.703  17.070  0.0169  0.0137  0.6668
 2008TIP3    H127515   1.636   3.692  17.069  0.1635 -1.5636  1.8283
 2008TIP3    H227516   1.745   3.789  17.030 -1.7256 -0.7139 -1.7281
 2009TIP3   OH227517   2.761   1.483  14.953  0.1405  0.1552 -0.5357
 2009TIP3    H127518   2.765   1.545  15.026 -0.8775 -0.1363 -0.2152
 2009TIP3    H227519   2.711   1.409  14.987  0.2274 -0.2779 -1.3206
 2010TIP3   OH227520   3.856   1.723   0.293  0.5894  0.1521 -0.3822
 2010TIP3    H127521   3.934   1.667   0.295  0.8656  0.5469  0.2623
 2010TIP3    H227522   3.815   1.711   0.379 -0.2377 -0.2816 -0.8255
 2011TIP3   OH227523   4.680   0.593  16.879 -0.2962  0.2148  0.6544
 2011TIP3    H127524   4.644   0.674  16.914  1.1302  0.9705  0.4275
 2011TIP3    H227525   4.603   0.541  16.857 -1.3326  2.2857 -1.0082
 2012TIP3   OH227526   5.346   1.469  14.532  0.1137 -0.4805 -0.1055
 2012TIP3    H127527   5.438   1.472  14.561 -0.1787 -1.3360  1.0075
 2012TIP3    H227528   5.298   1.513  14.602 -0.0833  2.6391 -2.0505
 2013TIP3   OH227529   0.765   5.683   2.887  0.4555 -0.2147 -0.3907
 2013TIP3    H127530   0.814   5.761   2.913 -0.0720 -0.0363  0.0915
 2013TIP3    H227531   0.827   5.611   2.898  1.6605  0.3336 -2.9223
 2014TIP3   OH227532   1.189   5.298  14.338  0.2432 -0.2744 -0.9808
 2014TIP3    H127533   1.114   5.272  14.391 -0.2650  0.4158 -1.3422
 2014TIP3    H227534   1.152   5.354  14.270  1.0956  0.1252 -1.1280
 2015TIP3   OH227535   5.232   0.815  12.376  0.2410  0.3626 -0.1331
 2015TIP3    H127536   5.238   0.812  12.280  0.6548  1.3572 -0.1446
 2015TIP3    H227537   5.226   0.908  12.397 -0.4228  0.1244  0.7822
 2016TIP3   OH227538   4.134   2.489  15.847 -0.0020 -0.6642  0.1032
 2016TIP3    H127539   4.061   2.433  15.819 -1.9343  1.5900  0.3236
 2016TIP3    H227540   4.172   2.522  15.765  2.8394 -4.0488 -0.1943
 2017TIP3   OH227541   3.595   1.629  11.502  0.0331  0.3245  0.2720
 2017TIP3    H127542   3.581   1.652  11.410  0.1081  0.0109  0.1790
 2017TIP3    H227543   3.684   1.659  11.521 -0.3170  1.2224  0.5106
 2018TIP3   OH227544   4.324   1.497  11.708 -0.1168  0.1428 -0.0907
 2018TIP3    H127545   4.377   1.558  11.657  1.1999  0.5032  1.6384
 2018TIP3    H227546   4.388   1.440  11.750 -1.2458 -1.0794  0.0108
 2019TIP3   OH227547   6.204   0.433   4.663  0.3905  0.2837 -0.4108
 2019TIP3    H127548   6.171   0.424   4.753  1.4130 -1.3899 -0.1563
 2019TIP3    H227549   6.130   0.467   4.614 -1.1483 -1.4972  0.5180
 2020TIP3   OH227550   4.831   6.400  11.320  0.5537  0.0476 -0.1065
 2020TIP3    H127551   4.779   6.323  11.344  0.5934 -0.1340 -0.5960
 2020TIP3    H227552   4.827   6.403  11.225  0.8193  0.4701 -0.1076
 2021TIP3   OH227553   4.833   1.002   5.934 -0.3578 -0.0191  0.6882
 2021TIP3    H127554   4.836   0.911   5.965  1.3918 -1.2090 -2.5588
 2021TIP3    H227555   4.903   1.046   5.983  0.8731 -1.2503  0.0832
 2022TIP3   OH227556   3.237   6.533   6.953  0.6217  0.4964 -0.2112
 2022TIP3    H127557   3.176   6.533   7.026  0.3645 -2.4530 -0.3038
 2022TIP3    H227558   3.182   6.543   6.875  0.4911  0.1090 -0.1708
 2023TIP3   OH227559   2.802   3.939  15.398 -0.0786  0.1273  0.0700
 2023TIP3    H127560   2.736   4.005  15.376 -0.9677 -0.4040  1.0435
 2023TIP3    H227561   2.880   3.990  15.419 -0.5453  0.8424  0.1132
 2024TIP3   OH227562   5.833   0.714  13.291 -0.8005  0.4980 -0.1043
 2024TIP3    H127563   5.789   0.630  13.295  0.3587 -0.1896 -0.9608
 2024TIP3    H227564   5.870   0.726  13.378  2.1802 -1.7392 -0.8719
 2025TIP3   OH227565   3.110   2.383  16.897  0.0842  0.5799 -0.1079
 2025TIP3    H127566   3.039   2.318  16.900 -0.3919  0.9768 -1.7922
 2025TIP3    H227567   3.155   2.367  16.814  0.2793  2.0541 -0.3208
 2026TIP3   OH227568   4.765   5.250  13.924  0.7916 -0.3378 -0.9430
 2026TIP3    H127569   4.832   5.285  13.865  1.2446  0.7510  0.1678
 2026TIP3    H227570   4.745   5.323  13.983 -0.2783 -1.1260 -0.3010
 2027TIP3   OH227571   0.697   4.448   3.559  0.2502  0.2206  0.1656
 2027TIP3    H127572   0.627   4.510   3.581  0.4249 -0.0902  1.6934
 2027TIP3    H227573   0.666   4.404   3.480 -0.1350  1.8407 -0.6284
 2028TIP3   OH227574   5.828   5.623   1.805 -0.6785  0.2726  0.5587
 2028TIP3    H127575   5.887   5.555   1.837 -0.8526  0.0985  0.5178
 2028TIP3    H227576   5.883   5.700   1.792 -0.5304  0.2170  0.8640
 2029TIP3   OH227577   0.301   6.556  13.478 -0.0261  0.3016 -0.1246
 2029TIP3    H127578   0.380   6.549  13.424  0.5937 -1.9810  0.9460
 2029TIP3    H227579   0.290   6.650  13.493  0.8536  0.8863 -2.5880
 2030TIP3   OH227580   4.576   1.137   6.744  0.2368 -0.8134 -0.0072
 2030TIP3    H127581   4.609   1.052   6.773 -0.4323 -1.1754 -0.2950
 2030TIP3    H227582   4.482   1.125   6.736  0.1637 -0.1100 -0.2912
 2031TIP3   OH227583   2.257   2.101   0.020  0.1305  0.1114 -0.5877
 2031TIP3    H127584   2.340   2.101   0.068 -0.7048  0.3648  0.9409
 2031TIP3    H227585   2.230   2.009   0.017 -1.2690  0.3088  2.2196
 2032TIP3   OH227586   4.387   4.711   3.024 -0.6261  0.7175  0.0544
 2032TIP3    H127587   4.405   4.774   3.093  0.3224  1.2861 -0.6758
 2032TIP3    H227588   4.337   4.642   3.066 -0.0232  1.0263  1.3120
 2033TIP3   OH227589   0.755   3.179   0.850  0.4133 -0.2603  0.2529
 2033TIP3    H127590   0.840   3.140   0.828  0.9629  0.6888  0.6456
 2033TIP3    H227591   0.749   3.173   0.945 -0.7098 -1.7887  0.1402
 2034TIP3   OH227592   5.481   1.832  15.835  0.0427 -0.3487 -0.5024
 2034TIP3    H127593   5.511   1.752  15.878 -2.6864 -1.8261 -1.0804
 2034TIP3    H227594   5.467   1.894  15.907  2.5921 -0.1655 -0.0861
 2035TIP3   OH227595   0.902   6.440   5.084 -0.5802  0.0125 -0.8022
 2035TIP3    H127596   0.907   6.446   5.180 -1.8501  1.6706 -0.7822
 2035TIP3    H227597   0.814   6.471   5.063  0.1736  1.1192 -2.5808
 2036TIP3   OH227598   3.359   3.627  12.934  0.8405 -0.0266 -0.9314
 2036TIP3    H127599   3.454   3.642  12.929  0.9542 -0.6534 -0.7755
 2036TIP3    H227600   3.340   3.626  13.027  0.3062  2.2200 -0.9658
 2037TIP3   OH227601   2.557   0.715  11.838  0.0264  0.6088  0.0843
 2037TIP3    H127602   2.557   0.655  11.763  2.4880  0.9297 -0.2440
 2037TIP3    H227603   2.618   0.784  11.814  0.0772  1.2806  1.9637
 2038TIP3   OH227604   1.074   6.070   0.130 -0.0096  0.3029 -0.2998
 2038TIP3    H127605   1.022   6.018   0.069 -0.0663  0.9870 -0.8519
 2038TIP3    H227606   1.163   6.036   0.122 -0.4729 -1.3911  1.2178
 2039TIP3   OH227607   6.640   4.662  13.538 -0.4909  0.4026 -0.2355
 2039TIP3    H127608   6.662   4.582  13.586  0.7446  0.2555 -0.9879
 2039TIP3    H227609   6.547   4.651  13.515 -0.7043 -0.1776  0.8388
 2040TIP3   OH227610   6.740   1.660  15.566  0.0198 -0.7051 -0.3562
 2040TIP3    H127611   6.665   1.702  15.524 -1.0033 -1.5875  0.4976
 2040TIP3    H227612   6.799   1.637  15.495 -0.6848 -0.3026 -1.0832
 2041TIP3   OH227613   2.372   3.370  15.765 -0.3550  0.2251 -0.6923
 2041TIP3    H127614   2.441   3.310  15.741  0.9415  1.9445 -1.4684
 2041TIP3    H227615   2.357   3.423  15.687 -2.2302  0.2328 -0.3888
 2042TIP3   OH227616   3.291   1.474  11.201 -0.1043 -0.0953 -0.0366
 2042TIP3    H127617   3.317   1.452  11.111  1.3471  0.3556  0.2502
 2042TIP3    H227618   3.201   1.441  11.209  1.3037 -4.5925 -0.1082
 2043TIP3   OH227619   5.051   4.237  14.656  0.5272 -0.3402  0.4880
 2043TIP3    H127620   5.102   4.297  14.710  1.0794 -0.3342 -0.0239
 2043TIP3    H227621   5.100   4.232  14.574 -0.1802 -0.5158  0.0673
 2044TIP3   OH227622   5.211   1.276   1.535 -0.7526 -0.0471 -0.2161
 2044TIP3    H127623   5.208   1.206   1.600 -2.2660 -0.2450 -0.4524
 2044TIP3    H227624   5.145   1.339   1.564 -0.1399  0.7731 -0.5647
 2045TIP3   OH227625   0.177   5.794  14.312  0.2065  0.2074 -0.2689
 2045TIP3    H127626   0.184   5.747  14.229 -3.2882  1.0294 -1.1738
 2045TIP3    H227627   0.128   5.734  14.369  0.1552  0.7600  0.2812
 2046TIP3   OH227628   0.906   6.099  15.768 -0.1569 -0.3339  0.0711
 2046TIP3    H127629   0.877   6.067  15.683 -2.4748  0.5589  0.4574
 2046TIP3    H227630   0.906   6.194  15.760 -0.6427 -0.2245  1.1131
 2047TIP3   OH227631   0.150   4.811  14.191 -0.5976  0.2082  0.8131
 2047TIP3    H127632   0.140   4.784  14.283  0.0421  1.8582  1.4142
 2047TIP3    H227633   0.234   4.856  14.189  1.8092 -3.7544 -1.6476
 2048TIP3   OH227634   0.127   0.654   6.404  0.6296  0.1567 -0.3163
 2048TIP3    H127635   0.191   0.583   6.407  0.0222 -0.3894 -0.1572
 2048TIP3    H227636   0.178   0.730   6.377  0.9468 -0.7214 -2.3609
 2049TIP3   OH227637   5.300   4.727  11.934  0.5910  0.2564  0.0481
 2049TIP3    H127638   5.243   4.799  11.961 -2.2264 -1.7157 -0.1764
 2049TIP3    H227639   5.355   4.764  11.866 -1.3024  2.0336 -0.6101
 2050TIP3   OH227640   1.232   0.604   4.636 -0.2428 -0.0699 -0.0592
 2050TIP3    H127641   1.159   0.665   4.645 -0.5340 -0.3047 -0.7396
 2050TIP3    H227642   1.191   0.523   4.607  0.2196 -0.3971  0.2020
 2051TIP3   OH227643   5.681   1.278   6.060 -0.1460 -0.6984 -0.0946
 2051TIP3    H127644   5.727   1.355   6.092 -0.4433 -0.1605 -0.9415
 2051TIP3    H227645   5.738   1.242   5.992 -0.3415 -0.8217 -0.1948
 2052TIP3   OH227646   4.066   5.528   0.764  0.2863 -0.2763  0.0386
 2052TIP3    H127647   4.156   5.504   0.790  0.1994 -1.3364 -0.5885
 2052TIP3    H227648   4.070   5.622   0.752  0.9645 -0.0912  1.4027
 2053TIP3   OH227649   6.517   6.603  14.241  0.0775  0.0524  0.1584
 2053TIP3    H127650   6.517   6.612  14.146  1.5924  1.0329  0.2098
 2053TIP3    H227651   6.482   6.515  14.257 -2.2889  0.6794 -1.1507
 2054TIP3   OH227652   3.068   1.561  12.428  0.6134 -0.1264  0.4298
 2054TIP3    H127653   3.031   1.606  12.351 -2.7750 -3.2022 -0.0430
 2054TIP3    H227654   3.093   1.631  12.487 -2.2882  2.4366 -1.0734
 2055TIP3   OH227655   6.250   2.722  10.946  0.0702  0.8224 -0.4287
 2055TIP3    H127656   6.214   2.779  10.877 -0.7484  0.1694 -0.5492
 2055TIP3    H227657   6.204   2.749  11.026  0.9504  1.5143 -0.1360
 2056TIP3   OH227658   0.938   5.002   5.101  0.2442 -0.1705 -0.0499
 2056TIP3    H127659   0.846   4.976   5.092  0.0373  0.8671 -1.2866
 2056TIP3    H227660   0.970   4.951   5.175 -0.8417 -1.8819 -0.6887
 2057TIP3   OH227661   6.260   0.664  13.134  0.0890  0.5119 -0.0982
 2057TIP3    H127662   6.227   0.587  13.181 -1.2604  0.6575 -0.7452
 2057TIP3    H227663   6.289   0.630  13.050 -1.0038  0.7416 -0.5963
 2058TIP3   OH227664   0.448   1.648   3.546  0.1538  0.2718 -0.7350
 2058TIP3    H127665   0.476   1.737   3.566 -0.0795 -0.1406  1.7698
 2058TIP3    H227666   0.354   1.655   3.528 -0.0606  0.4542  0.3721
 2059TIP3   OH227667   2.808   3.395  10.396  0.0091 -0.1873  0.4041
 2059TIP3    H127668   2.755   3.333  10.446 -0.8149  1.5195  1.7972
 2059TIP3    H227669   2.744   3.461  10.366  0.8216 -0.0670 -1.1327
 2060TIP3   OH227670   3.767   3.551   1.944 -0.4209 -0.1196 -0.7528
 2060TIP3    H127671   3.774   3.646   1.953 -1.0095 -0.1587  0.2929
 2060TIP3    H227672   3.834   3.516   2.002 -0.8304 -0.3413 -0.4049
 2061TIP3   OH227673   4.633   6.451  14.548  0.1868  0.0365  0.0436
 2061TIP3    H127674   4.546   6.478  14.519  1.0543  1.5231 -1.3790
 2061TIP3    H227675   4.684   6.531  14.549  1.7695 -0.9194  0.0208
 2062TIP3   OH227676   0.247   5.524   0.541 -0.0750 -0.8816 -0.2849
 2062TIP3    H127677   0.198   5.556   0.617  0.5797  2.5111 -1.1079
 2062TIP3    H227678   0.339   5.540   0.564  0.2522 -1.5436 -1.0863
 2063TIP3   OH227679   0.502   2.970  11.531  0.2558  0.5043 -0.6176
 2063TIP3    H127680   0.464   3.054  11.508 -0.5761  0.5029  0.6415
 2063TIP3    H227681   0.566   2.990  11.599 -0.1306  0.0891 -0.1317
 2064TIP3   OH227682   1.132   0.172  11.237 -0.0723 -0.3613 -0.1684
 2064TIP3    H127683   1.221   0.199  11.258 -0.0782 -0.4783  0.0006
 2064TIP3    H227684   1.114   0.215  11.153  0.2857 -0.6612 -0.3999
 2065TIP3   OH227685   0.374   3.913   2.673  0.0854 -0.2370  0.0676
 2065TIP3    H127686   0.336   3.882   2.591  1.1965 -0.0612 -0.5356
 2065TIP3    H227687   0.300   3.949   2.722 -0.6113 -0.4509 -0.8056
 2066TIP3   OH227688   5.625   2.706   6.061  0.2992  0.0402 -0.2442
 2066TIP3    H127689   5.568   2.703   6.138 -3.1684 -1.2155 -2.6141
 2066TIP3    H227690   5.618   2.796   6.029 -3.1105 -0.6950 -2.1461
 2067TIP3   OH227691   2.413   0.628  16.349 -0.0354  0.6905 -0.1094
 2067TIP3    H127692   2.363   0.667  16.278  1.6554  1.2928 -1.0364
 2067TIP3    H227693   2.364   0.550  16.374 -1.0776  0.9113 -1.3898
 2068TIP3   OH227694   0.663   4.931  13.221 -0.3464 -0.0514 -0.0109
 2068TIP3    H127695   0.646   5.012  13.270 -0.5850  0.0659 -0.2854
 2068TIP3    H227696   0.652   4.957  13.130 -0.8427 -0.5023 -0.0784
 2069TIP3   OH227697   5.562   4.815   1.596  0.1932 -0.0428  0.2138
 2069TIP3    H127698   5.561   4.909   1.613  2.3485  0.0084  0.2858
 2069TIP3    H227699   5.605   4.777   1.673  0.2329 -0.9686 -0.2561
 2070TIP3   OH227700   0.349   3.580   5.401 -0.0601 -0.3737 -0.0747
 2070TIP3    H127701   0.326   3.573   5.494 -0.8356 -1.0011 -0.3011
 2070TIP3    H227702   0.445   3.574   5.400 -0.0533 -0.5111  0.6707
 2071TIP3   OH227703   4.143   4.594  13.620  0.0982 -0.0828 -0.7466
 2071TIP3    H127704   4.223   4.631  13.658 -1.1176  2.4653 -0.4472
 2071TIP3    H227705   4.164   4.582  13.527  0.8411  0.5683 -0.6747
 2072TIP3   OH227706   5.571   0.473  14.759 -0.0581  0.0530  0.3805
 2072TIP3    H127707   5.659   0.479  14.720  0.4129  0.9761  1.5257
 2072TIP3    H227708   5.559   0.557  14.804 -1.4646 -0.1347  0.3878
 2073TIP3   OH227709   6.029   3.796  13.368 -0.1848 -0.3147  0.0867
 2073TIP3    H127710   5.958   3.739  13.340  0.0814 -0.2803 -0.6967
 2073TIP3    H227711   6.009   3.817  13.459 -1.6715  0.4282 -0.3717
 2074TIP3   OH227712   2.638   5.204  13.866 -0.2457  0.3238  0.3479
 2074TIP3    H127713   2.664   5.234  13.779 -0.8881 -0.1248 -0.0098
 2074TIP3    H227714   2.579   5.130  13.849 -0.4386  0.2826  1.1610
 2075TIP3   OH227715   5.833   4.697  16.804  0.5157  0.0968  0.4452
 2075TIP3    H127716   5.755   4.743  16.834 -0.2389 -0.6178 -0.3214
 2075TIP3    H227717   5.848   4.629  16.870  0.8474  0.5979  0.8934
 2076TIP3   OH227718   6.701   0.914  14.415  0.5276  0.3746 -0.1762
 2076TIP3    H127719   6.770   0.933  14.478  0.2826  1.2468 -0.1540
 2076TIP3    H227720   6.720   0.825  14.384  1.2785  0.3582  0.3049
 2077TIP3   OH227721   3.872   1.019   6.513 -0.6556  0.0200  0.2316
 2077TIP3    H127722   3.886   0.992   6.422  1.7854  0.0214  0.5380
 2077TIP3    H227723   3.945   0.979   6.560  0.0097  2.6720  1.6331
 2078TIP3   OH227724   6.650   2.095   2.420 -0.6824 -0.3394  0.0381
 2078TIP3    H127725   6.711   2.039   2.372 -0.2977 -0.3123  0.4877
 2078TIP3    H227726   6.693   2.111   2.503 -1.2654 -0.2387  0.3255
 2079TIP3   OH227727   1.010   0.121  13.185 -0.0970 -0.2153  0.0500
 2079TIP3    H127728   1.046   0.059  13.122  0.6989 -0.3641  0.6307
 2079TIP3    H227729   0.963   0.066  13.248 -0.2959 -0.1248 -0.0153
 2080TIP3   OH227730   3.682   5.910  12.201 -0.6096  0.0758  0.1255
 2080TIP3    H127731   3.687   5.975  12.271 -0.3402  0.4165 -0.2012
 2080TIP3    H227732   3.711   5.958  12.123  1.0819 -0.8640  0.1539
 2081TIP3   OH227733   3.430   5.306  15.053 -0.1780 -0.3943  0.2100
 2081TIP3    H127734   3.399   5.392  15.027 -1.5182 -1.2108 -1.0756
 2081TIP3    H227735   3.397   5.295  15.143 -0.8067  0.0623  0.0416
 2082TIP3   OH227736   1.666   0.113  16.865  0.4028 -0.2569 -0.3315
 2082TIP3    H127737   1.657   0.082  16.955 -4.3285  1.7688  0.1686
 2082TIP3    H227738   1.614   0.051  16.813  2.2204 -0.7981 -1.6058
 2083TIP3   OH227739   4.592   6.191   3.705 -0.2475 -0.1558 -0.0010
 2083TIP3    H127740   4.523   6.244   3.664  1.4858  1.3205 -1.1468
 2083TIP3    H227741   4.669   6.247   3.704  0.3251 -0.5119  4.0642
 2084TIP3   OH227742   6.247   6.499   3.729 -0.7966 -0.3312 -0.3846
 2084TIP3    H127743   6.276   6.475   3.817 -0.4600  0.0570 -0.3885
 2084TIP3    H227744   6.224   6.416   3.688 -0.8116 -0.5279  0.0174
 2085TIP3   OH227745   2.977   1.157  14.075 -0.1300 -0.0355  0.0225
 2085TIP3    H127746   2.953   1.083  14.018  0.1375 -0.1588  0.0667
 2085TIP3    H227747   2.924   1.230  14.043  1.0620  0.2921 -1.3536
 2086TIP3   OH227748   2.036   5.228   3.038 -0.1887 -0.0711  0.2021
 2086TIP3    H127749   2.020   5.155   2.978  0.3037  0.6292 -0.7989
 2086TIP3    H227750   1.950   5.254   3.069 -0.3520 -1.3276  0.8986
 2087TIP3   OH227751   5.352   6.294   0.346 -0.8925 -0.1234  0.0438
 2087TIP3    H127752   5.358   6.241   0.266  0.9781  0.2954 -0.1514
 2087TIP3    H227753   5.418   6.362   0.334 -0.2935 -0.2686  2.0920
 2088TIP3   OH227754   4.898   4.914   3.352  0.8309  0.3546  0.5493
 2088TIP3    H127755   4.855   4.911   3.438  0.4472  0.7818  0.3787
 2088TIP3    H227756   4.961   4.842   3.354 -0.3435 -0.7233  0.5787
 2089TIP3   OH227757   1.020   3.235  14.280 -0.2760  0.2098  0.4186
 2089TIP3    H127758   0.939   3.209  14.235 -1.9846  1.0096  2.8278
 2089TIP3    H227759   1.059   3.152  14.309 -0.1046 -0.1902 -0.8824
 2090TIP3   OH227760   4.472   3.519  15.633 -0.5574 -0.0531 -0.0916
 2090TIP3    H127761   4.430   3.517  15.719  0.1607 -1.0130  0.2574
 2090TIP3    H227762   4.493   3.427  15.615  0.7529  0.3187 -0.5567
 2091TIP3   OH227763   1.692   5.566   5.622 -0.1502  0.4851  0.1143
 2091TIP3    H127764   1.722   5.513   5.547 -0.9929 -0.2408  0.2804
 2091TIP3    H227765   1.693   5.505   5.696  0.5802  1.1744  0.6970
 2092TIP3   OH227766   3.794   1.541  16.402 -0.2368 -0.3306  0.1844
 2092TIP3    H127767   3.773   1.506  16.489  0.1003 -1.2595 -0.0953
 2092TIP3    H227768   3.733   1.614  16.390 -0.2139 -0.1204  1.2433
 2093TIP3   OH227769   3.325   1.155   2.971 -0.5525 -0.0856  0.4827
 2093TIP3    H127770   3.409   1.162   3.017 -0.1627 -0.3564 -0.1742
 2093TIP3    H227771   3.267   1.109   3.032  0.0490 -0.7225  0.5834
 2094TIP3   OH227772   2.612   0.267  11.849  0.2982 -0.0412 -0.7579
 2094TIP3    H127773   2.613   0.184  11.802 -0.0817 -0.5676  0.1293
 2094TIP3    H227774   2.520   0.290  11.855  0.2810 -0.3081  0.2449
 2095TIP3   OH227775   0.315   4.056  17.115  0.0194  0.1768  0.1291
 2095TIP3    H127776   0.233   4.012  17.137  0.8727 -0.7754  1.4926
 2095TIP3    H227777   0.369   3.987  17.076  0.7627  0.4140  0.7349
 2096TIP3   OH227778   2.232   3.876   5.550 -0.1625  0.5511 -0.2771
 2096TIP3    H127779   2.145   3.912   5.535  0.2992  1.8972  0.1159
 2096TIP3    H227780   2.218   3.804   5.612 -1.0545  0.3676 -0.6854
 2097TIP3   OH227781   6.797   2.127  10.800  0.0279 -0.5492 -0.4468
 2097TIP3    H127782   6.853   2.121  10.722  1.3643 -0.1979  0.4587
 2097TIP3    H227783   6.715   2.084  10.773  0.2809 -0.0487 -2.1847
 2098TIP3   OH227784   1.001   1.112  11.149  0.2658  0.4222 -0.0467
 2098TIP3    H127785   1.013   1.140  11.058  0.6210  0.3342 -0.0245
 2098TIP3    H227786   1.089   1.104  11.184  0.1232  2.8406  1.0367
 2099TIP3   OH227787   5.894   0.384   4.821  0.1288  0.7393  0.3879
 2099TIP3    H127788   5.907   0.477   4.806 -1.3519  1.0728  0.9775
 2099TIP3    H227789   5.874   0.348   4.735  0.8967  0.9325  0.1297
 2100TIP3   OH227790   4.202   3.619   3.445 -0.0018 -0.1164 -0.5443
 2100TIP3    H127791   4.242   3.646   3.362  0.0459  1.8010  0.0636
 2100TIP3    H227792   4.198   3.699   3.497  0.7590 -1.4163  1.6636
 2101TIP3   OH227793   5.981   2.326   5.686  0.2554 -0.1766  0.5104
 2101TIP3    H127794   6.076   2.339   5.681  0.2381 -0.1522  0.2256
 2101TIP3    H227795   5.951   2.393   5.747  0.6009 -1.0909  1.7125
 2102TIP3   OH227796   5.977   5.370  16.804 -0.2914  0.8897 -0.0666
 2102TIP3    H127797   6.044   5.371  16.735  1.1387  0.0862  1.2405
 2102TIP3    H227798   5.894   5.369  16.757  0.6371 -0.4884 -1.8001
 2103TIP3   OH227799   1.731   4.753   1.455  0.3028 -0.0601  0.3038
 2103TIP3    H127800   1.786   4.711   1.521 -2.0806  0.2022  2.6271
 2103TIP3    H227801   1.749   4.704   1.375  1.8543 -1.7212  1.5633
 2104TIP3   OH227802   6.155   1.344   3.514  0.3716 -0.3594  0.1907
 2104TIP3    H127803   6.175   1.310   3.601  1.6368 -0.3631 -0.0849
 2104TIP3    H227804   6.059   1.353   3.513  0.4055  0.4651  1.8660
 2105TIP3   OH227805   3.906   1.488   4.682  0.3093 -0.4056 -0.7203
 2105TIP3    H127806   3.927   1.559   4.621  0.4358  0.1772 -0.0163
 2105TIP3    H227807   3.982   1.482   4.740  0.3080 -1.1354 -0.7871
 2106TIP3   OH227808   1.108   1.419  10.983  0.1189  0.0042 -0.3756
 2106TIP3    H127809   1.012   1.417  10.974  0.1831  0.4641 -1.2400
 2106TIP3    H227810   1.123   1.444  11.075 -0.5839 -0.1868 -0.2018
 2107TIP3   OH227811   0.326   0.406  14.813  0.2389 -0.0583  0.6035
 2107TIP3    H127812   0.245   0.447  14.784  0.3567 -0.4977 -0.3815
 2107TIP3    H227813   0.340   0.334  14.751  0.3595 -1.2032  1.9169
 2108TIP3   OH227814   2.423   4.859   0.001  0.7225  0.2124  0.8964
 2108TIP3    H127815   2.415   4.936  -0.055 -0.3882  0.4615  1.3660
 2108TIP3    H227816   2.493   4.881   0.062 -0.3689  1.3656  1.7869
 2109TIP3   OH227817   5.076   1.512   2.207  0.1628  0.8902  0.0466
 2109TIP3    H127818   5.116   1.437   2.252 -1.9921  0.7481  1.8884
 2109TIP3    H227819   5.112   1.508   2.118  4.3686  0.9907  1.5115
 2110TIP3   OH227820   3.329   1.844   5.748  0.1999  1.0638 -0.1919
 2110TIP3    H127821   3.239   1.859   5.777  0.3774 -0.6953  1.4366
 2110TIP3    H227822   3.370   1.930   5.751 -1.1214  1.7031  0.1473
 2111TIP3   OH227823   3.386   2.430   0.494 -0.5125  0.5316  0.2417
 2111TIP3    H127824   3.437   2.508   0.473 -0.3353  0.4778  0.4617
 2111TIP3    H227825   3.297   2.452   0.467 -0.0302 -0.1618 -2.1709
 2112TIP3   OH227826   0.109   3.516  13.472  0.8577  0.3670  0.0592
 2112TIP3    H127827   0.025   3.487  13.437  1.5455 -1.4795 -0.1997
 2112TIP3    H227828   0.091   3.538  13.564  0.1196 -0.1281  0.0374
 2113TIP3   OH227829   3.876   5.052   1.848  0.3964  0.3103  0.1544
 2113TIP3    H127830   3.939   4.982   1.833 -0.4765 -0.5832  0.5073
 2113TIP3    H227831   3.924   5.133   1.831  1.7325 -0.3222  0.7823
 2114TIP3   OH227832   0.931   2.181   3.184  0.1555 -0.2943  0.5207
 2114TIP3    H127833   0.996   2.241   3.219 -0.9333  0.2447  1.7071
 2114TIP3    H227834   0.970   2.094   3.192  1.5735  0.1801 -0.8073
 2115TIP3   OH227835   5.433   4.913   3.129  0.1776 -0.2012  0.2690
 2115TIP3    H127836   5.386   4.959   3.199 -0.7075 -1.2383  0.3864
 2115TIP3    H227837   5.411   4.961   3.050 -1.8073 -1.1349  0.1978
 2116TIP3   OH227838   2.471   5.113   5.965 -0.6673 -0.5673 -0.3021
 2116TIP3    H127839   2.566   5.126   5.968 -0.5000 -1.6860 -0.1895
 2116TIP3    H227840   2.458   5.049   5.896 -1.2242 -1.3118  0.4722
 2117TIP3   OH227841   1.235   2.180  11.784  0.2153 -0.2129 -0.0710
 2117TIP3    H127842   1.307   2.233  11.748 -0.0805 -1.6965 -3.2087
 2117TIP3    H227843   1.181   2.243  11.833  1.9150  1.5760 -0.3630
 2118TIP3   OH227844   0.254   1.782   6.021  0.6540 -0.2747  0.2467
 2118TIP3    H127845   0.222   1.865   5.985 -1.2922 -1.1325 -0.1046
 2118TIP3    H227846   0.329   1.759   5.966  1.0820  1.1064  0.1989
 2119TIP3   OH227847   3.563   1.451   1.737 -0.0703  0.2430 -0.0287
 2119TIP3    H127848   3.561   1.532   1.788 -2.6819 -0.4300  1.1279
 2119TIP3    H227849   3.474   1.415   1.745  0.9958 -2.8042 -0.3882
 2120TIP3   OH227850   1.614   4.125   4.596 -0.5927 -0.2761 -0.6024
 2120TIP3    H127851   1.635   4.124   4.689 -1.1884 -0.6042 -0.4670
 2120TIP3    H227852   1.646   4.210   4.565 -2.2161  0.7287  0.3264
 2121TIP3   OH227853   2.980   4.453  12.078  0.5907 -0.0792  0.5255
 2121TIP3    H127854   2.985   4.523  12.013  0.7809 -0.4410  0.1499
 2121TIP3    H227855   3.001   4.373  12.030 -1.5436 -0.6843  0.5075
 2122TIP3   OH227856   5.334   3.618  16.252  1.0292  0.2439 -0.3233
 2122TIP3    H127857   5.360   3.702  16.215 -1.8819  0.8536 -1.2657
 2122TIP3    H227858   5.385   3.610  16.333  0.8811  3.2832  0.1924
 2123TIP3   OH227859   3.324   4.218  16.446  0.1428 -0.3439  0.2492
 2123TIP3    H127860   3.395   4.155  16.430 -0.3204 -1.2205  1.5240
 2123TIP3    H227861   3.368   4.293  16.486  0.3697 -0.8685  1.0044
 2124TIP3   OH227862   4.058   2.736  12.736  0.2995  0.2629  0.7369
 2124TIP3    H127863   4.088   2.648  12.713 -0.5644 -0.1503  1.1411
 2124TIP3    H227864   4.076   2.788  12.658  1.6710 -0.0440  0.8197
 2125TIP3   OH227865   0.818   5.966  12.720  0.1142 -0.4695 -0.2437
 2125TIP3    H127866   0.904   5.935  12.746  0.6350  1.2360  0.1790
 2125TIP3    H227867   0.792   5.907  12.648  1.1994 -1.5772  0.2295
 2126TIP3   OH227868   2.112   0.260  16.665  0.1830 -0.5683  0.3915
 2126TIP3    H127869   2.182   0.306  16.711 -0.3184  0.2232  0.3741
 2126TIP3    H227870   2.031   0.298  16.700 -0.2127 -0.2869 -0.7871
 2127TIP3   OH227871   1.090   2.727   1.462 -0.3448  0.0939 -0.8749
 2127TIP3    H127872   1.000   2.718   1.491 -0.4237 -0.1526 -1.1840
 2127TIP3    H227873   1.084   2.726   1.366  0.0444 -0.5569 -0.9001
 2128TIP3   OH227874   0.376   5.107  12.611  0.0544 -0.2757  0.0680
 2128TIP3    H127875   0.355   5.151  12.528  2.3656 -0.0073 -0.4584
 2128TIP3    H227876   0.377   5.014  12.589  0.9873 -0.1865 -0.3245
 2129TIP3   OH227877   5.186   2.013  13.618 -0.3081  0.6796  0.1801
 2129TIP3    H127878   5.117   2.008  13.684  0.0685  0.1013  0.5489
 2129TIP3    H227879   5.170   1.938  13.561  1.0416 -0.5597  1.3337
 2130TIP3   OH227880   4.992   2.773  13.941 -0.5576  0.1036  0.1296
 2130TIP3    H127881   4.971   2.720  14.018 -1.3371  1.6835  1.0561
 2130TIP3    H227882   4.910   2.780  13.893 -0.5758  0.8337  0.2549
 2131TIP3   OH227883   4.347   5.641  13.114  0.6874  0.7187  0.0762
 2131TIP3    H127884   4.376   5.685  13.195  0.2494  1.4732 -0.1756
 2131TIP3    H227885   4.356   5.707  13.046  1.0230  0.0928 -0.4999
 2132TIP3   OH227886   2.943   2.606  16.818  0.0185  0.1666 -0.2366
 2132TIP3    H127887   2.918   2.688  16.860 -1.3642 -0.3328 -0.0365
 2132TIP3    H227888   2.999   2.562  16.882  1.6111  1.3604 -0.7419
 2133TIP3   OH227889   6.713   0.202  12.159 -0.1065 -0.0376 -0.0420
 2133TIP3    H127890   6.657   0.227  12.233 -1.4065  2.8817 -1.8011
 2133TIP3    H227891   6.762   0.282  12.139  1.0636 -1.0974 -1.6263
 2134TIP3   OH227892   5.918   0.287   1.672  0.3839  0.2535 -0.2202
 2134TIP3    H127893   5.888   0.227   1.741  1.0264 -0.2029 -0.3241
 2134TIP3    H227894   5.841   0.340   1.651 -0.0824 -0.2484  0.1805
 2135TIP3   OH227895   1.850   6.687  15.541  0.4415 -0.2250  0.1176
 2135TIP3    H127896   1.819   6.602  15.573 -0.5018  0.6375  1.6125
 2135TIP3    H227897   1.928   6.666  15.489 -0.7782 -2.1440 -1.0473
 2136TIP3   OH227898   1.977   5.894   4.018  0.2713 -0.3688 -0.7938
 2136TIP3    H127899   1.894   5.935   4.043 -0.6946 -1.9876 -1.2219
 2136TIP3    H227900   2.044   5.957   4.046 -1.0616  0.7430  0.0237
 2137TIP3   OH227901   1.997   4.124   6.764  0.0129 -0.1160 -0.2923
 2137TIP3    H127902   1.952   4.077   6.693 -0.8521  0.2006  0.0362
 2137TIP3    H227903   1.946   4.103   6.842  1.3274 -0.9806  0.3725
 2138TIP3   OH227904   5.383   6.183  15.460 -0.2760 -0.5993 -0.1659
 2138TIP3    H127905   5.420   6.226  15.383 -1.8970 -0.0182 -0.6441
 2138TIP3    H227906   5.437   6.216  15.533  1.3890 -1.3107 -1.0313
 2139TIP3   OH227907   2.966   3.179  17.005 -0.3767  0.1159  0.0535
 2139TIP3    H127908   3.017   3.127  17.067  0.8338 -0.5498 -1.4287
 2139TIP3    H227909   3.031   3.213  16.943 -1.5575  0.5500 -0.9960
 2140TIP3   OH227910   4.700   4.013  11.956 -0.2664  0.1403 -0.4971
 2140TIP3    H127911   4.702   4.096  12.003  1.0796 -0.5214  0.6652
 2140TIP3    H227912   4.785   4.007  11.913 -0.6229 -0.3274 -1.1687
 2141TIP3   OH227913   4.550   1.052   5.663 -0.3023  0.2564  0.7520
 2141TIP3    H127914   4.636   1.046   5.622 -0.4704 -0.7952  0.5212
 2141TIP3    H227915   4.545   0.975   5.719 -2.1665 -1.2949 -1.3571
 2142TIP3   OH227916   0.006   4.234   3.765 -0.3802 -0.1394 -0.2588
 2142TIP3    H127917   0.058   4.185   3.828 -0.5116  0.1503  0.0798
 2142TIP3    H227918  -0.038   4.301   3.818  0.4933  0.9277 -0.8290
 2143TIP3   OH227919   4.301   4.978   5.233  0.2508 -0.3762  0.4492
 2143TIP3    H127920   4.349   4.993   5.151 -1.7845  1.3036 -0.5284
 2143TIP3    H227921   4.248   4.900   5.215 -0.8198  0.4736 -0.1780
 2144TIP3   OH227922   5.145   6.646  12.049  0.1618 -0.1469 -0.1965
 2144TIP3    H127923   5.052   6.662  12.035  0.4350 -0.4197 -2.9761
 2144TIP3    H227924   5.148   6.563  12.097 -1.0241 -0.3541 -0.4415
 2145TIP3   OH227925   4.873   2.578   2.433 -0.1029  0.6680 -0.0010
 2145TIP3    H127926   4.932   2.617   2.368 -0.4736 -0.3166 -0.9578
 2145TIP3    H227927   4.787   2.579   2.392 -0.3262 -0.0846  0.4164
 2146TIP3   OH227928   1.716   5.559  12.729  0.6696  0.2964  0.5328
 2146TIP3    H127929   1.726   5.465  12.710  0.6981  0.5445 -0.7671
 2146TIP3    H227930   1.634   5.564  12.778 -1.1336 -0.1254 -2.1783
 2147TIP3   OH227931   4.337   4.885   0.915 -0.2772  0.4119 -0.1450
 2147TIP3    H127932   4.277   4.872   0.988 -0.6404  1.6254 -0.2095
 2147TIP3    H227933   4.380   4.969   0.934  1.9581 -0.7334  0.2820
 2148TIP3   OH227934   3.924   2.237  13.993 -0.0544  0.0551  0.0502
 2148TIP3    H127935   3.875   2.162  14.027 -0.1522  0.3441  0.5561
 2148TIP3    H227936   3.921   2.226  13.898 -1.4200  0.2735  0.0556
 2149TIP3   OH227937   1.305   6.742  12.198 -0.3471 -0.9125  0.4919
 2149TIP3    H127938   1.294   6.792  12.117  0.2255 -0.0481  0.9356
 2149TIP3    H227939   1.334   6.806  12.262 -0.8032 -1.5884  1.3960
 2150TIP3   OH227940   0.140   3.956  11.914  0.4108  0.1504 -0.1254
 2150TIP3    H127941   0.227   3.979  11.882 -0.2041  1.7471 -0.7697
 2150TIP3    H227942   0.154   3.921  12.001  1.6643  0.7941 -0.0557
 2151TIP3   OH227943   5.943   5.999   3.345 -0.0531  0.0276 -0.1112
 2151TIP3    H127944   5.960   5.958   3.429 -1.2210 -0.0698  0.1029
 2151TIP3    H227945   6.009   5.963   3.286 -0.1706 -1.0768  0.4085
 2152TIP3   OH227946   0.956   3.516  11.776 -0.0270  0.2419 -0.4082
 2152TIP3    H127947   0.998   3.578  11.716  2.8701 -1.5877 -0.4881
 2152TIP3    H227948   0.925   3.446  11.720 -0.1490 -0.0063 -0.0326
 2153TIP3   OH227949   3.825   3.667   5.632  0.0019 -0.2220 -0.4382
 2153TIP3    H127950   3.811   3.580   5.669 -2.1398  0.0178 -0.5446
 2153TIP3    H227951   3.746   3.715   5.655  0.8482  1.4955 -0.9855
 2154TIP3   OH227952   5.293   5.822   3.306 -0.1861  0.3446 -0.6927
 2154TIP3    H127953   5.250   5.743   3.340  1.0542  0.7873  2.1049
 2154TIP3    H227954   5.366   5.788   3.253 -0.8089 -0.3626 -1.1258
 2155TIP3   OH227955   0.293   1.980  15.733  0.2576  0.2638 -0.2346
 2155TIP3    H127956   0.377   1.950  15.767 -0.3239 -0.4963  0.5749
 2155TIP3    H227957   0.257   1.904  15.688 -0.4447  0.2753  0.2954
 2156TIP3   OH227958   4.214   3.037  13.393  0.1478  0.2156 -0.4725
 2156TIP3    H127959   4.123   3.048  13.420 -0.9001 -1.0956 -3.0637
 2156TIP3    H227960   4.248   2.968  13.449 -0.7487  0.0669 -0.1001
 2157TIP3   OH227961   0.986   1.165  13.392  0.0370  0.3167  0.2048
 2157TIP3    H127962   1.031   1.086  13.361  1.5636  1.3174 -0.2680
 2157TIP3    H227963   1.011   1.171  13.485  1.4463  1.1739 -0.1885
 2158TIP3   OH227964   1.695   3.307   6.099 -0.1599  0.3872 -0.0216
 2158TIP3    H127965   1.709   3.400   6.085  0.4726  0.1687 -0.9806
 2158TIP3    H227966   1.750   3.285   6.174  0.8422  0.5122 -0.7058
 2159TIP3   OH227967   0.968   4.022  15.885 -0.1579  0.4899  0.0464
 2159TIP3    H127968   1.047   3.992  15.840  0.2302 -1.2924  1.7993
 2159TIP3    H227969   0.994   4.104  15.926  0.6741  0.1203  0.2726
 2160TIP3   OH227970   5.440   1.876   2.296  0.2605 -0.3034  0.1532
 2160TIP3    H127971   5.394   1.879   2.380 -0.2894 -0.8700 -0.1145
 2160TIP3    H227972   5.497   1.799   2.304 -1.4703 -1.7456 -0.8089
 2161TIP3   OH227973   1.929   5.771   4.808 -0.2542  0.2605 -0.2694
 2161TIP3    H127974   2.005   5.814   4.845  0.8216 -1.8502  0.1227
 2161TIP3    H227975   1.958   5.740   4.722 -0.5707 -0.7187 -0.0421
 2162TIP3   OH227976   3.205   5.038   1.882  0.1142  0.2467  0.0581
 2162TIP3    H127977   3.204   4.971   1.950 -0.5901 -0.7290 -0.8721
 2162TIP3    H227978   3.258   5.109   1.918  0.9351 -0.8434  1.0416
 2163TIP3   OH227979   3.542   2.101   5.905  0.3131  0.3069  0.0043
 2163TIP3    H127980   3.542   2.081   5.812 -0.4230  0.4342 -0.0257
 2163TIP3    H227981   3.551   2.197   5.909 -0.8359  0.4314  0.0205
 2164TIP3   OH227982   3.392   1.577   4.667 -0.2552  0.1032  0.5311
 2164TIP3    H127983   3.414   1.663   4.631 -2.1527  0.5751  0.3757
 2164TIP3    H227984   3.475   1.531   4.673  0.7070  1.6926 -0.0698
 2165TIP3   OH227985   4.836   1.913   0.369  0.3800 -0.5070  0.1741
 2165TIP3    H127986   4.764   1.877   0.318 -0.5322  1.8719 -0.3537
 2165TIP3    H227987   4.906   1.848   0.361 -1.0341 -1.9661 -0.9244
 2166TIP3   OH227988   5.097   2.928  15.357  0.0704  0.1476 -0.2512
 2166TIP3    H127989   5.172   2.969  15.315  0.8163 -0.0213  0.8696
 2166TIP3    H227990   5.095   2.966  15.445  0.7185 -2.0538  0.7952
 2167TIP3   OH227991   5.680   2.140  12.361  0.1217 -0.3207 -0.6484
 2167TIP3    H127992   5.593   2.177  12.346  1.2806  2.7432 -0.6612
 2167TIP3    H227993   5.674   2.100  12.448 -1.1460  0.3776 -0.3873
 2168TIP3   OH227994   1.642   5.481  12.200  0.1797 -0.8529  0.3268
 2168TIP3    H127995   1.715   5.431  12.164  0.7657  1.2038 -1.5932
 2168TIP3    H227996   1.568   5.458  12.144  0.5461  0.6222 -0.8307
 2169TIP3   OH227997   1.569   3.443  10.786  0.4138 -0.2771  0.7591
 2169TIP3    H127998   1.492   3.484  10.825  0.9907  1.3061  0.3171
 2169TIP3    H227999   1.630   3.515  10.770  0.6201 -0.9627 -2.0960
 2170TIP3   OH228000   4.314   6.049  14.485  0.7957  0.5806 -0.3427
 2170TIP3    H128001   4.311   6.124  14.544 -0.3789 -0.5539  1.1380
 2170TIP3    H228002   4.223   6.039  14.455  0.1613 -2.0672  2.0150
 2171TIP3   OH228003   3.140   4.070   0.618  0.1894  1.1165 -0.2395
 2171TIP3    H128004   3.198   3.999   0.592  1.6562  1.1922  2.4458
 2171TIP3    H228005   3.073   4.028   0.673 -0.3401  1.4970 -0.5853
 2172TIP3   OH228006   5.983   2.835   0.209 -0.1938 -0.7395  0.5634
 2172TIP3    H128007   5.904   2.866   0.166  0.8660  1.9413  0.3562
 2172TIP3    H228008   6.052   2.895   0.178  1.9229 -2.9320  0.7529
 2173TIP3   OH228009   3.198   0.674  16.020 -0.4792 -0.4219 -0.2493
 2173TIP3    H128010   3.282   0.649  16.058  0.0090  0.1752 -0.9022
 2173TIP3    H228011   3.210   0.666  15.926 -1.2581 -0.6295 -0.3430
 2174TIP3   OH228012   1.660   4.216   2.778 -0.0782  0.2429  0.3295
 2174TIP3    H128013   1.699   4.183   2.697 -2.2710 -1.3430 -0.1809
 2174TIP3    H228014   1.723   4.192   2.846 -0.7454 -3.9159 -0.2181
 2175TIP3   OH228015   3.446   1.662   5.600  0.2404 -0.5155 -0.1219
 2175TIP3    H128016   3.410   1.738   5.647  3.0298  0.3183  0.8806
 2175TIP3    H228017   3.477   1.604   5.669  2.3097 -0.3526 -0.8400
 2176TIP3   OH228018   0.287   0.548  16.722  0.8129 -0.0495  0.3395
 2176TIP3    H128019   0.355   0.504  16.671  1.5971  1.2321  0.2411
 2176TIP3    H228020   0.315   0.538  16.813 -0.4075 -2.0306  0.5780
 2177TIP3   OH228021   0.362   5.760   6.370  0.3280  0.0982  0.7325
 2177TIP3    H128022   0.408   5.688   6.415 -1.1576  0.2836  2.6608
 2177TIP3    H228023   0.308   5.716   6.304  1.4081 -0.3093  0.0901
 2178TIP3   OH228024   6.752   2.063  13.451  0.5226 -0.3234  0.0092
 2178TIP3    H128025   6.759   1.997  13.520  0.3788 -0.1609  0.1790
 2178TIP3    H228026   6.667   2.103  13.465 -0.5320 -1.8415 -1.6459
 2179TIP3   OH228027   4.116   2.941   3.267  0.4456 -0.7339  0.6207
 2179TIP3    H128028   4.056   2.943   3.192  1.0848 -2.2965  0.0115
 2179TIP3    H228029   4.085   3.009   3.325 -0.6540 -0.1152 -0.6425
 2180TIP3   OH228030   3.970   2.850  14.319  0.1497 -0.4106  0.5343
 2180TIP3    H128031   3.896   2.795  14.344  1.3781 -1.1789  2.7064
 2180TIP3    H228032   3.951   2.935  14.359 -1.2580  0.5757 -1.9866
 2181TIP3   OH228033   1.592   2.664   4.262  0.6666 -0.3560 -0.7113
 2181TIP3    H128034   1.673   2.621   4.236  1.7767  1.8329 -1.0787
 2181TIP3    H228035   1.619   2.751   4.292 -1.2077 -0.6549  2.2107
 2182TIP3   OH228036   3.577   1.702  16.013 -0.7466  0.0080  0.7995
 2182TIP3    H128037   3.511   1.755  16.057 -0.9003 -1.1018  1.9739
 2182TIP3    H228038   3.605   1.639  16.079 -0.8489 -1.6241 -0.6331
 2183TIP3   OH228039   4.932   2.684   1.122  0.2272 -0.3258 -0.4200
 2183TIP3    H128040   4.856   2.637   1.157 -0.9241  2.2507  0.8653
 2183TIP3    H228041   4.956   2.745   1.192  2.9797 -0.4747 -1.1425
 2184TIP3   OH228042   4.369   6.622   1.721 -0.3345 -0.4934  0.3278
 2184TIP3    H128043   4.408   6.558   1.779 -3.9671 -1.7037  1.7423
 2184TIP3    H228044   4.367   6.703   1.773 -0.7439 -0.7438  0.7114
 2185TIP3   OH228045   0.421   4.761  16.727 -0.2053 -0.1695 -0.0471
 2185TIP3    H128046   0.503   4.798  16.695 -0.5320  0.1387 -0.5485
 2185TIP3    H228047   0.385   4.829  16.785 -0.0168 -0.3810  0.3183
 2186TIP3   OH228048   0.664   4.886   5.966  0.0839 -0.2134  0.4630
 2186TIP3    H128049   0.721   4.963   5.975  1.8715 -1.5313  0.9822
 2186TIP3    H228050   0.646   4.882   5.872 -1.3835  1.7225  0.6122
 2187TIP3   OH228051   1.306   2.637  13.894  0.1035 -0.0522 -0.1441
 2187TIP3    H128052   1.252   2.570  13.936  1.1841 -0.4258  0.6797
 2187TIP3    H228053   1.296   2.620  13.800 -2.8183  1.1670 -0.1672
 2188TIP3   OH228054   3.944   5.749  14.026  0.2952  0.8041 -0.3250
 2188TIP3    H128055   3.852   5.766  14.006 -0.1003 -2.0471 -1.3109
 2188TIP3    H228056   3.992   5.801  13.962 -0.6229  1.5661 -0.4272
 2189TIP3   OH228057   2.104   2.828   6.288 -0.0094  0.3068  0.4281
 2189TIP3    H128058   2.151   2.835   6.204 -0.2635 -1.6934  0.0720
 2189TIP3    H228059   2.036   2.763   6.272  0.2246 -0.4718  2.3142
 2190TIP3   OH228060   4.581   4.544   3.430 -0.5327  0.3019 -0.1081
 2190TIP3    H128061   4.654   4.585   3.384  0.5004 -1.4374 -0.0751
 2190TIP3    H228062   4.616   4.462   3.465 -2.0287  0.2432  1.4259
 2191TIP3   OH228063   6.326   1.396   1.018  0.0498  0.1430 -0.0405
 2191TIP3    H128064   6.313   1.480   1.063 -0.9064  0.2157 -0.4364
 2191TIP3    H228065   6.386   1.416   0.947 -0.5897  0.6229 -0.4610
 2192TIP3   OH228066   3.091   0.558   4.685 -0.0471 -0.5802 -0.0579
 2192TIP3    H128067   3.109   0.465   4.671  1.2003  0.0107 -2.9901
 2192TIP3    H228068   3.011   0.574   4.634  0.7700  0.2801 -1.1185
 2193TIP3   OH228069   6.610   1.158  15.673  0.9315  0.2444 -0.0235
 2193TIP3    H128070   6.627   1.064  15.686 -0.0294  0.4321  4.0276
 2193TIP3    H228071   6.516   1.162  15.655  1.2428  0.4066 -1.7666
 2194TIP3   OH228072   5.747   2.690   0.656 -0.2859 -0.3541  0.1689
 2194TIP3    H128073   5.802   2.726   0.586 -0.1164 -0.4813  0.2375
 2194TIP3    H228074   5.809   2.659   0.722 -0.3575 -2.2988 -0.6236
 2195TIP3   OH228075   3.338   5.342  13.948 -0.2343 -0.0646  0.4266
 2195TIP3    H128076   3.313   5.324  13.857 -1.7226  1.5943  0.4524
 2195TIP3    H228077   3.433   5.342  13.946 -0.2196  0.5338 -1.2924
 2196TIP3   OH228078   1.336   5.451  13.569 -0.7599 -0.2704  0.5203
 2196TIP3    H128079   1.243   5.450  13.591 -1.3292 -0.7571 -1.6194
 2196TIP3    H228080   1.349   5.536  13.527 -0.0012  0.1657  1.5981
 2197TIP3   OH228081   5.652   3.426   4.093 -0.0223  0.1560  0.0701
 2197TIP3    H128082   5.688   3.402   4.008 -0.2684 -0.6439  0.1903
 2197TIP3    H228083   5.559   3.442   4.076  0.0721  0.7347  0.0540
 2198TIP3   OH228084   2.145   4.291  15.814  0.0148 -0.6706  0.2237
 2198TIP3    H128085   2.095   4.275  15.734 -0.0696  0.3965  0.0468
 2198TIP3    H228086   2.078   4.301  15.882 -0.1108  1.5162 -0.1461
 2199TIP3   OH228087   0.723   6.473  14.491  0.1077  0.0984 -0.1355
 2199TIP3    H128088   0.701   6.527  14.566  1.4729  0.0027  0.3505
 2199TIP3    H228089   0.703   6.528  14.415 -3.8860 -0.7245  0.1001
 2200TIP3   OH228090   1.865   4.538  11.205  0.0467 -0.5446  0.0992
 2200TIP3    H128091   1.891   4.484  11.280 -1.7387 -0.3190  0.9224
 2200TIP3    H228092   1.777   4.506  11.182 -0.0282  0.3754 -0.9735
 2201TIP3   OH228093   5.035   3.682   4.191  0.0080 -0.3882 -0.1130
 2201TIP3    H128094   5.035   3.767   4.146  0.6617  0.7108  1.8255
 2201TIP3    H228095   5.010   3.619   4.124 -2.4795  1.5804 -1.2092
 2202TIP3   OH228096   5.554   2.424  16.164 -0.4599 -0.3099  0.5818
 2202TIP3    H128097   5.572   2.353  16.226  2.5790  1.3083  1.7739
 2202TIP3    H228098   5.633   2.429  16.109 -1.3431  0.9921 -0.6617
 2203TIP3   OH228099   1.581   2.898   5.804  0.0014  0.0645  0.1187
 2203TIP3    H128100   1.626   2.978   5.832 -0.3816 -0.0986  1.2420
 2203TIP3    H228101   1.526   2.875   5.878 -0.8128 -0.5688 -0.6726
 2204TIP3   OH228102   2.816   4.887  10.907 -0.2922 -0.0054 -0.1558
 2204TIP3    H128103   2.898   4.866  10.864 -0.6866  1.2886 -1.6111
 2204TIP3    H228104   2.748   4.858  10.846 -0.8634  2.3901 -0.7765
 2205TIP3   OH228105   3.737   2.900   5.723  0.3003 -0.2800 -0.0553
 2205TIP3    H128106   3.705   2.848   5.796  0.8394 -0.2715  0.1933
 2205TIP3    H228107   3.829   2.875   5.714  0.2359 -0.2932 -0.7409
 2206TIP3   OH228108   5.756   1.341   4.789  0.0009  0.1910  0.0686
 2206TIP3    H128109   5.662   1.339   4.770  0.2858  1.7187 -1.8066
 2206TIP3    H228110   5.797   1.359   4.704  1.7972  2.1852  1.2875
 2207TIP3   OH228111   6.360   2.079  16.298 -0.3929  0.3738  0.4143
 2207TIP3    H128112   6.431   2.034  16.344 -0.8567 -0.6847  0.1240
 2207TIP3    H228113   6.404   2.146  16.246  0.6737 -1.6259 -1.4325
 2208TIP3   OH228114   0.569   1.138  10.565  0.1935  0.0265  0.0179
 2208TIP3    H128115   0.633   1.121  10.496  0.8857  0.1873  0.6097
 2208TIP3    H228116   0.526   1.219  10.539  0.5793  0.1822 -0.1398
 2209TIP3   OH228117   1.727   2.094  12.288 -0.3544  0.5900 -0.3753
 2209TIP3    H128118   1.664   2.025  12.309 -0.0590  0.7876  1.3036
 2209TIP3    H228119   1.760   2.071  12.201 -2.9922  0.7146 -1.4890
 2210TIP3   OH228120   3.444   2.137   1.848 -0.1779  0.6635  0.0678
 2210TIP3    H128121   3.409   2.181   1.925  1.6771  0.6840  0.9327
 2210TIP3    H228122   3.537   2.160   1.846  0.3265 -1.2186 -0.8431
 2211TIP3   OH228123   0.304   0.356   3.979  0.1303 -0.5237  0.3146
 2211TIP3    H128124   0.231   0.296   3.992 -0.3510  0.0976  0.5497
 2211TIP3    H228125   0.352   0.353   4.062 -0.0861 -0.3290  0.4471
 2212TIP3   OH228126   0.388   1.369  13.817 -0.0344  0.3226 -0.6996
 2212TIP3    H128127   0.379   1.459  13.786  0.4201 -0.1894 -2.4988
 2212TIP3    H228128   0.311   1.324  13.782 -0.1377 -0.0441 -0.0144
 2213TIP3   OH228129   3.077   1.919   3.363 -0.7366  0.2201  0.0093
 2213TIP3    H128130   3.039   1.887   3.281  1.7704 -2.3923 -0.2978
 2213TIP3    H228131   3.099   1.840   3.412  2.9806  1.4094  0.6410
 2214TIP3   OH228132   1.537   0.163   4.802 -0.1402  0.2324  0.3121
 2214TIP3    H128133   1.558   0.171   4.895  1.9351 -0.2538 -0.0711
 2214TIP3    H228134   1.503   0.074   4.793  1.5964 -0.4674  0.3102
 2215TIP3   OH228135   5.256   5.746  13.387  0.4668  0.1779 -0.0647
 2215TIP3    H128136   5.303   5.728  13.468 -1.0590  0.3307  0.8990
 2215TIP3    H228137   5.217   5.832  13.400  0.0569  0.1311 -0.8982
 2216TIP3   OH228138   4.657   6.052   0.027  0.1727 -0.2457  0.4135
 2216TIP3    H128139   4.593   6.033  -0.042  0.5690 -0.9244  0.2264
 2216TIP3    H228140   4.661   5.971   0.078 -0.1344  0.2617  1.2529
 2217TIP3   OH228141   2.888   0.995  16.475 -0.0866  0.0358 -0.4192
 2217TIP3    H128142   2.864   0.903  16.485 -0.0710  0.0543 -0.1995
 2217TIP3    H228143   2.971   0.993  16.428 -0.0241 -0.0690 -0.3056
 2218TIP3   OH228144   3.463   0.500   5.400 -0.8137 -0.8286 -0.4696
 2218TIP3    H128145   3.558   0.500   5.414 -0.7938  0.1098 -0.5646
 2218TIP3    H228146   3.433   0.582   5.439 -1.5453 -0.9685 -0.7309
 2219TIP3   OH228147   1.530   2.415   4.106  0.3014  0.1798  0.0519
 2219TIP3    H128148   1.440   2.415   4.074  0.5573  0.3813 -0.6733
 2219TIP3    H228149   1.550   2.507   4.123  0.9512  0.3593 -1.4847
 2220TIP3   OH228150   2.590   0.279  12.795  0.1825  0.5207 -0.5255
 2220TIP3    H128151   2.524   0.271  12.725 -0.5147  1.5465 -0.0057
 2220TIP3    H228152   2.565   0.359  12.842 -0.1991 -0.8920  1.7804
 2221TIP3   OH228153   4.473   2.442   3.355  0.2760  0.0058  0.1489
 2221TIP3    H128154   4.492   2.536   3.348  0.1149  0.1593  1.5595
 2221TIP3    H228155   4.559   2.400   3.352  0.3982  0.2479  0.2124
 2222TIP3   OH228156   4.475   2.997  15.422 -0.4058 -0.1331 -0.1867
 2222TIP3    H128157   4.529   3.051  15.480  1.1060 -0.9090 -0.8120
 2222TIP3    H228158   4.503   2.907  15.439 -0.3089 -0.4220 -1.7106
 2223TIP3   OH228159   2.202   6.199  14.126  0.5765  0.8852 -0.8200
 2223TIP3    H128160   2.164   6.118  14.090 -0.0619  0.5979  0.4568
 2223TIP3    H228161   2.284   6.171  14.166  0.5548  0.9437 -0.7360
 2224TIP3   OH228162   4.146   1.191   1.151 -0.4083  0.2950 -0.0333
 2224TIP3    H128163   4.167   1.278   1.116 -0.7593  0.4986  0.2630
 2224TIP3    H228164   4.210   1.178   1.221 -0.3095  0.2829 -0.1251
 2225TIP3   OH228165   3.844   2.059   3.256  0.1140 -0.2207 -0.4997
 2225TIP3    H128166   3.773   2.071   3.318  0.0980 -0.5060 -0.4628
 2225TIP3    H228167   3.923   2.079   3.306  0.1890 -1.5263 -0.0767
 2226TIP3   OH228168   4.615   2.799  12.175 -0.2102  0.0829 -0.4373
 2226TIP3    H128169   4.710   2.799  12.190  0.1428  2.8855 -1.9817
 2226TIP3    H228170   4.606   2.793  12.080 -1.5375  0.7665 -0.3760
 2227TIP3   OH228171   2.883   1.557  16.035  0.2498  0.2369  0.2344
 2227TIP3    H128172   2.924   1.472  16.052  0.9274  0.2941 -1.0076
 2227TIP3    H228173   2.878   1.599  16.121  4.0906  0.7934  0.3275
 2228TIP3   OH228174   3.826   3.190  13.210  0.2024  0.0308  0.2437
 2228TIP3    H128175   3.790   3.196  13.299 -0.0640  0.9619  0.0839
 2228TIP3    H228176   3.802   3.273  13.169 -0.3005 -0.6757 -0.9379
 2229TIP3   OH228177   2.371   2.997  13.575 -0.3427 -0.4327  0.3420
 2229TIP3    H128178   2.278   2.984  13.593 -0.3712 -1.8797 -0.6826
 2229TIP3    H228179   2.414   2.922  13.615  0.5132  0.6791  1.5757
 2230TIP3   OH228180   1.708   0.270   0.176 -0.1286  0.2276  0.3591
 2230TIP3    H128181   1.684   0.326   0.101  0.9672 -1.5979 -1.4667
 2230TIP3    H228182   1.804   0.278   0.182  0.4057 -3.0022 -1.4369
 2231TIP3   OH228183   1.777   5.189  11.879 -0.4707 -0.5377  0.1538
 2231TIP3    H128184   1.687   5.223  11.880 -0.1793  0.2532 -0.2604
 2231TIP3    H228185   1.826   5.249  11.935 -0.2072 -1.0096  0.4358
 2232TIP3   OH228186   5.413   4.171   0.033  0.2887  0.0245 -0.0245
 2232TIP3    H128187   5.407   4.075   0.023 -1.0377  0.1801 -1.0903
 2232TIP3    H228188   5.390   4.187   0.124  0.8775 -0.7051  0.2597
 2233TIP3   OH228189   1.606   4.034   3.138 -0.9394 -0.7597  0.1996
 2233TIP3    H128190   1.559   3.965   3.092  0.3172 -0.5427 -1.4917
 2233TIP3    H228191   1.679   4.056   3.081 -1.4520  2.1904  0.5138
 2234TIP3   OH228192   4.206   5.551   2.392 -0.0668  0.7253 -0.5324
 2234TIP3    H128193   4.190   5.522   2.482 -0.3479 -0.8515 -1.0613
 2234TIP3    H228194   4.284   5.608   2.399 -1.3807  2.4576  0.9841
 2235TIP3   OH228195   1.507   0.115   3.364 -0.1485  0.0336 -0.2918
 2235TIP3    H128196   1.508   0.098   3.270  0.9164 -1.3187 -0.0732
 2235TIP3    H228197   1.463   0.199   3.373  1.6129  1.2625 -2.1911
 2236TIP3   OH228198   5.723   6.559  13.390 -0.3785 -0.4958  0.3220
 2236TIP3    H128199   5.802   6.605  13.418  0.9673 -0.7235 -2.7355
 2236TIP3    H228200   5.736   6.469  13.421  2.1150 -1.2937 -2.5849
 2237TIP3   OH228201   1.699   1.666   6.051 -0.5202  0.4925 -0.1475
 2237TIP3    H128202   1.739   1.753   6.052 -0.0219  0.2874 -0.7446
 2237TIP3    H228203   1.690   1.642   6.143  0.6964  0.5839  0.0165
 2238TIP3   OH228204   3.377   6.524   6.552 -0.6285 -0.0062  0.2099
 2238TIP3    H128205   3.407   6.438   6.521  0.1729  0.1746  0.4630
 2238TIP3    H228206   3.281   6.521   6.543 -0.6153 -0.9534  0.2924
 2239TIP3   OH228207   6.615   1.075  15.273  0.2634 -0.6541  0.2799
 2239TIP3    H128208   6.637   0.985  15.296 -1.0114 -1.2164 -0.5964
 2239TIP3    H228209   6.541   1.067  15.213  0.2087  0.9771  0.0909
 2240TIP3   OH228210   4.380   3.931   2.074  0.0938 -0.2719  0.1891
 2240TIP3    H128211   4.419   3.891   1.997 -0.1302 -1.1360  0.5210
 2240TIP3    H228212   4.297   3.886   2.086 -0.6498  0.9984 -0.0272
 2241TIP3   OH228213   3.602   2.727  15.864  0.0448  0.4009 -0.0284
 2241TIP3    H128214   3.648   2.809  15.845 -0.5984  0.7679 -0.0466
 2241TIP3    H228215   3.546   2.749  15.939 -1.1396  0.3574 -0.8854
 2242TIP3   OH228216   3.226   5.805  11.024 -0.4381  0.7122 -0.2586
 2242TIP3    H128217   3.197   5.830  10.936  1.0218 -0.9556 -1.3145
 2242TIP3    H228218   3.285   5.731  11.008  2.0529  2.0852  1.9010
 2243TIP3   OH228219   1.667   2.026  14.634 -0.3502 -0.2322  0.1349
 2243TIP3    H128220   1.682   1.938  14.668  0.4485 -0.3981 -0.6098
 2243TIP3    H228221   1.600   2.063  14.691 -1.7542 -1.8323 -0.3981
 2244TIP3   OH228222   5.227   0.758  16.927 -0.3091 -0.4409 -0.1167
 2244TIP3    H128223   5.254   0.773  17.018 -0.4993  0.3989 -0.1866
 2244TIP3    H228224   5.308   0.739  16.881  0.3112  2.4405 -0.4058
 2245TIP3   OH228225   0.914   6.249  13.485 -0.4201 -0.7488 -0.4608
 2245TIP3    H128226   0.975   6.288  13.547  0.6406  0.0627 -1.9760
 2245TIP3    H228227   0.950   6.162  13.467 -0.2607 -0.6545 -0.5954
 2246TIP3   OH228228   6.809   6.632   0.714 -0.4881 -0.0688 -0.0096
 2246TIP3    H128229   6.769   6.635   0.801  0.4488  0.5559  0.4170
 2246TIP3    H228230   6.812   6.723   0.686  1.7367  0.0785  0.5205
 2247TIP3   OH228231   4.903   0.744  12.979 -0.1349  0.1772 -0.0459
 2247TIP3    H128232   4.848   0.821  12.974 -0.5250 -0.1181 -0.3433
 2247TIP3    H228233   4.969   0.766  13.045 -0.5222  0.5829  0.2093
 2248TIP3   OH228234   5.666   4.272   6.042 -0.5202 -0.4873 -0.2973
 2248TIP3    H128235   5.733   4.256   5.977  0.1139 -1.9939  0.6699
 2248TIP3    H228236   5.627   4.356   6.017  1.6350  0.3711 -0.9254
 2249TIP3   OH228237   5.502   5.337   5.692 -0.7713 -0.4786 -0.3498
 2249TIP3    H128238   5.453   5.308   5.614 -0.6210  0.6500 -0.8799
 2249TIP3    H228239   5.516   5.257   5.742 -0.3935 -1.3299 -1.7483
 2250TIP3   OH228240   2.543   3.628  12.784 -0.0658  0.5837 -0.1462
 2250TIP3    H128241   2.528   3.714  12.746 -0.6592  1.4241  1.8581
 2250TIP3    H228242   2.526   3.566  12.712 -1.1875  2.0602 -1.2106
 2251TIP3   OH228243   4.156   5.161  14.745  0.2916  0.1081 -0.3775
 2251TIP3    H128244   4.067   5.174  14.780 -0.1355 -1.3146 -0.8550
 2251TIP3    H228245   4.201   5.244  14.763 -0.2499 -0.1030  2.4821
 2252TIP3   OH228246   4.202   2.852   4.978  0.0398  0.6046 -0.2812
 2252TIP3    H128247   4.279   2.869   5.032  0.4779  0.4767 -0.8606
 2252TIP3    H228248   4.129   2.884   5.031  0.4866  0.7356  0.2702
 2253TIP3   OH228249   4.395   5.175   2.336  0.4560  0.0229  0.5159
 2253TIP3    H128250   4.327   5.138   2.280  0.3573  0.2590  0.4810
 2253TIP3    H228251   4.362   5.163   2.425 -0.4772  1.7792  0.4430
 2254TIP3   OH228252   4.867   3.069  13.102  0.1170  0.2062  0.2596
 2254TIP3    H128253   4.852   3.156  13.138 -0.2693  0.3684 -0.2731
 2254TIP3    H228254   4.913   3.085  13.020 -1.0451  0.0000 -0.4571
 2255TIP3   OH228255   1.540   6.002   0.379 -0.0391  0.6230 -0.4055
 2255TIP3    H128256   1.485   5.971   0.307 -0.5009  1.8948 -0.6326
 2255TIP3    H228257   1.496   5.971   0.458  2.4352 -4.1529 -0.5259
 2256TIP3   OH228258   4.015   6.618  15.178  0.5197  0.6766  0.2739
 2256TIP3    H128259   3.928   6.631  15.141 -0.0078  1.2674  1.6407
 2256TIP3    H228260   4.004   6.547  15.241  0.4622  2.1753  2.0639
 2257TIP3   OH228261   4.002   0.042  13.368  0.2829 -0.2030 -0.0219
 2257TIP3    H128262   3.906   0.051  13.369  0.0486 -1.7158 -1.9239
 2257TIP3    H228263   4.019  -0.037  13.419  0.3796 -0.6675 -0.7588
 2258TIP3   OH228264   4.560   4.783  11.265  0.1599  0.1531 -0.7286
 2258TIP3    H128265   4.474   4.793  11.224  0.6317  1.7898 -1.4155
 2258TIP3    H228266   4.552   4.830  11.349 -0.5117 -2.3657  0.7224
 2259TIP3   OH228267   1.169   5.968   3.724 -0.6211  0.6703  0.4931
 2259TIP3    H128268   1.075   5.957   3.736 -0.3241 -3.0244  0.7760
 2259TIP3    H228269   1.208   5.916   3.795  1.6132  1.3950 -0.1254
 2260TIP3   OH228270   4.472   2.686   2.059 -0.2154  0.1012 -0.7915
 2260TIP3    H128271   4.464   2.620   1.991  1.1794  0.6421 -1.5191
 2260TIP3    H228272   4.503   2.764   2.013 -2.1755  1.4098 -0.0324
 2261TIP3   OH228273   3.995   6.622  15.601 -0.6441  0.0710 -0.3761
 2261TIP3    H128274   4.047   6.546  15.576 -0.5948 -0.8744  2.3387
 2261TIP3    H228275   3.916   6.615  15.547 -0.9496 -2.3257  0.2723
 2262TIP3   OH228276   0.391   5.534  15.106 -0.1334 -0.0759 -0.2891
 2262TIP3    H128277   0.359   5.554  15.195 -0.5066 -1.8353 -0.0028
 2262TIP3    H228278   0.477   5.496  15.120 -0.6440 -1.3690 -0.5899
 2263TIP3   OH228279   1.112   0.971   0.797 -0.0687  0.4507  0.0589
 2263TIP3    H128280   1.186   0.944   0.851  0.8352 -0.1864 -1.4643
 2263TIP3    H228281   1.089   1.059   0.830  0.7221  0.2525  1.1741
 2264TIP3   OH228282   3.688   0.113   1.127 -0.1586  0.6101 -0.3247
 2264TIP3    H128283   3.695   0.110   1.222  0.9048  2.4631 -0.2907
 2264TIP3    H228284   3.778   0.121   1.096 -0.6033  2.5225 -1.3112
 2265TIP3   OH228285   5.451   5.384   0.594 -0.0692  0.0283 -0.3892
 2265TIP3    H128286   5.410   5.298   0.600 -0.0976  0.0809  0.1589
 2265TIP3    H228287   5.450   5.418   0.683  1.4275 -0.0828 -0.3082
 2266TIP3   OH228288   0.853   4.315  14.552 -0.2346 -0.4584 -0.1977
 2266TIP3    H128289   0.853   4.271  14.637  2.1833 -0.9447 -0.3764
 2266TIP3    H228290   0.934   4.365  14.550 -1.0874  0.9891 -1.5502
 2267TIP3   OH228291   3.594   2.119  10.962 -0.2583 -0.1885  0.2746
 2267TIP3    H128292   3.682   2.146  10.988 -0.4842  0.8975 -0.0585
 2267TIP3    H228293   3.579   2.163  10.879 -1.4610  0.3574  0.7637
 2268TIP3   OH228294   2.076   2.765  14.400 -0.4929  0.1384  0.3484
 2268TIP3    H128295   2.081   2.826  14.474  2.0511  0.4697  0.0061
 2268TIP3    H228296   2.032   2.688  14.435 -0.2051  0.6619  1.9467
 2269TIP3   OH228297   3.061   3.804   3.083 -0.6752 -0.2400  0.6816
 2269TIP3    H128298   3.003   3.791   3.158  0.4370 -0.3728  1.5620
 2269TIP3    H228299   3.105   3.720   3.072 -2.5766 -1.0096 -1.7344
 2270TIP3   OH228300   0.852   2.147   2.628  0.1933 -0.5929 -0.1901
 2270TIP3    H128301   0.911   2.191   2.567  1.7008 -0.7999  1.0728
 2270TIP3    H228302   0.909   2.096   2.685 -0.9684  0.8430  2.4463
 2271TIP3   OH228303   2.795   5.486   3.635  0.3281  0.5760  0.0787
 2271TIP3    H128304   2.710   5.456   3.667  0.3623  0.3489 -0.0359
 2271TIP3    H228305   2.812   5.431   3.558 -0.7021  2.4906 -1.6181
 2272TIP3   OH228306   0.651   1.137  12.078 -0.3280  0.3510  0.3035
 2272TIP3    H128307   0.586   1.203  12.055 -1.0108 -0.3999  0.0401
 2272TIP3    H228308   0.620   1.099  12.160  0.8831  1.4121  1.2885
 2273TIP3   OH228309   3.013   0.175   1.094  0.3092  0.8331 -0.5955
 2273TIP3    H128310   3.019   0.123   1.174 -0.0174  2.4412  0.5216
 2273TIP3    H228311   3.078   0.136   1.035 -0.3457 -1.1822 -0.0617
 2274TIP3   OH228312   6.597   0.870  13.050  0.2293 -0.4488 -0.5524
 2274TIP3    H128313   6.664   0.891  13.114 -0.8833 -1.9328  1.2233
 2274TIP3    H228314   6.625   0.913  12.969  1.9745  1.0400  0.7759
 2275TIP3   OH228315   3.201   4.967  14.787  0.1558  0.0014 -0.1341
 2275TIP3    H128316   3.284   5.000  14.824 -1.0163  1.9950  0.9148
 2275TIP3    H228317   3.169   5.038  14.732 -2.1665  0.4937  1.6737
 2276TIP3   OH228318   1.638   5.273  11.456  0.1245 -0.6697  0.1541
 2276TIP3    H128319   1.671   5.361  11.439 -0.3900 -0.4511  0.2470
 2276TIP3    H228320   1.703   5.234  11.515 -0.5700  0.3263  1.6583
 2277TIP3   OH228321   1.681   0.977   3.205  0.3206 -0.1089  0.2080
 2277TIP3    H128322   1.636   1.060   3.218  2.1557  0.6405  2.5178
 2277TIP3    H228323   1.737   0.991   3.129  2.4029  1.7212  1.9403
 2278TIP3   OH228324   0.320   4.492  12.202  0.0847  0.0015  0.0494
 2278TIP3    H128325   0.318   4.399  12.221  0.0873  0.2247  1.1846
 2278TIP3    H228326   0.282   4.534  12.279  1.0353  0.9968  0.0013
 2279TIP3   OH228327   1.053   0.921   5.110  0.0073 -0.4373  0.0833
 2279TIP3    H128328   1.001   0.893   5.185 -0.0172 -0.4060  0.0781
 2279TIP3    H228329   1.025   0.864   5.039  2.1648 -2.5360  0.7922
 2280TIP3   OH228330   1.442   5.093   6.498  0.0577 -0.3972 -0.3467
 2280TIP3    H128331   1.530   5.107   6.464 -0.1308 -0.3910 -0.8378
 2280TIP3    H228332   1.396   5.045   6.429 -0.3312 -0.3856 -0.1031
 2281TIP3   OH228333   0.580   5.342  14.435  0.4838  0.0523  0.6957
 2281TIP3    H128334   0.620   5.287  14.502  0.8805  0.4009  0.7512
 2281TIP3    H228335   0.493   5.362  14.470 -0.2424 -1.7325 -0.0073
 2282TIP3   OH228336   4.243   5.075  12.108  0.5691  1.1578 -0.4263
 2282TIP3    H128337   4.224   5.081  12.014 -0.2596  0.5468 -0.3006
 2282TIP3    H228338   4.176   5.129  12.150 -0.1587  0.0121 -0.0726
 2283TIP3   OH228339   0.456   3.187   4.107 -0.1783 -0.1446 -0.8289
 2283TIP3    H128340   0.524   3.171   4.041  2.7069 -0.9113  2.0729
 2283TIP3    H228341   0.483   3.135   4.183 -1.6190  2.9037  2.0312
 2284TIP3   OH228342   2.010   0.865   5.073 -0.6285  0.0432  0.3622
 2284TIP3    H128343   1.926   0.879   5.028 -0.9310 -1.0617  0.5605
 2284TIP3    H228344   1.986   0.836   5.161 -0.0684  3.3791  1.7793
 2285TIP3   OH228345   5.355   4.848  11.154 -0.2494 -0.1651  0.1195
 2285TIP3    H128346   5.383   4.756  11.159 -1.6713 -0.7248 -1.2686
 2285TIP3    H228347   5.436   4.896  11.136  0.6072 -1.0591  1.3682
 2286TIP3   OH228348   4.583   1.526  13.615  0.4776 -0.0023  0.3174
 2286TIP3    H128349   4.577   1.569  13.700  0.1572 -1.3074  0.9867
 2286TIP3    H228350   4.672   1.491  13.612  0.6726  0.5207 -0.1347
 2287TIP3   OH228351   5.256   5.452   1.362  0.3051  0.4633 -0.5453
 2287TIP3    H128352   5.323   5.476   1.425  0.1816 -0.4645 -0.0346
 2287TIP3    H228353   5.255   5.523   1.298  0.9332  1.0629  0.1032
 2288TIP3   OH228354   5.096   1.557  14.134  0.4698 -0.0179 -0.3150
 2288TIP3    H128355   5.048   1.613  14.073  0.8606 -0.7813 -1.3525
 2288TIP3    H228356   5.100   1.608  14.215 -1.1504  0.5032 -0.5168
 2289TIP3   OH228357   4.648   1.242  15.189 -0.1063 -0.1525  0.5027
 2289TIP3    H128358   4.575   1.262  15.248 -1.2635 -0.0211 -0.9121
 2289TIP3    H228359   4.613   1.259  15.102  1.9237  0.8103 -0.1818
 2290TIP3   OH228360   6.717   2.570  14.169  0.1232 -0.5706 -0.0714
 2290TIP3    H128361   6.642   2.527  14.209 -0.9736  1.4883  0.2525
 2290TIP3    H228362   6.790   2.509  14.182 -0.9424 -1.5228  1.8864
 2291TIP3   OH228363   2.676   3.985   3.293  0.6189 -0.0831  0.2070
 2291TIP3    H128364   2.634   3.899   3.286  1.2138 -0.3068 -0.8536
 2291TIP3    H228365   2.657   4.028   3.209  2.2477 -0.0841 -0.1993
 2292TIP3   OH228366   0.905   5.946   4.414 -0.2889 -0.5335 -0.4294
 2292TIP3    H128367   0.980   5.886   4.419 -0.6507 -1.0452 -1.0510
 2292TIP3    H228368   0.832   5.896   4.449 -1.0714 -1.2630 -2.9224
 2293TIP3   OH228369   1.096   3.500  16.869 -0.2304  0.3966  0.5986
 2293TIP3    H128370   1.097   3.547  16.786 -2.4326  0.5377  0.6032
 2293TIP3    H228371   1.111   3.568  16.935  0.6506  0.4181  0.3918
 2294TIP3   OH228372   2.210   0.549  14.521 -0.1723 -0.3213 -0.3274
 2294TIP3    H128373   2.238   0.639  14.506 -0.7530 -0.2627 -1.0832
 2294TIP3    H228374   2.287   0.496  14.499 -0.0578 -0.0530 -0.5662
 2295TIP3   OH228375   2.880   5.925  16.904  0.3547  0.1301  0.1687
 2295TIP3    H128376   2.838   6.009  16.888  0.7860  0.0134 -1.8348
 2295TIP3    H228377   2.951   5.946  16.965 -0.2745  0.9833  0.6357
 2296TIP3   OH228378   2.448   1.043   5.802  0.2208  0.0407  0.6214
 2296TIP3    H128379   2.379   0.982   5.830 -0.4653 -0.1252 -1.3090
 2296TIP3    H228380   2.450   1.109   5.871 -1.3678 -0.3447  1.0802
 2297TIP3   OH228381   4.537   2.843   3.080  0.4649  0.4898 -0.4583
 2297TIP3    H128382   4.477   2.908   3.116 -0.6123 -0.0250 -1.2670
 2297TIP3    H228383   4.624   2.874   3.105  0.0050  2.3652 -1.0300
 2298TIP3   OH228384   3.589   4.800  16.174 -0.1603 -0.3856  0.3137
 2298TIP3    H128385   3.583   4.893  16.195 -0.2173 -0.1982 -0.4744
 2298TIP3    H228386   3.535   4.790  16.095 -1.5008 -1.3996  1.3172
 2299TIP3   OH228387   4.807   4.857  14.157  0.2204 -0.2183  0.1109
 2299TIP3    H128388   4.846   4.770  14.159  1.4138  0.3201  1.4352
 2299TIP3    H228389   4.715   4.843  14.182  0.4930 -1.0527  0.6801
 2300TIP3   OH228390   1.289   1.346   0.670 -0.4318  0.3983 -0.5207
 2300TIP3    H128391   1.203   1.362   0.710 -0.4717  0.8581 -0.7831
 2300TIP3    H228392   1.283   1.256   0.637  0.0356 -0.4445  1.5762
 2301TIP3   OH228393   5.535   0.142   5.619 -0.0274 -0.2712 -0.5709
 2301TIP3    H128394   5.527   0.194   5.699  1.7002 -0.2938 -0.3434
 2301TIP3    H228395   5.607   0.184   5.571 -0.9156 -0.3699 -2.0350
 2302TIP3   OH228396   2.625   6.650   3.443 -0.3473  0.1444  0.0497
 2302TIP3    H128397   2.580   6.728   3.473  0.4606  0.8971 -0.6330
 2302TIP3    H228398   2.555   6.588   3.423 -0.9526 -0.3039  3.0807
 2303TIP3   OH228399   0.904   4.831   2.428  0.1758 -0.1940 -0.4581
 2303TIP3    H128400   0.956   4.859   2.504  0.0778  1.3599 -0.9508
 2303TIP3    H228401   0.814   4.831   2.460  0.1328  0.4754 -0.5806
 2304TIP3   OH228402   1.659   0.360  15.037  0.3658 -0.0454  0.0526
 2304TIP3    H128403   1.593   0.391  15.098 -0.2855 -1.2077 -0.0251
 2304TIP3    H228404   1.742   0.377  15.080  0.0047  1.0428  0.3414
 2305TIP3   OH228405   5.893   1.070   3.724  0.2267  0.2126 -0.2686
 2305TIP3    H128406   5.815   1.120   3.700 -0.6291 -1.1464 -0.4004
 2305TIP3    H228407   5.920   1.106   3.808 -0.1197  1.1619 -0.5507
 2306TIP3   OH228408   5.668   3.063  14.774  0.0073  1.0423  0.0833
 2306TIP3    H128409   5.676   2.983  14.723 -0.4754  1.2698 -0.3656
 2306TIP3    H228410   5.590   3.106  14.738 -0.3361  1.2080  1.0113
 2307TIP3   OH228411   4.687   1.110  11.897  0.3422 -0.4955  0.6272
 2307TIP3    H128412   4.688   1.200  11.932  1.7951  0.4877 -1.6931
 2307TIP3    H228413   4.656   1.120  11.807  0.7162 -2.3145  0.2638
 2308TIP3   OH228414   3.262   6.611  13.233 -0.6798 -0.4945  0.0989
 2308TIP3    H128415   3.266   6.541  13.168  1.6498  1.0197 -1.5512
 2308TIP3    H228416   3.309   6.578  13.309  0.3610 -0.7633 -0.6496
 2309TIP3   OH228417   0.872   2.869   1.024 -0.0488  0.7219  0.3806
 2309TIP3    H128418   0.926   2.791   1.016  0.7733  1.0404  2.2043
 2309TIP3    H228419   0.931   2.941   1.002  0.6328  1.1406  3.1861
 2310TIP3   OH228420   2.594   5.816   1.552 -0.5231  0.1277  0.0349
 2310TIP3    H128421   2.686   5.797   1.535 -0.3183 -2.1135  2.8449
 2310TIP3    H228422   2.595   5.877   1.625 -1.2724 -0.2097  0.3338
 2311TIP3   OH228423   0.677   1.622   3.898  0.1878 -0.6336  0.0966
 2311TIP3    H128424   0.712   1.548   3.848  1.8157  0.7803 -0.9634
 2311TIP3    H228425   0.736   1.630   3.973 -1.1503 -1.5716  1.3211
 2312TIP3   OH228426   2.502   0.482  11.364 -0.1534  0.7999 -0.2774
 2312TIP3    H128427   2.545   0.414  11.416  0.1002  0.9476 -0.2916
 2312TIP3    H228428   2.408   0.462  11.370 -0.1080  0.6871  0.0493
 2313TIP3   OH228429   6.062   2.818   3.759  0.2768  0.2170 -0.2255
 2313TIP3    H128430   6.143   2.837   3.807  0.6204 -0.6224 -0.4547
 2313TIP3    H228431   6.012   2.761   3.818  0.4944 -0.4356 -0.6561
 2314TIP3   OH228432   5.208   2.515  11.151  0.0849  0.5775 -0.2792
 2314TIP3    H128433   5.174   2.590  11.199 -1.9679  0.2209 -1.0767
 2314TIP3    H228434   5.174   2.525  11.062  2.7469  0.5488 -1.3895
 2315TIP3   OH228435   3.072   4.291  15.994 -0.2294 -0.3048 -0.3629
 2315TIP3    H128436   3.143   4.272  16.055 -0.3201 -0.3673 -0.2784
 2315TIP3    H228437   3.089   4.233  15.920 -1.4865 -2.0153  0.6290
 2316TIP3   OH228438   2.385   0.799   2.774  0.1828  0.3543 -0.1108
 2316TIP3    H128439   2.391   0.822   2.681 -0.2136 -1.0388 -0.5080
 2316TIP3    H228440   2.469   0.755   2.793 -0.0674 -0.1001 -0.0382
 2317TIP3   OH228441   6.594   6.229   2.367 -0.6808  0.5512 -0.4493
 2317TIP3    H128442   6.514   6.218   2.417 -0.8593  2.7051 -0.1601
 2317TIP3    H228443   6.658   6.173   2.411 -0.8835  2.1649  2.1187
 2318TIP3   OH228444   5.145   1.117   4.818  0.1054  0.1981  0.2797
 2318TIP3    H128445   5.228   1.160   4.795 -0.2351  1.4329  1.2460
 2318TIP3    H228446   5.081   1.153   4.757 -0.2701  1.4670  1.3751
 2319TIP3   OH228447   4.150   4.717   5.200 -0.0407 -0.5786 -0.3692
 2319TIP3    H128448   4.225   4.685   5.149 -0.6415 -1.5371 -0.6705
 2319TIP3    H228449   4.074   4.677   5.159 -0.8357  1.1975 -0.7013
 2320TIP3   OH228450   5.382   6.280  11.884  0.0745 -0.2129  0.1074
 2320TIP3    H128451   5.323   6.249  11.815  0.5189  0.1713 -0.4599
 2320TIP3    H228452   5.324   6.309  11.954 -0.4544  0.8949 -0.7547
 2321TIP3   OH228453   3.983   3.736   3.767 -0.0055 -0.6579 -0.1232
 2321TIP3    H128454   4.034   3.690   3.834  0.7794  0.5869  0.1697
 2321TIP3    H228455   3.906   3.769   3.813 -0.0110 -0.7311 -0.0808
 2322TIP3   OH228456   3.421   6.132  11.139  0.3163 -0.4855 -0.1111
 2322TIP3    H128457   3.393   6.053  11.185 -0.7929  0.2702  0.5626
 2322TIP3    H228458   3.339   6.173  11.109  0.8913  0.2360 -0.7352
 2323TIP3   OH228459   4.062   6.533  11.206  0.6166 -0.3890 -0.1605
 2323TIP3    H128460   4.132   6.500  11.261 -1.1526 -2.2377  1.1215
 2323TIP3    H228461   4.000   6.573  11.268  0.1749  0.5621 -1.1769
 2324TIP3   OH228462   1.854   3.782  10.941  0.0282 -1.0638 -0.0479
 2324TIP3    H128463   1.773   3.791  10.889 -0.6041 -1.6203  0.8255
 2324TIP3    H228464   1.829   3.727  11.015  1.2952 -1.4899  0.0789
 2325TIP3   OH228465   4.315   2.253   3.106 -0.6944  0.3890 -0.2947
 2325TIP3    H128466   4.296   2.248   3.013  1.0942 -0.4723 -0.6588
 2325TIP3    H228467   4.239   2.296   3.144 -1.5119  0.6418 -2.1245
 2326TIP3   OH228468   0.668   0.806   3.866 -0.5053  0.0504 -0.5220
 2326TIP3    H128469   0.684   0.860   3.944 -0.8398 -0.4431 -0.1049
 2326TIP3    H228470   0.595   0.750   3.891 -0.8612  0.1453 -1.3289
 2327TIP3   OH228471   0.681   6.476   0.079  0.2316  0.3280 -0.0136
 2327TIP3    H128472   0.594   6.471   0.119 -0.1010  0.2273 -0.7290
 2327TIP3    H228473   0.720   6.554   0.117  1.1048 -1.2999  2.7507
 2328TIP3   OH228474   0.780   2.447  13.408  0.3437  0.2034 -0.0113
 2328TIP3    H128475   0.726   2.524  13.390  0.4204  0.2477 -0.0522
 2328TIP3    H228476   0.809   2.459  13.499 -0.9333 -0.5568  0.5188
 2329TIP3   OH228477   5.666   5.592  14.854 -0.8133  0.9645  0.7349
 2329TIP3    H128478   5.594   5.574  14.793  0.7023  2.2313 -1.5898
 2329TIP3    H228479   5.739   5.540  14.821 -0.3849  0.3247  2.5768
 2330TIP3   OH228480   3.650   6.319  14.869 -0.4992 -0.9048  0.1480
 2330TIP3    H128481   3.644   6.356  14.781  0.0931 -0.5506  0.2483
 2330TIP3    H228482   3.641   6.394  14.928 -0.4186 -1.0730  0.3771
 2331TIP3   OH228483   5.060   2.425  14.816 -0.4920  0.4542 -0.7060
 2331TIP3    H128484   5.148   2.419  14.853 -0.5338 -0.7594 -0.7652
 2331TIP3    H228485   5.053   2.349  14.760 -0.9122  1.5582 -2.2092
 2332TIP3   OH228486   3.103   6.628   6.055  0.4368  0.4869  0.6393
 2332TIP3    H128487   3.014   6.639   6.020  0.4682 -1.4461 -0.1417
 2332TIP3    H228488   3.091   6.629   6.150 -0.1926  1.7633  0.5704
 2333TIP3   OH228489   2.473   1.827  16.637  0.1052  0.1553 -0.2263
 2333TIP3    H128490   2.495   1.740  16.603 -1.3166 -1.2092  2.0625
 2333TIP3    H228491   2.397   1.854  16.586  0.7309  0.2264 -1.1556
 2334TIP3   OH228492   2.205   4.495   0.697  0.2783  0.1101  0.5131
 2334TIP3    H128493   2.277   4.437   0.672 -0.4420 -0.7502  0.3894
 2334TIP3    H228494   2.169   4.527   0.615 -0.3308 -0.5315  0.5223
 2335TIP3   OH228495   4.188   5.374  12.782  0.0809 -0.1333 -0.0267
 2335TIP3    H128496   4.263   5.397  12.836  0.0232  2.0292 -0.7733
 2335TIP3    H228497   4.226   5.342  12.700  0.1864 -0.1461  0.0278
 2336TIP3   OH228498   6.760   4.884  12.757  0.4785  0.1860  1.1626
 2336TIP3    H128499   6.844   4.924  12.781  1.2133 -0.9128  0.5203
 2336TIP3    H228500   6.694   4.944  12.792  1.4427  3.3106 -1.7867
 2337TIP3   OH228501   4.935   5.632   3.397 -0.0348 -0.3000  0.1669
 2337TIP3    H128502   4.915   5.645   3.304  2.3013 -1.4506 -0.5829
 2337TIP3    H228503   5.030   5.647   3.403 -0.1823  0.0162  2.4346
 2338TIP3   OH228504   6.804   2.978   0.980  0.3332  0.7403 -0.2640
 2338TIP3    H128505   6.732   2.916   0.968  0.0793  1.3935 -3.0051
 2338TIP3    H228506   6.843   2.956   1.064 -1.1521 -1.6359 -0.1285
 2339TIP3   OH228507   2.886   2.835  16.951 -0.0253  0.5017  0.6632
 2339TIP3    H128508   2.813   2.831  17.013 -0.2294  0.3930  0.4194
 2339TIP3    H228509   2.900   2.928  16.935 -1.8394  0.5024 -1.3063
 2340TIP3   OH228510   3.414   0.099   1.541 -0.0915 -0.3742  0.0901
 2340TIP3    H128511   3.496   0.092   1.589 -1.1076  0.2742  1.9991
 2340TIP3    H228512   3.364   0.022   1.566  0.0297 -0.9670 -1.3617
 2341TIP3   OH228513   0.009   6.661  14.974  0.5257 -0.0900 -0.0363
 2341TIP3    H128514   0.068   6.600  14.929  0.6925  1.9243 -2.7853
 2341TIP3    H228515  -0.078   6.637  14.943  0.4995  0.4490 -0.3943
 2342TIP3   OH228516   2.264   3.878   0.960  0.2833 -0.9576  0.5747
 2342TIP3    H128517   2.314   3.912   1.034 -0.1531  0.6591  0.1709
 2342TIP3    H228518   2.329   3.836   0.904  1.1688  0.7295  0.2742
 2343TIP3   OH228519   3.854   3.809  15.377 -0.4069  0.0143  0.6495
 2343TIP3    H128520   3.900   3.882  15.418  1.4432 -0.1441 -1.0027
 2343TIP3    H228521   3.921   3.742  15.365 -1.2706 -0.6101 -0.9611
 2344TIP3   OH228522   4.821   0.299  15.820 -0.0214  0.1412  0.2213
 2344TIP3    H128523   4.746   0.265  15.772 -0.9057  1.7960  0.3630
 2344TIP3    H228524   4.851   0.373  15.767  1.2693 -0.2487  0.3793
 2345TIP3   OH228525   4.188   5.638  15.217  0.4182 -0.3526  0.7889
 2345TIP3    H128526   4.137   5.701  15.166  1.4426  0.1325  0.3447
 2345TIP3    H228527   4.230   5.582  15.151  0.1779 -0.9802  1.1612
 2346TIP3   OH228528   1.462   6.705  11.657  0.0907 -0.3780 -0.0901
 2346TIP3    H128529   1.533   6.640  11.653 -1.5583 -2.4177  1.4217
 2346TIP3    H228530   1.431   6.701  11.747 -0.6207  2.0173 -0.1631
 2347TIP3   OH228531   1.234   0.566  14.645 -0.3348 -0.9190 -0.1844
 2347TIP3    H128532   1.165   0.500  14.651 -2.4862  1.0960 -1.2306
 2347TIP3    H228533   1.213   0.630  14.713  0.1887  0.0042 -0.8604
 2348TIP3   OH228534   6.348   4.626  14.902 -0.2528 -0.1045 -0.3332
 2348TIP3    H128535   6.280   4.657  14.962 -0.4630  0.5903 -0.9127
 2348TIP3    H228536   6.403   4.703  14.886 -0.0322 -0.3509 -0.7979
 2349TIP3   OH228537   5.772   1.087  14.851 -0.1857 -0.0369  0.0888
 2349TIP3    H128538   5.862   1.113  14.830 -0.3385 -0.2019 -0.8454
 2349TIP3    H228539   5.770   1.080  14.946  0.4152  1.3758  0.2393
 2350TIP3   OH228540   3.612   5.206   3.484 -0.6954  0.7498 -0.6870
 2350TIP3    H128541   3.627   5.116   3.512  0.8128  0.6760 -1.6182
 2350TIP3    H228542   3.556   5.199   3.407 -3.7773  0.8845  1.3640
 2351TIP3   OH228543   3.082   3.680  11.532 -0.1695  0.0599  0.2607
 2351TIP3    H128544   3.138   3.710  11.461  0.5423 -1.0136  0.3396
 2351TIP3    H228545   3.140   3.678  11.609 -0.6369  0.1336  0.6169
 2352TIP3   OH228546   1.440   5.763  11.989  0.2131 -0.1569  0.7222
 2352TIP3    H128547   1.425   5.726  12.076  1.1971  0.0351  0.9793
 2352TIP3    H228548   1.534   5.753  11.974 -0.1180 -1.2466 -0.8124
 2353TIP3   OH228549   2.444   5.359   0.488 -0.2961  0.1893 -0.2200
 2353TIP3    H128550   2.369   5.301   0.501 -0.1661 -0.0517 -0.5247
 2353TIP3    H228551   2.494   5.317   0.418 -0.4627  0.9264 -0.7888
 2354TIP3   OH228552   6.782   5.312  12.508 -0.0312 -0.0086  0.3978
 2354TIP3    H128553   6.710   5.371  12.531 -0.2775  0.5701 -1.6521
 2354TIP3    H228554   6.829   5.299  12.591 -1.8955  0.3835  1.5874
 2355TIP3   OH228555   5.870   3.096  13.667  0.1048  0.2799 -0.1134
 2355TIP3    H128556   5.796   3.045  13.699  0.0738 -0.1106 -0.7861
 2355TIP3    H228557   5.831   3.175  13.632 -0.1729 -0.5643 -1.8149
 2356TIP3   OH228558   5.665   2.884   2.066 -0.0786 -0.3384 -0.1890
 2356TIP3    H128559   5.594   2.846   2.118  0.6940 -1.6088 -0.0026
 2356TIP3    H228560   5.739   2.886   2.127  0.4433 -0.4538 -0.8158
 2357TIP3   OH228561   4.074   0.439  15.013  0.6073  0.6996 -1.0931
 2357TIP3    H128562   4.157   0.404  14.982  0.9091  0.9383 -0.5668
 2357TIP3    H228563   4.068   0.526  14.972  0.5418  0.6152 -1.2607
 2358TIP3   OH228564   0.254   2.890   3.551 -0.5030  0.4421 -0.0826
 2358TIP3    H128565   0.295   2.935   3.476  1.6829 -0.3492  0.5461
 2358TIP3    H228566   0.171   2.936   3.564  0.2747  2.3485 -1.2998
 2359TIP3   OH228567   6.174   5.596   0.702 -0.0565  0.1585  0.3120
 2359TIP3    H128568   6.209   5.594   0.791  0.1441  2.2265  0.3357
 2359TIP3    H228569   6.124   5.515   0.694  2.2980 -1.5119  1.2741
 2360TIP3   OH228570   3.408   0.869   4.316  0.2996  0.2603 -0.0130
 2360TIP3    H128571   3.430   0.910   4.400 -1.3692  3.2329 -0.8989
 2360TIP3    H228572   3.313   0.866   4.315  0.2887  0.2926 -1.8275
 2361TIP3   OH228573   2.207   4.359   4.540  0.0266 -0.1000 -0.2845
 2361TIP3    H128574   2.278   4.375   4.601  1.4739  0.7695 -2.0891
 2361TIP3    H228575   2.149   4.435   4.552 -0.0468 -0.2594  0.4302
 2362TIP3   OH228576   1.642   1.471  13.990 -0.0874  0.2804 -0.0342
 2362TIP3    H128577   1.725   1.488  14.035 -0.1554  0.9501 -0.1490
 2362TIP3    H228578   1.627   1.377  14.001  1.1685 -0.0319 -0.8526
 2363TIP3   OH228579   2.431   2.816   2.318  0.0768  0.0368 -0.2201
 2363TIP3    H128580   2.399   2.741   2.368 -0.6911 -0.3454 -1.2555
 2363TIP3    H228581   2.357   2.841   2.262 -0.0223  2.1783  0.7571
 2364TIP3   OH228582   5.225   4.092  16.432 -0.2263  0.1332  0.5498
 2364TIP3    H128583   5.131   4.109  16.425 -0.4510 -0.5637  1.6393
 2364TIP3    H228584   5.266   4.169  16.392 -1.2402  1.6263  2.1995
 2365TIP3   OH228585   3.445   3.769   6.414 -0.0276  0.4763  0.3943
 2365TIP3    H128586   3.507   3.730   6.476  0.1429  0.1412  0.0173
 2365TIP3    H228587   3.471   3.861   6.410  0.0484  0.4724  0.7100
 2366TIP3   OH228588   1.061   6.536  15.705  0.1571  0.4514  0.0428
 2366TIP3    H128589   1.086   6.594  15.633 -2.2722  0.7912 -0.5986
 2366TIP3    H228590   1.140   6.530  15.759  0.8722  3.3268 -0.5294
 2367TIP3   OH228591   4.876   2.047  16.630 -0.0828 -0.1246 -0.4708
 2367TIP3    H128592   4.926   2.072  16.552  0.2353 -0.9747 -0.5501
 2367TIP3    H228593   4.907   2.106  16.698 -0.3082  0.5749 -0.9637
 2368TIP3   OH228594   3.570   2.494   5.213 -0.2131  0.0887 -0.5380
 2368TIP3    H128595   3.563   2.587   5.234  0.1857  0.0326 -0.1344
 2368TIP3    H228596   3.496   2.453   5.258  0.4179  0.0210  0.4730
 2369TIP3   OH228597   2.078   0.416  12.648 -0.0981  0.1889  1.0494
 2369TIP3    H128598   2.057   0.368  12.568  0.1840 -1.3536  1.8583
 2369TIP3    H228599   2.174   0.421  12.647 -0.1661  1.9695  0.3096
 2370TIP3   OH228600   6.012   4.355   0.539 -0.2955 -0.6037 -0.4200
 2370TIP3    H128601   6.069   4.333   0.465  1.7818  1.8130  0.3090
 2370TIP3    H228602   6.009   4.275   0.592  1.7457 -1.1009 -0.9578
 2371TIP3   OH228603   2.470   2.206  12.053  1.0648 -0.1412 -0.0402
 2371TIP3    H128604   2.470   2.233  12.144 -0.1793 -0.2503  0.0002
 2371TIP3    H228605   2.507   2.118  12.053  0.3504 -0.4461  0.4616
 2372TIP3   OH228606   0.775   0.718   0.992  0.5074  0.0106 -0.4798
 2372TIP3    H128607   0.810   0.740   0.906 -1.8952  0.9731 -1.2981
 2372TIP3    H228608   0.852   0.712   1.048  2.0856  0.1926 -2.4979
 2373TIP3   OH228609   4.845   3.990  11.606  0.0714  0.7427  0.8100
 2373TIP3    H128610   4.859   4.073  11.560 -0.3389  0.2169 -0.3032
 2373TIP3    H228611   4.875   4.007  11.695  1.0908  1.7381  0.3099
 2374TIP3   OH228612   5.174   1.086  16.164  0.4377  0.0669 -0.3106
 2374TIP3    H128613   5.127   1.020  16.215 -2.8186  1.8189 -0.7564
 2374TIP3    H228614   5.232   1.128  16.227  1.4686 -2.1747  0.3096
 2375TIP3   OH228615   0.105   4.753   1.964  0.1345 -0.5156 -0.0949
 2375TIP3    H128616   0.198   4.736   1.980  0.7293  2.5892  0.2766
 2375TIP3    H228617   0.104   4.815   1.891 -1.5241  0.8804  1.0284
 2376TIP3   OH228618   3.278   3.087   4.505  0.6304  0.0558 -0.3104
 2376TIP3    H128619   3.257   3.102   4.413  2.5007 -0.3800 -0.8465
 2376TIP3    H228620   3.373   3.085   4.508  0.6245 -2.5701  1.1646
 2377TIP3   OH228621   6.769   0.194   0.334 -0.5131 -0.1059  0.5669
 2377TIP3    H128622   6.680   0.195   0.297  0.2803  0.2250 -1.4634
 2377TIP3    H228623   6.790   0.286   0.347  0.4542  0.0147 -1.4574
 2378TIP3   OH228624   4.403   4.734  14.162  0.1480  0.0742  0.0986
 2378TIP3    H128625   4.314   4.758  14.136 -0.0581  0.5369  1.1619
 2378TIP3    H228626   4.394   4.702  14.251  0.5234 -3.4557 -0.9704
 2379TIP3   OH228627   4.113   3.714  12.461  0.0090  0.1232  0.1820
 2379TIP3    H128628   4.060   3.780  12.507  0.9556  1.5720 -0.7378
 2379TIP3    H228629   4.187   3.698  12.520  0.4989  0.9459 -0.1890
 2380TIP3   OH228630   4.266   0.684   5.000 -0.0291  0.3032  0.1513
 2380TIP3    H128631   4.266   0.621   4.928 -2.4470  1.5082 -1.0095
 2380TIP3    H228632   4.350   0.670   5.044  0.5973 -1.9519 -1.5746
 2381TIP3   OH228633   2.024   1.345  12.522 -0.2105  0.4979  0.6708
 2381TIP3    H128634   2.080   1.346  12.444 -0.4756  0.3118  0.4733
 2381TIP3    H228635   1.935   1.341  12.486 -0.2973 -1.2198  0.9875
 2382TIP3   OH228636   1.333   1.812   2.857 -0.7733 -0.3080  0.2867
 2382TIP3    H128637   1.388   1.872   2.907 -1.2093  0.8036 -0.5375
 2382TIP3    H228638   1.245   1.826   2.893 -0.8284 -0.7054  0.3123
 2383TIP3   OH228639   6.211   2.152   1.848  0.5377 -0.9246 -0.3541
 2383TIP3    H128640   6.157   2.075   1.865  0.3407 -0.4320  1.4684
 2383TIP3    H228641   6.183   2.216   1.913  0.9030  0.6090 -1.6274
 2384TIP3   OH228642   6.081   6.247   0.698  0.1585  0.2567 -0.7660
 2384TIP3    H128643   6.101   6.226   0.607  0.0252  1.6507 -1.1506
 2384TIP3    H228644   6.145   6.198   0.750 -1.3370 -2.5701 -1.4179
 2385TIP3   OH228645   1.394   0.716  13.561 -0.0135 -0.9200  0.0198
 2385TIP3    H128646   1.446   0.637  13.547  0.1634 -0.7152 -0.5253
 2385TIP3    H228647   1.433   0.780  13.502  1.4899  0.3741  2.2569
 2386TIP3   OH228648   4.588   6.769  13.060 -0.2259 -0.2802  0.7026
 2386TIP3    H128649   4.658   6.719  13.103 -0.6484  0.9942  3.0212
 2386TIP3    H228650   4.528   6.703  13.027  1.1382 -1.3602  0.2819
 2387TIP3   OH228651   5.190   5.460  15.678 -0.4465  0.1529  0.0804
 2387TIP3    H128652   5.209   5.387  15.620  0.7967  1.6098 -1.4530
 2387TIP3    H228653   5.227   5.537  15.633  0.1982  1.4283  2.6057
 2388TIP3   OH228654   4.672   0.655   5.405 -0.1376  0.3964  0.5578
 2388TIP3    H128655   4.666   0.614   5.319  0.5846  1.0721  0.1714
 2388TIP3    H228656   4.728   0.597   5.456  1.7740  1.3953 -0.3160
 2389TIP3   OH228657   0.296   1.573   0.096  0.1750 -0.5178 -0.0299
 2389TIP3    H128658   0.240   1.564   0.019  0.1669 -2.1439  0.1357
 2389TIP3    H228659   0.366   1.633   0.068 -0.2013 -0.5538 -1.0734
 2390TIP3   OH228660   2.769   1.177   0.044 -0.1226  0.0959  0.0412
 2390TIP3    H128661   2.743   1.268   0.056  0.3954  0.1531  0.8446
 2390TIP3    H228662   2.717   1.146  -0.030  1.1670  1.6116 -1.5560
 2391TIP3   OH228663   0.878   0.357   5.857 -0.0700  0.2691 -0.6621
 2391TIP3    H128664   0.854   0.265   5.868 -1.4186  0.6486 -0.2602
 2391TIP3    H228665   0.973   0.359   5.871 -0.0146 -1.0571 -0.7243
 2392TIP3   OH228666   1.075   2.451   6.410  0.1467  0.7275 -0.3047
 2392TIP3    H128667   1.106   2.537   6.382  0.0574  0.7421 -0.3596
 2392TIP3    H228668   1.126   2.389   6.358  1.9593  0.6504  1.4118
 2393TIP3   OH228669   2.078   1.298   1.546  0.2484 -0.5135 -0.2852
 2393TIP3    H128670   2.027   1.221   1.520  0.0050 -0.4260 -0.0797
 2393TIP3    H228671   2.013   1.367   1.557  0.1739 -0.8280  1.6211
 2394TIP3   OH228672   6.331   0.767  15.296  0.0266  0.5534 -0.1109
 2394TIP3    H128673   6.374   0.768  15.210 -0.0073 -0.0532 -0.1385
 2394TIP3    H228674   6.402   0.758  15.359 -0.0836 -1.2671 -0.1950
 2395TIP3   OH228675   4.987   4.597   2.667  0.2797  0.7343  0.2160
 2395TIP3    H128676   5.001   4.531   2.735  1.1116 -1.0767 -1.5834
 2395TIP3    H228677   5.074   4.631   2.648 -0.0872  2.0297  0.7762
 2396TIP3   OH228678   2.601   5.980  11.877  0.3266  0.3648 -0.2931
 2396TIP3    H128679   2.605   6.013  11.967  1.0910 -1.3377  0.3607
 2396TIP3    H228680   2.691   5.990  11.845  0.1905  0.4120 -0.6616
 2397TIP3   OH228681   6.665   0.257   0.817 -0.2849 -0.0407  0.0764
 2397TIP3    H128682   6.687   0.338   0.770 -0.9804  0.1053 -0.0104
 2397TIP3    H228683   6.646   0.194   0.748  1.2828 -0.5955  0.1186
 2398TIP3   OH228684   4.592   5.187  14.747  0.4458  0.2668 -0.0584
 2398TIP3    H128685   4.579   5.105  14.700  0.4524 -0.1497  0.6440
 2398TIP3    H228686   4.538   5.178  14.826 -0.3166  1.3351 -0.4344
 2399TIP3   OH228687   4.274   4.103  16.618 -0.1231 -0.0177 -0.1926
 2399TIP3    H128688   4.200   4.042  16.619 -1.2165  1.2455  1.4952
 2399TIP3    H228689   4.243   4.177  16.567 -0.5614  1.0780  1.5865
 2400TIP3   OH228690   0.485   2.532   4.482  0.5004  0.0767 -0.5648
 2400TIP3    H128691   0.435   2.452   4.470 -0.6256  0.6354  0.2749
 2400TIP3    H228692   0.422   2.602   4.471  1.4832  0.8661 -1.3260
 2401TIP3   OH228693   1.907   1.018  12.456  0.0865  0.3992  0.3618
 2401TIP3    H128694   1.937   1.013  12.365 -0.0487  2.5879  0.1397
 2401TIP3    H228695   1.811   1.013  12.449  0.1120 -2.2442  0.6996
 2402TIP3   OH228696   3.409   3.626   2.330  0.3855  0.2102  0.1198
 2402TIP3    H128697   3.440   3.711   2.299 -1.7586  0.9648 -0.1331
 2402TIP3    H228698   3.320   3.643   2.361 -0.6444 -2.1960 -1.2636
 2403TIP3   OH228699   1.963   4.832   0.277  0.5769 -0.0755 -0.4803
 2403TIP3    H128700   2.031   4.771   0.250  0.4869 -0.7752  0.7802
 2403TIP3    H228701   2.008   4.917   0.285  0.2225  0.6864 -4.5868
 2404TIP3   OH228702   3.690   6.764   5.652 -0.1434 -0.6229 -0.2688
 2404TIP3    H128703   3.736   6.844   5.677 -1.0791  0.3752 -1.5878
 2404TIP3    H228704   3.644   6.737   5.731  1.2448 -0.6445  0.5629
 2405TIP3   OH228705   4.390   0.649   5.404  0.7955  0.2277 -0.1652
 2405TIP3    H128706   4.484   0.640   5.391  0.6785 -0.3614 -0.6301
 2405TIP3    H228707   4.351   0.577   5.355  0.0807  0.6566 -0.2539
 2406TIP3   OH228708   5.567   2.269  13.107 -0.1725 -0.6848  0.2505
 2406TIP3    H128709   5.645   2.322  13.094 -0.3318 -0.6242 -0.5050
 2406TIP3    H228710   5.503   2.329  13.146  0.0932 -0.6902  0.7031
 2407TIP3   OH228711   6.493   1.881  12.220  0.6152 -0.4051  0.1541
 2407TIP3    H128712   6.510   1.934  12.298  1.3283  2.0682 -1.5833
 2407TIP3    H228713   6.398   1.877  12.214  0.5519  0.3388  0.5376
 2408TIP3   OH228714   4.833   4.970   5.390 -0.2404 -0.3023  0.0453
 2408TIP3    H128715   4.877   4.885   5.388  0.1959 -0.0709 -0.1490
 2408TIP3    H228716   4.810   4.987   5.299 -1.1723 -0.6459  0.2012
 2409TIP3   OH228717   3.501   1.154   0.904 -0.1864 -0.4104 -0.4005
 2409TIP3    H128718   3.434   1.220   0.890  1.0133  0.6202 -1.5236
 2409TIP3    H228719   3.515   1.114   0.818 -1.3138 -2.5978  0.3566
 2410TIP3   OH228720   2.473   1.304   5.396 -0.3248  0.0859  0.0910
 2410TIP3    H128721   2.398   1.341   5.444  0.8399  2.4906  0.2198
 2410TIP3    H228722   2.441   1.293   5.306 -1.3029 -0.5263  0.4990
 2411TIP3   OH228723   3.622   6.577  17.042 -0.3253 -0.4174 -0.2462
 2411TIP3    H128724   3.676   6.513  17.088  0.6294  1.6482  1.6658
 2411TIP3    H228725   3.661   6.583  16.954  1.1985 -0.5350  0.3976
 2412TIP3   OH228726   5.636   2.260   2.190  0.1153 -0.3422 -0.0675
 2412TIP3    H128727   5.722   2.288   2.158 -0.5315  0.1700 -1.3960
 2412TIP3    H228728   5.643   2.269   2.285  1.1764  0.7500 -0.2229
 2413TIP3   OH228729   3.312   4.911   4.740 -0.6579 -0.0682 -1.0185
 2413TIP3    H128730   3.360   4.927   4.659 -1.5648  1.3477 -1.3162
 2413TIP3    H228731   3.312   4.996   4.785 -0.4175 -0.7603  0.3395
 2414TIP3   OH228732   4.693   2.527  11.221  0.7512 -0.0155  0.4852
 2414TIP3    H128733   4.734   2.453  11.176  1.1846 -0.1692  1.1291
 2414TIP3    H228734   4.619   2.490  11.268  0.2983  0.1460 -0.0897
 2415TIP3   OH228735   0.613   3.707  14.481 -0.2369  0.4029 -0.1382
 2415TIP3    H128736   0.538   3.729  14.427  0.4928 -0.0432 -1.3846
 2415TIP3    H228737   0.591   3.621  14.519  0.0985 -0.2802 -1.4300
 2416TIP3   OH228738   5.697   3.554  13.660 -0.1486 -0.3373 -0.0210
 2416TIP3    H128739   5.613   3.589  13.631  0.9744  0.1878 -3.0211
 2416TIP3    H228740   5.752   3.632  13.674  0.4762 -0.7270 -0.2696
 2417TIP3   OH228741   3.676   3.652   0.804  0.3225  0.6146 -0.0476
 2417TIP3    H128742   3.724   3.569   0.814  1.1186  1.0274 -0.3515
 2417TIP3    H228743   3.655   3.678   0.894 -2.1357 -1.1331 -0.0035
 2418TIP3   OH228744   1.748   0.191  17.143  0.1733 -0.2463 -0.1437
 2418TIP3    H128745   1.772   0.142  17.221  0.6431 -0.9401 -0.7129
 2418TIP3    H228746   1.813   0.167  17.078 -1.1863 -1.0206 -1.2753
 2419TIP3   OH228747   6.532   3.637   5.638  0.2608  0.4218  0.3145
 2419TIP3    H128748   6.555   3.657   5.729  0.1385 -0.3537  0.5241
 2419TIP3    H228749   6.452   3.686   5.621  2.3520  3.8035 -0.6652
 2420TIP3   OH228750   3.689   6.157  13.108  0.1595  0.2342 -0.5258
 2420TIP3    H128751   3.717   6.114  13.189  0.7148 -0.2957 -0.9916
 2420TIP3    H228752   3.593   6.158  13.113  0.2046  2.0254  1.0586
 2421TIP3   OH228753   2.419   1.993  15.965 -0.2981  0.1660 -0.0734
 2421TIP3    H128754   2.407   1.966  15.874  0.9911 -1.7680  0.2823
 2421TIP3    H228755   2.352   1.944  16.014 -0.0774  0.1135  0.1804
 2422TIP3   OH228756   4.687   5.304   2.513 -0.1155 -0.1152  0.2554
 2422TIP3    H128757   4.756   5.272   2.454  0.7980  1.8423  0.1896
 2422TIP3    H228758   4.640   5.225   2.539  0.6857 -1.2583 -1.5507
 2423TIP3   OH228759   6.663   4.273  15.714 -0.0545  0.3375 -0.4254
 2423TIP3    H128760   6.683   4.292  15.806  0.8662 -1.0912 -0.3102
 2423TIP3    H228761   6.581   4.224  15.718  0.5428 -0.6692 -0.2626
 2424TIP3   OH228762   0.391   6.496   2.077 -0.3393  0.2992 -0.6514
 2424TIP3    H128763   0.481   6.476   2.103  0.1582  0.2404 -2.3176
 2424TIP3    H228764   0.400   6.561   2.007 -1.6264  0.7013 -0.4723
 2425TIP3   OH228765   2.169   1.441   1.354 -0.2378 -0.0431  0.6972
 2425TIP3    H128766   2.125   1.375   1.408  0.6196 -0.7781  0.5028
 2425TIP3    H228767   2.170   1.404   1.266 -0.7897  0.7477  0.3437
 2426TIP3   OH228768   5.100   3.246   1.210 -0.0812 -0.5074  0.2488
 2426TIP3    H128769   5.117   3.324   1.263 -2.4559  1.2657 -1.4066
 2426TIP3    H228770   5.155   3.178   1.250  1.4892  1.7619  2.2658
 2427TIP3   OH228771   6.625   6.375  12.673 -0.1195  0.0281  0.0053
 2427TIP3    H128772   6.613   6.469  12.660 -2.8544  0.0632  1.8573
 2427TIP3    H228773   6.695   6.368  12.738 -0.9934  0.9071  1.0764
 2428TIP3   OH228774   5.348   3.785   4.412  0.8154 -0.2590  0.2532
 2428TIP3    H128775   5.419   3.724   4.394  1.1026 -0.6827  2.5405
 2428TIP3    H228776   5.384   3.871   4.389  1.4714 -0.6428 -0.1875
 2429TIP3   OH228777   3.371   6.053  12.083  0.5926  0.3792 -0.2922
 2429TIP3    H128778   3.290   6.099  12.064  0.8504  0.5223 -1.0531
 2429TIP3    H228779   3.404   6.094  12.163 -0.1789  0.1801  0.1402
 2430TIP3   OH228780   1.177   4.372  13.335  0.0475 -0.3455 -0.0596
 2430TIP3    H128781   1.273   4.370  13.327 -0.0697  0.4542 -2.4213
 2430TIP3    H228782   1.150   4.284  13.307  0.0449 -0.0782 -0.9362
 2431TIP3   OH228783   3.085   1.646  14.057 -0.2512  0.4753 -0.0892
 2431TIP3    H128784   3.113   1.556  14.040  0.2408  0.6585 -0.2395
 2431TIP3    H228785   3.038   1.640  14.141  1.0830  0.3334  0.6730
 2432TIP3   OH228786   5.825   3.115  11.242 -0.0968  0.5771 -0.4652
 2432TIP3    H128787   5.812   3.177  11.314  0.0889 -0.2564  0.2961
 2432TIP3    H228788   5.809   3.029  11.280  1.2351  0.0125 -1.0959
 2433TIP3   OH228789   4.473   4.177  16.950  0.9125  0.5772 -0.4109
 2433TIP3    H128790   4.511   4.091  16.934 -1.2660 -1.0859  2.4738
 2433TIP3    H228791   4.473   4.187  17.045 -2.7916  1.8073 -0.3942
 2434TIP3   OH228792   3.760   3.340  13.712 -0.4608  0.2346  0.2986
 2434TIP3    H128793   3.715   3.314  13.792  0.4912  2.4393  1.6773
 2434TIP3    H228794   3.853   3.330  13.733 -0.2140 -0.9654 -1.2442
 2435TIP3   OH228795   5.882   6.234   0.045 -0.4851 -0.2382 -0.4757
 2435TIP3    H128796   5.910   6.324   0.062 -0.5298 -0.3860  0.4180
 2435TIP3    H228797   5.917   6.214  -0.042 -0.3801  0.5992 -0.6359
 2436TIP3   OH228798   4.012   4.724  13.293  1.1156  0.8196  0.7607
 2436TIP3    H128799   4.066   4.646  13.305  0.8798  0.6315  0.6156
 2436TIP3    H228800   3.940   4.713  13.355  0.0440 -0.0217 -0.5695
 2437TIP3   OH228801   5.144   5.861   5.934  0.2124 -0.0835  0.5602
 2437TIP3    H128802   5.183   5.804   5.868  1.5772  1.6853 -0.2551
 2437TIP3    H228803   5.056   5.827   5.947  0.0689 -0.7622 -1.8383
 2438TIP3   OH228804   0.573   1.854   2.195 -0.4062 -0.6761 -0.0322
 2438TIP3    H128805   0.619   1.937   2.210 -0.8457 -0.4120 -0.1304
 2438TIP3    H228806   0.625   1.810   2.128 -0.3067 -0.3672 -0.1616
 2439TIP3   OH228807   6.734   3.942  13.895 -0.0190  0.2163  0.3928
 2439TIP3    H128808   6.727   4.027  13.938 -0.7141 -1.1889  3.2454
 2439TIP3    H228809   6.750   3.880  13.966  1.5392 -1.9575 -1.6960
 2440TIP3   OH228810   5.425   0.405  11.121  0.4596  0.3088 -0.1675
 2440TIP3    H128811   5.466   0.407  11.034  1.3695  0.3066  0.2439
 2440TIP3    H228812   5.332   0.417  11.104  0.8084  2.2670 -1.0220
 2441TIP3   OH228813   4.769   3.113  10.780 -0.4932  0.0789  0.1363
 2441TIP3    H128814   4.811   3.047  10.725 -2.6720 -0.6154 -0.8319
 2441TIP3    H228815   4.776   3.078  10.869 -1.3495 -1.3920 -0.3253
 2442TIP3   OH228816   4.307   6.223   3.602  0.0026 -0.1514  0.4191
 2442TIP3    H128817   4.284   6.217   3.694 -0.8860  1.0302  0.3041
 2442TIP3    H228818   4.270   6.306   3.573  1.1643 -0.0003 -0.7566
 2443TIP3   OH228819   4.736   1.010   2.916 -0.0447 -0.3716 -0.0685
 2443TIP3    H128820   4.712   1.102   2.908 -1.9742 -0.7939  0.3228
 2443TIP3    H228821   4.819   1.002   2.869  0.0975  1.5300 -0.1994
 2444TIP3   OH228822   3.589   6.763   6.418  0.1806  0.2845  0.1424
 2444TIP3    H128823   3.563   6.715   6.340 -1.9136  0.8047  0.4743
 2444TIP3    H228824   3.660   6.710   6.455 -0.2815 -1.1503 -0.9036
 2445TIP3   OH228825   1.628   4.595   3.511  0.4093  0.6575  0.9193
 2445TIP3    H128826   1.657   4.683   3.534  1.5251  0.6306 -0.2452
 2445TIP3    H228827   1.705   4.540   3.527 -0.3504 -0.1779  1.8879
 2446TIP3   OH228828   2.741   0.184  15.318  0.2319  0.3629 -0.0292
 2446TIP3    H128829   2.805   0.146  15.257  0.2592  2.9904 -1.7878
 2446TIP3    H228830   2.685   0.238  15.263 -2.0569  0.0249  1.8215
 2447TIP3   OH228831   1.577   4.801  12.359  0.0448  0.3873  0.4110
 2447TIP3    H128832   1.589   4.876  12.301 -1.4189 -0.5521 -1.2130
 2447TIP3    H228833   1.623   4.729  12.317 -1.3274 -0.3973  0.1615
 2448TIP3   OH228834   1.354   1.186   0.953  0.6820  0.3438  0.1048
 2448TIP3    H128835   1.402   1.136   0.888  1.1422 -0.9689  1.4019
 2448TIP3    H228836   1.402   1.173   1.035 -0.4346  1.1151  0.9247
 2449TIP3   OH228837   0.204   6.451  14.865 -0.3513  0.2926  0.0640
 2449TIP3    H128838   0.262   6.427  14.937  0.0075  1.3216  0.1428
 2449TIP3    H228839   0.262   6.493  14.801 -1.2136  3.2290  1.0214
 2450TIP3   OH228840   4.255   6.284   5.023 -0.1632  0.6349  0.3920
 2450TIP3    H128841   4.284   6.213   5.080  1.6953 -0.2578 -1.5216
 2450TIP3    H228842   4.210   6.240   4.951 -1.7877  1.6820  0.6967
 2451TIP3   OH228843   5.364   6.191   5.382 -0.6048 -0.3079 -0.3007
 2451TIP3    H128844   5.314   6.110   5.389 -0.2128 -0.4526  1.1866
 2451TIP3    H228845   5.453   6.162   5.361 -0.1063 -0.4354  1.7282
 2452TIP3   OH228846   4.743   0.482   4.375 -0.0239  0.3453  0.0859
 2452TIP3    H128847   4.703   0.466   4.290  1.1408  1.3109 -0.6804
 2452TIP3    H228848   4.740   0.577   4.386  1.3208  0.3762  0.3539
 2453TIP3   OH228849   1.916   5.384   2.610  0.4354 -0.2983  0.0083
 2453TIP3    H128850   1.904   5.354   2.520  1.1849 -0.0491 -0.1884
 2453TIP3    H228851   1.828   5.385   2.648 -0.2002  1.5908 -1.3610
 2454TIP3   OH228852   6.726   6.478   2.348 -0.6362 -0.0972 -0.4027
 2454TIP3    H128853   6.676   6.400   2.326 -0.8834  0.5323 -2.2391
 2454TIP3    H228854   6.814   6.461   2.316 -0.8574  0.6169 -1.4358
 2455TIP3   OH228855   3.131   1.373   5.434  0.4646  0.0798  0.3584
 2455TIP3    H128856   3.174   1.415   5.509  2.2379  0.0480 -0.5842
 2455TIP3    H228857   3.091   1.445   5.386  1.1895  0.3727  0.1845
 2456TIP3   OH228858   5.463   0.397   4.238  0.1087 -0.1367 -0.5042
 2456TIP3    H128859   5.377   0.359   4.220 -0.0202  0.6189 -1.5428
 2456TIP3    H228860   5.475   0.383   4.332 -1.0240 -0.5105 -0.3945
 2457TIP3   OH228861   0.099   4.965   2.123 -0.2576  0.3645  0.0229
 2457TIP3    H128862   0.077   4.875   2.099 -0.9975  0.3865  0.5538
 2457TIP3    H228863   0.162   4.994   2.057  0.2723 -0.6654  0.0678
 2458TIP3   OH228864   6.173   2.063   4.125  0.0293  0.3172 -0.1378
 2458TIP3    H128865   6.265   2.089   4.112  0.0734  0.7833  0.9793
 2458TIP3    H228866   6.178   1.970   4.148  0.2251  0.3419 -0.0757
 2459TIP3   OH228867   0.825   3.785   0.798  0.2177 -0.2848 -0.7485
 2459TIP3    H128868   0.857   3.874   0.812 -0.8425  0.0769 -0.5439
 2459TIP3    H228869   0.763   3.771   0.869 -1.4561 -0.2917 -2.1558
 2460TIP3   OH228870   3.509   3.447  12.024  0.1697  0.0890 -0.4561
 2460TIP3    H128871   3.570   3.417  12.092  0.1423  1.8521  0.3831
 2460TIP3    H228872   3.563   3.498  11.964 -0.0328 -0.4539 -1.1086
 2461TIP3   OH228873   3.450   4.609   4.475 -0.0287 -0.5855  0.3130
 2461TIP3    H128874   3.408   4.676   4.421  0.4733  0.3056  1.0178
 2461TIP3    H228875   3.397   4.606   4.554 -0.0269 -1.0074  0.3022
 2462TIP3   OH228876   1.971   6.075   3.293 -0.2605  0.2264  0.4831
 2462TIP3    H128877   1.892   6.126   3.276  0.9458  1.6630 -1.1335
 2462TIP3    H228878   1.962   5.998   3.237 -1.7151 -1.0554  2.3402
 2463TIP3   OH228879   6.790   2.332   5.660 -0.4350  0.6100 -0.4416
 2463TIP3    H128880   6.799   2.317   5.566  0.2312 -1.3688 -0.1218
 2463TIP3    H228881   6.880   2.327   5.693 -0.6488  1.4021  0.3039
 2464TIP3   OH228882   5.851   4.528   0.410 -0.1421 -0.3929  0.0785
 2464TIP3    H128883   5.916   4.474   0.455 -2.0945 -2.5962  0.4585
 2464TIP3    H228884   5.767   4.492   0.437 -1.5916  2.4468 -0.2497
 2465TIP3   OH228885   2.585   6.444   0.462 -0.2147  0.3117 -0.1574
 2465TIP3    H128886   2.563   6.424   0.553  0.7475  0.0733  0.0321
 2465TIP3    H228887   2.532   6.521   0.441  0.6147  1.2547  1.0604
 2466TIP3   OH228888   5.005   5.449   0.206  0.5386  0.3603 -0.4043
 2466TIP3    H128889   5.090   5.468   0.246  0.5837 -0.4543 -0.1023
 2466TIP3    H228890   4.965   5.384   0.264 -0.6828  1.3858 -0.0357
 2467TIP3   OH228891   1.352   1.465   4.736 -0.0358  0.0389  0.2162
 2467TIP3    H128892   1.314   1.552   4.753 -1.7212 -0.6833  0.3581
 2467TIP3    H228893   1.383   1.470   4.646 -0.6717  0.6191  0.0146
 2468TIP3   OH228894   0.176   0.309  16.358 -0.2110  0.0152  0.4431
 2468TIP3    H128895   0.250   0.279  16.306  0.9722  0.0861  2.0003
 2468TIP3    H228896   0.184   0.262  16.441 -0.3371  1.9991  1.6566
 2469TIP3   OH228897   6.605   6.270  11.231 -0.1497 -0.1045  0.5611
 2469TIP3    H128898   6.642   6.281  11.144  0.0195 -1.5886  0.4232
 2469TIP3    H228899   6.549   6.347  11.243  1.4641  1.2233  0.0162
 2470TIP3   OH228900   4.003   3.793  14.597 -0.2311  0.0554  0.3508
 2470TIP3    H128901   4.064   3.722  14.619  0.7135  0.9047  0.5699
 2470TIP3    H228902   4.050   3.873  14.622 -1.6798  0.7159  1.0494
 2471TIP3   OH228903   2.375   5.924   2.930  0.4429  0.1381 -0.4060
 2471TIP3    H128904   2.356   5.903   2.839 -0.5287  0.7095 -0.3500
 2471TIP3    H228905   2.416   5.845   2.965 -1.5275 -1.0360 -0.6430
 2472TIP3   OH228906   0.306   5.911  16.221  0.4134 -0.4570  0.2344
 2472TIP3    H128907   0.396   5.930  16.196  0.2848 -1.7293 -1.3865
 2472TIP3    H228908   0.313   5.859  16.301  1.1388 -0.7627 -0.0220
 2473TIP3   OH228909   3.503   4.294   3.937 -0.3374 -0.9026 -0.2522
 2473TIP3    H128910   3.508   4.230   3.865  0.3988 -0.8069 -0.2924
 2473TIP3    H228911   3.594   4.317   3.955 -0.5984  0.2822 -0.3586
 2474TIP3   OH228912   3.925   3.170  15.997 -0.2073 -0.5274  0.2529
 2474TIP3    H128913   3.971   3.188  16.079  0.5797  0.4523 -0.3936
 2474TIP3    H228914   3.883   3.253  15.974  1.6966 -0.0010 -1.6459
 2475TIP3   OH228915   3.679   5.825  13.067 -0.0191  0.0680 -0.1426
 2475TIP3    H128916   3.707   5.760  13.131 -0.9150 -0.6744 -0.4857
 2475TIP3    H228917   3.734   5.810  12.991 -0.0275 -0.0970 -0.1160
 2476TIP3   OH228918   2.443   5.074  17.039 -0.2556 -0.5635 -0.4692
 2476TIP3    H128919   2.521   5.128  17.047 -0.5490 -0.2900  0.9587
 2476TIP3    H228920   2.415   5.083  16.948  1.6019 -1.0132 -1.1247
 2477TIP3   OH228921   1.885   1.907   4.216 -0.1051 -0.0697 -0.0304
 2477TIP3    H128922   1.873   1.814   4.236 -0.9985  0.6038  3.1441
 2477TIP3    H228923   1.797   1.944   4.219  0.1483  0.8176 -2.0161
 2478TIP3   OH228924   4.078   1.649  14.336 -0.1497 -0.6187  0.1828
 2478TIP3    H128925   3.991   1.639  14.299  1.8671 -1.1903 -5.3497
 2478TIP3    H228926   4.098   1.742  14.328 -0.1193 -0.5245  1.2033
 2479TIP3   OH228927   4.501   3.509   2.123 -0.1139 -0.1427 -0.3751
 2479TIP3    H128928   4.444   3.549   2.190  0.7468  0.7394 -0.1425
 2479TIP3    H228929   4.450   3.435   2.090 -2.3211  1.8168 -1.6770
 2480TIP3   OH228930   5.234   0.041  16.215  0.1762 -0.3609 -0.0017
 2480TIP3    H128931   5.219   0.071  16.305 -0.3996 -0.9863  0.1178
 2480TIP3    H228932   5.149   0.008  16.187  0.0159  0.9769 -1.2304
 2481TIP3   OH228933   3.355   6.745  13.683  0.5098  0.0598 -0.3891
 2481TIP3    H128934   3.427   6.708  13.734  0.7867  0.7575 -0.2640
 2481TIP3    H228935   3.310   6.803  13.744 -0.3186 -0.5749 -0.3945
 2482TIP3   OH228936   0.081   4.063   2.982 -0.4686 -0.0676  0.1322
 2482TIP3    H128937   0.018   3.997   3.012  1.2943 -1.5873  0.7375
 2482TIP3    H228938   0.129   4.087   3.061  0.1628  0.5453 -0.4276
 2483TIP3   OH228939   4.818   1.119  14.153 -0.2377 -0.3453 -0.0493
 2483TIP3    H128940   4.851   1.037  14.189  0.0393 -0.1294  0.2018
 2483TIP3    H228941   4.843   1.118  14.061 -0.6362 -0.7441 -0.1550
 2484TIP3   OH228942   2.477   2.498  14.589 -0.3551  0.0300 -0.3458
 2484TIP3    H128943   2.399   2.533  14.632 -0.0275  1.7623 -1.0428
 2484TIP3    H228944   2.453   2.491  14.497  0.5179  1.4148 -0.7218
 2485TIP3   OH228945   3.131   3.882   4.977  0.2258 -0.3855 -0.3389
 2485TIP3    H128946   3.133   3.915   5.067  0.6418 -1.2632 -0.0120
 2485TIP3    H228947   3.083   3.799   4.984  0.4263 -0.5478 -0.8894
 2486TIP3   OH228948   5.047   3.918   0.598  0.2623 -0.0188 -0.0196
 2486TIP3    H128949   5.036   3.910   0.693  0.8781  0.6735  0.1246
 2486TIP3    H228950   5.117   3.983   0.588 -1.7876  2.1927 -0.9816
 2487TIP3   OH228951   2.491   6.258   6.564 -1.0242 -0.6083 -0.6435
 2487TIP3    H128952   2.411   6.263   6.618 -0.9289  0.2786 -0.5729
 2487TIP3    H228953   2.495   6.343   6.520  0.0553 -0.5220 -0.3999
 2488TIP3   OH228954   4.739   3.397   0.793  0.1333 -0.8047  0.1955
 2488TIP3    H128955   4.767   3.393   0.885  0.4623 -1.7052  0.0600
 2488TIP3    H228956   4.755   3.488   0.767 -1.6819 -0.0307  1.5579
 2489TIP3   OH228957   6.199   0.243   5.838 -0.3338 -0.1041  0.2495
 2489TIP3    H128958   6.265   0.178   5.815 -0.7351 -0.1640 -0.8007
 2489TIP3    H228959   6.213   0.260   5.931  2.0458  0.8770 -0.2141
 2490TIP3   OH228960   3.338   4.086  12.610 -0.4291  0.3547 -0.3288
 2490TIP3    H128961   3.283   4.138  12.669  0.1589  0.0388  0.5121
 2490TIP3    H228962   3.367   4.147  12.543 -0.0114  1.0453  0.4651
 2491TIP3   OH228963   0.971   2.264   4.170 -0.1655 -0.5847  0.0590
 2491TIP3    H128964   0.979   2.318   4.092  0.9472 -2.5032 -1.2385
 2491TIP3    H228965   0.993   2.322   4.242 -0.8768  1.1544 -1.0564
 2492TIP3   OH228966   1.608   6.755   5.744 -0.1999 -0.3741  0.5028
 2492TIP3    H128967   1.610   6.744   5.839  0.2748  1.0807  0.7014
 2492TIP3    H228968   1.547   6.828   5.730 -0.8935 -1.1103 -0.3766
 2493TIP3   OH228969   2.512   0.441   6.112 -0.0927 -0.0215  0.5825
 2493TIP3    H128970   2.562   0.360   6.105  0.0313  0.0147  1.0297
 2493TIP3    H228971   2.448   0.425   6.181  1.4247  1.0203  2.3023
 2494TIP3   OH228972   4.244   3.060  11.301 -0.4404  0.2389  0.3780
 2494TIP3    H128973   4.325   3.011  11.315 -0.9470 -0.7939 -0.1682
 2494TIP3    H228974   4.200   3.013  11.230 -1.0228  1.4117 -0.0598
 2495TIP3   OH228975   4.312   1.284   4.351 -0.0494 -0.3756 -0.6352
 2495TIP3    H128976   4.269   1.335   4.282 -0.1444  0.0645 -0.2618
 2495TIP3    H228977   4.404   1.280   4.325  0.7942  3.2244  1.1135
 2496TIP3   OH228978   3.618   5.157  14.275 -0.1432 -0.5676  0.0440
 2496TIP3    H128979   3.651   5.086  14.331 -0.7741 -1.0108 -0.1351
 2496TIP3    H228980   3.616   5.234  14.332  2.3462 -0.1973 -0.2331
 2497TIP3   OH228981   5.361   3.165   6.003  0.6853  0.2204 -0.1831
 2497TIP3    H128982   5.291   3.224   5.974 -0.6376 -2.0927 -2.2212
 2497TIP3    H228983   5.438   3.193   5.953  0.2485  0.6236 -0.6526
 2498TIP3   OH228984   2.714   0.741  12.243  0.4656  0.4254 -0.2609
 2498TIP3    H128985   2.694   0.753  12.336 -0.6230 -1.4138 -0.1919
 2498TIP3    H228986   2.636   0.771  12.197  0.5288  0.2499 -0.4885
 2499TIP3   OH228987   5.719   3.651  15.434 -0.3017 -0.2655 -0.1653
 2499TIP3    H128988   5.736   3.619  15.345 -3.5465 -0.2325 -0.9074
 2499TIP3    H228989   5.634   3.613  15.458  0.1898  0.2042  2.7368
 2500TIP3   OH228990   4.066   1.410  11.711  0.3091  0.5571  0.2268
 2500TIP3    H128991   4.151   1.449  11.691  0.7950 -0.9434 -0.8691
 2500TIP3    H228992   4.030   1.386  11.626  0.2354 -1.6728  0.8091
 2501TIP3   OH228993   4.624   5.991   3.897 -0.4312 -0.3416 -0.0765
 2501TIP3    H128994   4.565   6.045   3.950  0.8943  1.0630  0.0377
 2501TIP3    H228995   4.620   6.030   3.810  0.9104  0.2892  0.1222
 2502TIP3   OH228996   2.740   2.254  13.402 -0.1948 -0.1699 -0.3547
 2502TIP3    H128997   2.711   2.163  13.395  1.2572 -0.5755 -1.5854
 2502TIP3    H228998   2.781   2.260  13.489  0.3266 -0.9021 -0.5437
 2503TIP3   OH228999   3.501   2.069  11.295  0.2341 -0.2289 -0.1042
 2503TIP3    H129000   3.446   2.073  11.373 -0.2052 -1.9246 -0.2953
 2503TIP3    H229001   3.441   2.046  11.224  0.3548  2.6193 -1.2819
 2504TIP3   OH229002   2.145   1.559  10.199  0.4190  0.2485 -0.3648
 2504TIP3    H129003   2.086   1.622  10.241 -0.6604 -0.4311 -0.8084
 2504TIP3    H229004   2.210   1.539  10.266 -0.1473  0.6420  0.3191
 2505TIP3   OH229005   0.468   5.743  12.252  0.4316 -0.9788  0.1407
 2505TIP3    H129006   0.534   5.726  12.184  0.6453 -1.8113  0.5441
 2505TIP3    H229007   0.518   5.743  12.334  0.1833  0.0756  0.3089
 2506TIP3   OH229008   6.541   6.194   0.619  0.1823 -0.0299  0.4205
 2506TIP3    H129009   6.499   6.266   0.667 -0.6963 -0.4440  0.3033
 2506TIP3    H229010   6.635   6.206   0.635  0.0339  0.9719  0.6329
 2507TIP3   OH229011   1.569   1.873  12.326  0.3454  0.8620 -0.4246
 2507TIP3    H129012   1.481   1.893  12.357  0.2414  1.6434 -1.1913
 2507TIP3    H229013   1.607   1.818  12.395 -0.8320  0.2774 -0.2249
 2508TIP3   OH229014   0.799   0.497  11.358  0.4296  0.0112 -0.3696
 2508TIP3    H129015   0.765   0.495  11.447  0.3875 -0.2279 -0.3900
 2508TIP3    H229016   0.861   0.569  11.357  0.7878 -0.2880 -0.0168
 2509TIP3   OH229017   3.812   4.434   1.749 -0.0731  0.0288  0.5994
 2509TIP3    H129018   3.874   4.485   1.697  1.3895  0.1264  2.3582
 2509TIP3    H229019   3.740   4.494   1.767  0.1519  0.4779  0.0272
 2510TIP3   OH229020   1.782   3.701  16.587  0.0399  0.1500  0.0389
 2510TIP3    H129021   1.760   3.714  16.679 -0.2884  1.2809 -0.1939
 2510TIP3    H229022   1.699   3.710  16.540  0.2372 -0.2212 -0.3975
 2511TIP3   OH229023   4.798   5.786   1.614 -0.3693 -0.0473  0.0979
 2511TIP3    H129024   4.879   5.833   1.634 -0.5382 -0.2717  1.3489
 2511TIP3    H229025   4.761   5.763   1.699 -1.3700 -0.6069 -0.4675
 2512TIP3   OH229026   5.641   4.349  16.363  0.3751  0.6626 -0.0417
 2512TIP3    H129027   5.559   4.369  16.316 -0.6622  0.1628  1.4753
 2512TIP3    H229028   5.621   4.370  16.455  1.1275 -1.7257  0.7373
 2513TIP3   OH229029   3.652   6.265  11.188 -0.0616 -0.0133 -0.4134
 2513TIP3    H129030   3.695   6.251  11.104 -0.3717  0.3289 -0.6317
 2513TIP3    H229031   3.574   6.209  11.185 -0.2684  0.2761 -0.5052
 2514TIP3   OH229032   5.446   4.700  15.210  0.1864 -0.5445  0.0861
 2514TIP3    H129033   5.390   4.694  15.287  1.6638  0.8413  1.3498
 2514TIP3    H229034   5.531   4.726  15.245  1.2044 -1.0213 -1.9216
 2515TIP3   OH229035   2.380   0.427   1.236 -0.2447  0.2148  0.8406
 2515TIP3    H129036   2.422   0.452   1.318  0.1029  0.1293  0.6870
 2515TIP3    H229037   2.318   0.498   1.218 -0.0466  0.4215  0.9757
 2516TIP3   OH229038   4.729   0.370   1.065  0.4023  0.1631 -0.0169
 2516TIP3    H129039   4.785   0.322   1.005  0.1102 -0.0245 -0.1442
 2516TIP3    H229040   4.759   0.343   1.152  1.4578  1.1722 -0.0526
 2517TIP3   OH229041   6.699   2.074  16.034  0.3686 -0.2240  0.6038
 2517TIP3    H129042   6.630   2.139  16.049 -0.7979 -1.0719 -0.7307
 2517TIP3    H229043   6.666   1.995  16.077  1.8971  0.0880  2.4465
 2518TIP3   OH229044   6.600   0.199   1.562 -0.3634 -0.5734  0.7617
 2518TIP3    H129045   6.570   0.164   1.478 -0.4562 -0.4117  0.7284
 2518TIP3    H229046   6.678   0.147   1.583  0.4278  0.2392 -0.0562
 2519TIP3   OH229047   1.067   1.795  11.278 -0.0622  0.2704 -0.3833
 2519TIP3    H129048   1.074   1.715  11.330 -1.1455  0.0782 -0.5263
 2519TIP3    H229049   1.015   1.770  11.202 -0.3434  1.0903 -0.4658
 2520TIP3   OH229050   2.777   0.893  13.012  0.0945 -0.1611 -0.5486
 2520TIP3    H129051   2.692   0.866  13.047  0.9058 -0.7739  1.0517
 2520TIP3    H229052   2.774   0.989  13.012 -0.9601 -0.1688 -1.5325
 2521TIP3   OH229053   6.191   4.316   5.523  0.0677 -0.1664  0.6272
 2521TIP3    H129054   6.163   4.386   5.464 -0.0790  0.8160  1.8207
 2521TIP3    H229055   6.126   4.317   5.594  0.2312 -1.3281  0.8124
 2522TIP3   OH229056   0.455   0.676   4.146  0.2671 -0.4845  0.0556
 2522TIP3    H129057   0.387   0.656   4.082  1.1662 -1.2557 -0.6802
 2522TIP3    H229058   0.440   0.768   4.169  1.2228  0.5215 -2.8950
 2523TIP3   OH229059   4.938   6.297   3.839  0.5789  0.1330 -0.1422
 2523TIP3    H129060   4.944   6.203   3.825  0.3741  0.2831 -1.3556
 2523TIP3    H229061   4.878   6.327   3.771  0.3221  1.0902  0.4839
 2524TIP3   OH229062   3.950   2.810   0.211 -0.0375 -0.7511 -0.6924
 2524TIP3    H129063   4.037   2.771   0.201  0.7284  0.8560 -0.6409
 2524TIP3    H229064   3.923   2.786   0.299  1.2379  0.3239  0.0393
 2525TIP3   OH229065   2.375   4.466   1.830 -0.3230  0.0867  0.1460
 2525TIP3    H129066   2.360   4.375   1.856 -1.1119  0.5451  1.4097
 2525TIP3    H229067   2.462   4.487   1.864 -0.7525  0.2300  1.2200
 2526TIP3   OH229068   5.523   6.370  16.405  0.5675 -0.3304 -0.0825
 2526TIP3    H129069   5.570   6.403  16.481  0.3740 -1.4444  0.5375
 2526TIP3    H229070   5.439   6.416  16.407 -0.1997 -1.7346  1.4885
 2527TIP3   OH229071   0.031   6.482   3.696 -0.4945  0.1138 -0.1226
 2527TIP3    H129072   0.063   6.529   3.773 -1.1262 -0.9975  0.8451
 2527TIP3    H229073   0.054   6.390   3.713  2.6254  0.2049 -2.9180
 2528TIP3   OH229074   4.801   2.329   1.286 -0.3708 -0.0212 -0.1222
 2528TIP3    H129075   4.797   2.400   1.351 -2.9406  0.5442 -0.7925
 2528TIP3    H229076   4.728   2.272   1.309  1.5920 -2.5295  0.3549
 2529TIP3   OH229077   2.222   6.663  13.752 -0.5453  0.4882  0.3161
 2529TIP3    H129078   2.262   6.615  13.825  0.3821  2.0639  0.9028
 2529TIP3    H229079   2.184   6.595  13.697 -0.1602 -0.8409  1.6096
 2530TIP3   OH229080   4.646   0.316  16.168 -0.0661 -0.4285 -0.0145
 2530TIP3    H129081   4.720   0.270  16.209  0.5510  0.3506 -0.2197
 2530TIP3    H229082   4.681   0.403  16.147 -1.4226  0.4254  1.0713
 2531TIP3   OH229083   4.188   6.296   2.995  0.3162 -0.4004  0.0218
 2531TIP3    H129084   4.186   6.201   2.983  1.6174 -0.4188 -0.1791
 2531TIP3    H229085   4.108   6.327   2.952  0.6898 -1.2621 -1.3806
 2532TIP3   OH229086   1.097   4.724  13.732 -0.4603 -0.1096  0.2972
 2532TIP3    H129087   1.078   4.638  13.695 -2.1613 -0.2482  1.3726
 2532TIP3    H229088   1.013   4.768  13.735  0.3625  1.5692 -0.0909
 2533TIP3   OH229089   3.030   6.503  16.565 -0.0825  0.4925 -0.4663
 2533TIP3    H129090   3.029   6.472  16.655  0.4949  0.6983 -0.3831
 2533TIP3    H229091   3.078   6.586  16.569 -1.3438  1.2574 -0.7220
 2534TIP3   OH229092   0.157   1.876   0.582 -0.2005  0.3963  0.4685
 2534TIP3    H129093   0.080   1.819   0.581  0.2111 -0.3313  3.1203
 2534TIP3    H229094   0.231   1.816   0.572  0.1411  0.6788  1.2302
 2535TIP3   OH229095   2.526   3.826  11.056 -0.0354 -0.0601  0.2713
 2535TIP3    H129096   2.544   3.921  11.054 -1.0057  0.1338  0.2968
 2535TIP3    H229097   2.577   3.794  11.131  0.0316  0.4975  0.4702
 2536TIP3   OH229098   4.832   3.931  16.068  0.7735  0.3742  0.5283
 2536TIP3    H129099   4.885   3.955  15.991 -0.5173 -1.5505 -1.0619
 2536TIP3    H229100   4.895   3.923  16.139  2.2934  0.3782 -0.7577
 2537TIP3   OH229101   2.347   2.053   2.808 -0.3397 -0.3945 -0.0909
 2537TIP3    H129102   2.296   2.008   2.742 -0.7405  0.9784 -0.7507
 2537TIP3    H229103   2.340   2.146   2.785  2.2275 -0.1150 -0.0686
 2538TIP3   OH229104   6.132   5.364  13.384 -0.2917  0.6161  0.4336
 2538TIP3    H129105   6.165   5.315  13.460 -0.5096 -1.5749 -0.8111
 2538TIP3    H229106   6.187   5.442  13.381  1.5109 -0.5496  1.2961
 2539TIP3   OH229107   0.915   2.658  13.605  0.8165  0.2800  0.6247
 2539TIP3    H129108   0.942   2.670  13.696  2.2281  0.0391  0.2723
 2539TIP3    H229109   0.854   2.729  13.588  2.9104  2.2429  0.8631
 2540TIP3   OH229110   6.350   1.191   1.824 -0.2624 -0.1256  0.3463
 2540TIP3    H129111   6.268   1.184   1.873  0.7112  0.6143  2.1801
 2540TIP3    H229112   6.407   1.126   1.864  0.5715  0.5207  0.2194
 2541TIP3   OH229113   4.023   2.662  11.212 -0.1629 -0.3049  0.0308
 2541TIP3    H129114   4.016   2.640  11.305  2.7934 -2.0256 -0.0246
 2541TIP3    H229115   3.984   2.587  11.166  1.0723 -0.9252 -0.0689
 2542TIP3   OH229116   3.662   4.198  16.216 -0.0010 -0.0211 -0.3720
 2542TIP3    H129117   3.698   4.285  16.229  2.3664 -1.0542  0.5533
 2542TIP3    H229118   3.661   4.158  16.303  0.8876 -1.5885 -1.0393
 2543TIP3   OH229119   4.335   0.967   2.052 -0.1132  0.0455 -0.3862
 2543TIP3    H129120   4.350   0.886   2.101  0.2322  1.0871  1.2821
 2543TIP3    H229121   4.343   0.940   1.960  1.2348 -1.5650  0.1477
 2544TIP3   OH229122   2.877   6.252  14.780 -0.3402  0.1391  0.6461
 2544TIP3    H129123   2.916   6.309  14.846 -1.1386  0.3884  0.9212
 2544TIP3    H229124   2.836   6.313  14.718  1.6825 -0.0338 -0.9293
 2545TIP3   OH229125   2.322   1.655   2.772 -0.2362 -0.2231 -0.3846
 2545TIP3    H129126   2.392   1.615   2.719 -1.3877 -0.3625 -1.8749
 2545TIP3    H229127   2.246   1.599   2.757 -1.1241  0.8907 -0.1727
 2546TIP3   OH229128   4.026   6.454  12.106  0.4976 -0.2444 -0.0860
 2546TIP3    H129129   3.968   6.402  12.162  0.9327  0.6359  1.2286
 2546TIP3    H229130   4.114   6.430  12.134  0.7426 -0.3174 -0.9007
 2547TIP3   OH229131   1.816   6.822   3.914 -0.3500  0.1759 -0.0289
 2547TIP3    H129132   1.850   6.910   3.897 -0.9908  0.6644  1.1149
 2547TIP3    H229133   1.888   6.764   3.892  1.0285  1.1492  1.6359
 2548TIP3   OH229134   6.400   5.136   1.014 -0.1827 -0.0760  0.2159
 2548TIP3    H129135   6.359   5.222   1.025  0.8085  0.7053 -1.7627
 2548TIP3    H229136   6.335   5.075   1.048 -0.9394  1.4150  1.6304
 2549TIP3   OH229137   1.871   0.576  10.554 -0.7282  0.0534  0.1122
 2549TIP3    H129138   1.860   0.491  10.512  1.2445 -0.4924  0.5998
 2549TIP3    H229139   1.868   0.639  10.482  1.1227 -0.7440 -0.7200
 2550TIP3   OH229140   2.020   3.816   1.054  0.0750  0.3652  0.6222
 2550TIP3    H129141   2.106   3.840   1.018  0.1641 -0.6264  0.1475
 2550TIP3    H229142   1.982   3.899   1.083  0.0767  1.2001 -1.6048
 2551TIP3   OH229143   4.578   2.223  12.123  0.0511 -0.2198 -0.0661
 2551TIP3    H129144   4.540   2.308  12.144 -1.4179 -1.2390  1.8486
 2551TIP3    H229145   4.672   2.234  12.137 -0.2648  0.7632  1.5383
 2552TIP3   OH229146   5.107   1.670   3.633  0.5315 -0.5852 -0.1229
 2552TIP3    H129147   5.166   1.639   3.565  1.3333 -1.3090  0.8687
 2552TIP3    H229148   5.060   1.592   3.662 -0.7460 -0.0685 -0.7002
 2553TIP3   OH229149   3.394   1.319   1.360 -0.6154  0.0958  0.6395
 2553TIP3    H129150   3.424   1.365   1.281  1.1125 -0.5806  0.8470
 2553TIP3    H229151   3.369   1.389   1.420  0.9395  0.7821  0.5547
 2554TIP3   OH229152   6.249   2.687  13.553 -0.2270  0.0397  0.4905
 2554TIP3    H129153   6.213   2.602  13.579 -1.7792  0.3578 -0.4290
 2554TIP3    H229154   6.201   2.751  13.606 -1.3495  0.4977 -0.9883
 2555TIP3   OH229155   1.234   3.093   2.644  0.3733 -0.1231 -0.1092
 2555TIP3    H129156   1.226   3.189   2.642 -1.4330 -0.1663  1.6345
 2555TIP3    H229157   1.297   3.076   2.714 -0.2727 -0.2074  0.4643
 2556TIP3   OH229158   3.355   6.664   5.302  0.5294 -1.2714  0.3397
 2556TIP3    H129159   3.374   6.614   5.382 -2.8147 -1.2552  1.2742
 2556TIP3    H229160   3.352   6.598   5.233  0.1780 -1.7753  0.8307
 2557TIP3   OH229161   6.412   6.104   4.589 -0.0371 -0.1190 -0.4565
 2557TIP3    H129162   6.433   6.137   4.677  1.1149 -1.9335 -0.0012
 2557TIP3    H229163   6.317   6.098   4.588 -0.2827  2.5450 -0.3633
 2558TIP3   OH229164   4.403   3.059  15.889  0.0999 -0.2603  0.4760
 2558TIP3    H129165   4.334   3.098  15.835 -0.3051  2.4563  2.6962
 2558TIP3    H229166   4.485   3.091  15.851  0.1152 -1.8748 -0.9758
 2559TIP3   OH229167   5.900   5.504   6.572 -0.2284  0.2472  0.5055
 2559TIP3    H129168   5.882   5.588   6.614 -0.1907  0.9207 -0.7635
 2559TIP3    H229169   5.994   5.491   6.583  0.1883  1.4821 -1.1650
 2560TIP3   OH229170   3.465   1.828   1.958 -0.2884 -0.0699  0.1112
 2560TIP3    H129171   3.555   1.806   1.933  0.1224  0.8897  0.6868
 2560TIP3    H229172   3.440   1.898   1.897 -0.2302  0.4479  0.6704
 2561TIP3   OH229173   0.390   3.436   0.430 -0.7726  0.6356  0.6455
 2561TIP3    H129174   0.472   3.476   0.459 -0.3648  0.1978  0.1201
 2561TIP3    H229175   0.394   3.439   0.335 -1.1207  0.1180  0.6118
 2562TIP3   OH229176   1.880   2.991   3.357 -0.0294 -0.1207 -0.0434
 2562TIP3    H129177   1.965   3.035   3.346  0.4955 -1.4733 -1.8141
 2562TIP3    H229178   1.898   2.920   3.418  0.1217 -0.3976 -0.4063
 2563TIP3   OH229179   1.218   4.270  16.709 -0.8095 -0.0870  0.0291
 2563TIP3    H129180   1.266   4.353  16.707 -3.0128  1.2840  0.3433
 2563TIP3    H229181   1.126   4.296  16.717 -1.4726 -2.5857  1.8696
 2564TIP3   OH229182   3.508   5.859   1.393  0.0933 -0.1975 -0.2773
 2564TIP3    H129183   3.416   5.883   1.399 -0.0449 -1.0457  2.4499
 2564TIP3    H229184   3.509   5.764   1.410  1.4658 -0.2030 -0.2532
 2565TIP3   OH229185   2.891   1.700   5.649  0.3949 -0.0510 -0.2425
 2565TIP3    H129186   2.865   1.665   5.734 -2.7084  1.8820 -0.2460
 2565TIP3    H229187   2.919   1.623   5.600  2.5133 -1.2179  2.4984
 2566TIP3   OH229188   3.467   0.824  11.990  0.1107  0.5378 -0.7009
 2566TIP3    H129189   3.488   0.845  12.081  1.2784  2.9907 -1.4590
 2566TIP3    H229190   3.394   0.762  11.996  0.7830 -0.1345  1.8862
 2567TIP3   OH229191   6.803   5.789   3.555 -0.3959  0.1521 -0.0558
 2567TIP3    H129192   6.806   5.773   3.461 -0.6278  1.2054 -0.2489
 2567TIP3    H229193   6.732   5.851   3.567  0.0312  0.5083  0.7421
 2568TIP3   OH229194   6.239   6.024  15.162 -0.4414 -0.0395  0.3858
 2568TIP3    H129195   6.212   6.042  15.072  0.5469 -0.4516 -0.0071
 2568TIP3    H229196   6.161   5.987  15.203 -1.3418  1.5017  0.1332
 2569TIP3   OH229197   0.068   0.529  14.866  0.2893 -0.4843  0.5051
 2569TIP3    H129198  -0.003   0.542  14.802  0.2748 -1.3653  0.3303
 2569TIP3    H229199   0.041   0.453  14.917  0.4580  0.0188  1.3608
 2570TIP3   OH229200   0.323   6.634   3.006 -0.0827 -0.1908 -0.3371
 2570TIP3    H129201   0.399   6.588   3.042 -0.6679 -1.9154 -1.1945
 2570TIP3    H229202   0.249   6.576   3.025 -0.8229  0.2862 -1.6428
 2571TIP3   OH229203   2.597   0.492  16.936 -0.5091 -0.9786  0.0422
 2571TIP3    H129204   2.660   0.544  16.886 -0.8225 -0.5901  0.0432
 2571TIP3    H229205   2.567   0.551  17.005  0.2259 -1.6421  0.9512
 2572TIP3   OH229206   0.010   3.969  14.839 -0.6711  0.1288  1.1558
 2572TIP3    H129207   0.087   3.996  14.788 -1.2257  0.2277  0.3467
 2572TIP3    H229208   0.047   3.926  14.916  0.2002 -0.0046  0.6874
 2573TIP3   OH229209   6.339   6.091   3.461 -0.3015  0.4038  0.1962
 2573TIP3    H129210   6.339   6.044   3.544 -0.5652  0.7753  0.4064
 2573TIP3    H229211   6.397   6.040   3.404 -0.9398 -0.4294  0.2816
 2574TIP3   OH229212   2.904   0.353   1.621  0.3164  0.2917  0.4368
 2574TIP3    H129213   2.989   0.336   1.582  0.4807  0.4800  0.7082
 2574TIP3    H229214   2.884   0.443   1.598 -0.8975 -0.4393 -1.6458
 2575TIP3   OH229215   1.071   1.886   5.933  0.5814  0.1272 -0.3906
 2575TIP3    H129216   1.135   1.957   5.937 -0.3409  0.9547  4.1123
 2575TIP3    H229217   0.987   1.930   5.920  0.4282 -0.6695 -2.5636
 2576TIP3   OH229218   0.791   0.365  16.935  0.1332  0.2712  0.3326
 2576TIP3    H129219   0.845   0.296  16.897  0.4242  0.3436  0.6170
 2576TIP3    H229220   0.844   0.402  17.006 -0.8572 -0.6447  1.5960
 2577TIP3   OH229221   4.493   0.507  11.702 -0.4286  0.5866  0.1815
 2577TIP3    H129222   4.554   0.461  11.645 -0.5862 -0.1981  0.6224
 2577TIP3    H229223   4.537   0.509  11.787 -0.2507  1.6276  0.0793
 2578TIP3   OH229224   4.409   4.850   4.063 -0.0180  0.1341  0.2227
 2578TIP3    H129225   4.413   4.867   4.157  0.3482  0.0570  0.2255
 2578TIP3    H229226   4.438   4.932   4.022 -1.4465  0.6221  0.1261
 2579TIP3   OH229227   5.823   2.235  13.534  0.5208  0.0382  0.0240
 2579TIP3    H129228   5.821   2.228  13.439 -0.9308 -0.7708  0.0849
 2579TIP3    H229229   5.856   2.149  13.563  1.5572  0.4975  0.2453
 2580TIP3   OH229230   5.992   2.062  12.955  0.0121  0.2103 -0.6866
 2580TIP3    H129231   5.918   2.035  13.009  0.1217  1.4572  0.1249
 2580TIP3    H229232   5.975   2.153  12.933  1.1072  0.4102 -0.7960
 2581TIP3   OH229233   4.155   1.252  12.966  0.0903  0.1719  0.5508
 2581TIP3    H129234   4.109   1.307  13.029  0.5346 -0.1970  1.2081
 2581TIP3    H229235   4.239   1.232  13.008  1.1151  1.2970 -0.8596
 2582TIP3   OH229236   3.270   4.250  17.107  0.7279 -0.1219 -0.1751
 2582TIP3    H129237   3.262   4.326  17.165 -2.8731 -1.3252  1.2174
 2582TIP3    H229238   3.193   4.255  17.050  0.5963 -2.4628 -0.2956
 2583TIP3   OH229239   5.035   6.277   1.592 -0.1763 -0.4009 -0.3343
 2583TIP3    H129240   5.091   6.294   1.516  0.3352 -0.5270  0.0089
 2583TIP3    H229241   4.949   6.309   1.566  0.0905 -0.0622 -0.8110
 2584TIP3   OH229242   6.453   4.245  13.871 -0.5670  0.0846  0.4653
 2584TIP3    H129243   6.534   4.231  13.821 -0.4016  1.0412  0.4309
 2584TIP3    H229244   6.389   4.271  13.805 -0.6155  0.3552  0.6147
 2585TIP3   OH229245   5.183   0.317   3.516 -0.1268  0.3631  0.0793
 2585TIP3    H129246   5.092   0.286   3.512  0.0638 -0.6187  2.1851
 2585TIP3    H229247   5.228   0.265   3.449 -0.9776  0.4250 -0.5652
 2586TIP3   OH229248   3.598   6.075   1.229 -0.4735  0.0473 -0.0318
 2586TIP3    H129249   3.581   5.998   1.283 -0.6664  0.1881  0.1099
 2586TIP3    H229250   3.553   6.057   1.147  0.0339 -0.2785 -0.2400
 2587TIP3   OH229251   2.545   5.147  10.879  0.0896 -0.0058  0.3611
 2587TIP3    H129252   2.509   5.235  10.866  2.3732  1.1549  1.3306
 2587TIP3    H229253   2.495   5.092  10.818 -1.7907  1.8147  0.1278
 2588TIP3   OH229254   2.008   6.282   3.048 -0.5062 -0.4527  0.2306
 2588TIP3    H129255   2.020   6.269   2.954 -1.6305  0.2815 -0.0335
 2588TIP3    H229256   2.043   6.202   3.088  0.6631 -0.4568 -0.7467
 2589TIP3   OH229257   3.819   3.720  15.980 -0.2690  0.0420 -0.0287
 2589TIP3    H129258   3.772   3.803  15.978 -1.2946 -0.4609  1.4210
 2589TIP3    H229259   3.910   3.744  15.997 -0.4084  0.9024 -0.4538
 2590TIP3   OH229260   4.621   4.311  13.232  0.5545 -0.2244 -0.2559
 2590TIP3    H129261   4.647   4.236  13.285  0.0240 -0.7023 -0.6564
 2590TIP3    H229262   4.569   4.365  13.292 -0.2454 -0.8804 -0.3312
 2591TIP3   OH229263   2.053   0.865   4.671 -0.4529 -0.8208  0.4008
 2591TIP3    H129264   2.074   0.863   4.764  0.4251 -1.1573  0.2038
 2591TIP3    H229265   2.104   0.939   4.637 -1.6797  0.0492  0.3879
 2592TIP3   OH229266   3.022   4.582  11.347  0.6408  0.3338 -0.9085
 2592TIP3    H129267   3.116   4.584  11.334  0.5284  0.4892 -1.7521
 2592TIP3    H229268   2.988   4.651  11.290  0.1939  1.9393  1.1598
 2593TIP3   OH229269   4.659   4.650   3.856  0.3809 -0.2398 -0.1448
 2593TIP3    H129270   4.666   4.557   3.877 -2.3947 -1.5606 -3.8808
 2593TIP3    H229271   4.714   4.661   3.778  0.0081  1.0552 -0.2466
 2594TIP3   OH229272   6.574   1.388   0.644  0.2993 -0.4114  0.2297
 2594TIP3    H129273   6.561   1.438   0.724 -0.4431  0.6522 -0.5257
 2594TIP3    H229274   6.566   1.453   0.574 -1.4015 -1.6828 -0.8338
 2595TIP3   OH229275   3.848   1.623  15.929  0.5357 -0.1723  0.2208
 2595TIP3    H129276   3.842   1.528  15.914 -0.6698  0.0455 -0.9028
 2595TIP3    H229277   3.757   1.652  15.936  0.8774  0.9526  0.2354
 2596TIP3   OH229278   2.713   4.681   5.728  0.0573 -0.4381  0.1383
 2596TIP3    H129279   2.753   4.767   5.721  1.0354 -0.7637  1.4390
 2596TIP3    H229280   2.787   4.620   5.724 -0.2852 -1.0624  2.3702
 2597TIP3   OH229281   3.889   0.507   0.103  0.1804  0.1950  0.5706
 2597TIP3    H129282   3.810   0.561   0.112  1.0402  1.7110 -0.3440
 2597TIP3    H229283   3.857   0.420   0.083 -1.2998  0.2145  2.5938
 2598TIP3   OH229284   5.941   1.799  14.533 -0.0116  0.2633 -0.2097
 2598TIP3    H129285   5.862   1.795  14.587  0.5322  1.1205  0.6712
 2598TIP3    H229286   5.916   1.856  14.460 -0.0871  0.8661  0.2816
 2599TIP3   OH229287   1.924   5.221   5.029  0.2879  0.3809  0.3828
 2599TIP3    H129288   1.911   5.296   4.971 -1.2055  0.1294  0.3443
 2599TIP3    H229289   1.895   5.252   5.115  0.1471  0.0033  0.4727
 2600TIP3   OH229290   3.948   6.447  13.711 -0.0622  0.0124 -0.1285
 2600TIP3    H129291   3.878   6.512  13.714  0.0722  0.1251  1.2395
 2600TIP3    H229292   4.011   6.476  13.776  0.9444 -0.4596 -0.8514
 2601TIP3   OH229293   1.812   3.954   0.688  0.0489 -0.1976  0.1793
 2601TIP3    H129294   1.893   3.926   0.644  0.3445 -0.4221  0.8569
 2601TIP3    H229295   1.792   3.884   0.749 -0.0464  0.3629  0.8016
 2602TIP3   OH229296   5.237   1.270   3.577  0.2361 -0.0622 -0.1887
 2602TIP3    H129297   5.311   1.218   3.542 -0.1816  0.7604 -2.5134
 2602TIP3    H229298   5.242   1.352   3.528 -0.8829  0.9197  1.2949
 2603TIP3   OH229299   3.046   5.660   1.040 -1.0195  0.1087  0.1994
 2603TIP3    H129300   3.139   5.676   1.054 -0.5559  0.0829 -2.3915
 2603TIP3    H229301   3.009   5.746   1.021 -1.4988  0.0728  0.9050
 2604TIP3   OH229302   6.032   5.337   1.435 -0.0885  0.2242 -0.1204
 2604TIP3    H129303   6.047   5.280   1.511  0.9093  0.7018  0.0556
 2604TIP3    H229304   5.995   5.417   1.472  0.2105  0.3802 -0.1563
 2605TIP3   OH229305   4.671   3.233  14.816 -0.1013  0.0692 -0.0818
 2605TIP3    H129306   4.704   3.211  14.729  1.8875  2.3386  0.0151
 2605TIP3    H229307   4.696   3.158  14.871 -0.2320 -0.7977 -1.1735
 2606TIP3   OH229308   1.289   3.275   4.429  0.1793 -0.1344  0.1309
 2606TIP3    H129309   1.244   3.212   4.486 -0.0671 -1.0005 -0.9884
 2606TIP3    H229310   1.294   3.231   4.344 -0.7027  1.6775 -0.9043
 2607TIP3   OH229311   2.539   3.563   3.915 -0.2114 -0.3836 -0.0364
 2607TIP3    H129312   2.609   3.621   3.944  1.1277  0.2909 -3.9817
 2607TIP3    H229313   2.571   3.475   3.935  0.3724  0.0172  0.8705
 2608TIP3   OH229314   1.121   5.495  14.145 -0.1138 -0.2180 -0.2648
 2608TIP3    H129315   1.121   5.466  14.054  0.8234  0.2584 -0.4333
 2608TIP3    H229316   1.206   5.539  14.156 -0.3777  0.0692  0.7260
 2609TIP3   OH229317   0.432   0.745   1.549  0.1727 -0.2375  0.2948
 2609TIP3    H129318   0.494   0.732   1.478  1.5337 -1.1422  1.5883
 2609TIP3    H229319   0.378   0.665   1.548  0.6456 -0.5635  0.7081
 2610TIP3   OH229320   5.710   5.763  15.047 -0.1271  0.4640  0.2878
 2610TIP3    H129321   5.696   5.695  14.981 -0.4786  1.4787 -0.6982
 2610TIP3    H229322   5.679   5.844  15.006  1.0878  1.3838  1.1144
 2611TIP3   OH229323   2.383   5.853   3.844 -0.0995 -0.2982 -0.1821
 2611TIP3    H129324   2.338   5.868   3.761 -0.5892 -0.1187  0.1091
 2611TIP3    H229325   2.373   5.759   3.861  2.8568 -1.0422 -1.9440
 2612TIP3   OH229326   1.155   4.976  14.468 -0.3997  0.2246  0.1867
 2612TIP3    H129327   1.158   5.050  14.529  1.4232 -0.9521  1.6627
 2612TIP3    H229328   1.072   4.986  14.421 -1.0006  2.2239  1.5561
 2613TIP3   OH229329   2.629   5.794  15.799 -0.1980  0.3923 -0.0582
 2613TIP3    H129330   2.557   5.762  15.745 -0.6502  0.3955  0.5361
 2613TIP3    H229331   2.702   5.804  15.738 -1.1189  1.8724 -1.0064
 2614TIP3   OH229332   4.355   1.563  14.194 -0.2502  0.4525  0.1136
 2614TIP3    H129333   4.290   1.601  14.254 -0.9594 -0.6142  0.0349
 2614TIP3    H229334   4.308   1.495  14.147  0.3713  1.0662 -1.4699
 2615TIP3   OH229335   5.963   3.549   1.886 -0.1180  0.4264  0.1298
 2615TIP3    H129336   5.954   3.506   1.971 -0.3446 -1.6558 -0.8862
 2615TIP3    H229337   5.874   3.552   1.852  0.2332 -0.7406 -0.9350
 2616TIP3   OH229338   1.690   4.079   5.654 -0.0990 -0.7414  0.3998
 2616TIP3    H129339   1.623   4.116   5.596  0.3819  1.2482  1.0470
 2616TIP3    H229340   1.643   4.017   5.709 -1.0507 -0.7514 -0.4022
 2617TIP3   OH229341   3.534   2.322   4.722  0.8220  0.3820  0.5783
 2617TIP3    H129342   3.586   2.268   4.663 -0.4550  0.4168 -0.6262
 2617TIP3    H229343   3.532   2.408   4.680  0.5472  0.6331  1.0893
 2618TIP3   OH229344   4.824   4.659  13.486 -0.3297 -0.2486 -0.6041
 2618TIP3    H129345   4.736   4.672  13.520 -0.7014 -1.1264 -1.1954
 2618TIP3    H229346   4.843   4.567  13.504  0.2983 -0.1753 -0.8740
 2619TIP3   OH229347   0.188   5.269   3.053  0.1475 -0.1915  0.7676
 2619TIP3    H129348   0.156   5.340   3.109 -2.8445 -1.0998  0.3991
 2619TIP3    H229349   0.116   5.252   2.992  2.2407 -1.0557 -1.6312
 2620TIP3   OH229350   1.135   4.744   0.081 -0.6992 -0.0704 -0.8044
 2620TIP3    H129351   1.197   4.673   0.100 -0.6554  0.2568  0.3430
 2620TIP3    H229352   1.116   4.783   0.166 -1.6619  0.5297 -1.2739
 2621TIP3   OH229353   5.411   3.954  11.109 -0.1637 -0.0123 -0.3098
 2621TIP3    H129354   5.357   3.938  11.032 -1.6117 -0.0247  0.6870
 2621TIP3    H229355   5.351   3.947  11.183  0.8323  1.6599  0.7251
 2622TIP3   OH229356   4.094   0.294   3.114  0.9691  0.2833  1.0886
 2622TIP3    H129357   4.187   0.315   3.125  0.8963 -0.2127  3.0519
 2622TIP3    H229358   4.093   0.219   3.056  1.8219  0.1336  1.2504
 2623TIP3   OH229359   1.948   2.961   5.671  0.6381  0.5884 -0.0171
 2623TIP3    H129360   1.899   3.021   5.615  0.7825  0.6460 -0.0805
 2623TIP3    H229361   1.978   2.892   5.612 -1.6737 -0.9314  0.4407
 2624TIP3   OH229362   1.766   3.966  12.778  0.1626 -0.0573  0.4031
 2624TIP3    H129363   1.816   4.033  12.732  0.4177  0.0774  0.8686
 2624TIP3    H229364   1.778   3.987  12.871  0.8429 -1.1829  0.5781
 2625TIP3   OH229365   0.580   2.807  12.725 -0.5723 -0.6561  0.2517
 2625TIP3    H129366   0.538   2.737  12.676  0.9305 -0.6776 -1.1070
 2625TIP3    H229367   0.664   2.769  12.753  0.9754  0.9620 -1.8179
 2626TIP3   OH229368   4.000   5.915   5.492  0.2296  0.3156  0.4768
 2626TIP3    H129369   3.942   5.866   5.434 -0.2911  1.4476  0.0206
 2626TIP3    H229370   4.057   5.848   5.531 -1.2290 -0.7997  0.7867
 2627TIP3   OH229371   2.060   3.858  11.671  0.3336 -0.4570 -0.6614
 2627TIP3    H129372   2.079   3.944  11.633  4.3920 -1.2165 -0.7604
 2627TIP3    H229373   1.997   3.818  11.611 -0.4428  1.8165 -1.4379
 2628TIP3   OH229374   4.446   5.564   3.057 -0.0419 -0.0090 -0.0316
 2628TIP3    H129375   4.361   5.574   3.013 -1.0980  0.2117  1.9623
 2628TIP3    H229376   4.496   5.641   3.028 -0.0271 -0.7381 -2.1483
 2629TIP3   OH229377   1.105   0.242  13.765  0.2193 -0.4589  0.6148
 2629TIP3    H129378   1.081   0.312  13.704  0.1128 -0.6806  0.4014
 2629TIP3    H229379   1.036   0.244  13.831  0.1540 -0.4398  0.5457
 2630TIP3   OH229380   0.648   3.823   1.241 -0.2772 -0.7093 -0.6051
 2630TIP3    H129381   0.643   3.794   1.150 -1.1045  0.2796 -0.8942
 2630TIP3    H229382   0.564   3.866   1.257  0.8566  1.5449 -0.2268
 2631TIP3   OH229383   0.372   1.206   1.011 -0.0921 -0.2008  0.0258
 2631TIP3    H129384   0.366   1.118   0.975  0.7259 -0.3446  0.2248
 2631TIP3    H229385   0.328   1.262   0.946 -0.3098 -0.7062 -0.2641
 2632TIP3   OH229386   5.104   2.014   2.937  0.2087 -0.6116  0.6485
 2632TIP3    H129387   5.116   2.019   3.032 -0.7905 -0.0662  0.7569
 2632TIP3    H229388   5.114   1.921   2.917  3.3807 -0.4193  0.8405
 2633TIP3   OH229389   3.522   4.905   2.170  0.5847 -0.3674 -0.2340
 2633TIP3    H129390   3.603   4.862   2.141  0.8434 -0.2559  0.3192
 2633TIP3    H229391   3.551   4.974   2.230  0.0382 -0.7498  0.4870
 2634TIP3   OH229392   1.914   6.421  13.173  0.0598  0.2078 -0.0183
 2634TIP3    H129393   1.910   6.345  13.115  1.7551 -0.6543  0.8956
 2634TIP3    H229394   1.996   6.465  13.149  0.0953  0.6112  0.7997
 2635TIP3   OH229395   1.631   5.055  17.034  0.7999 -0.2797 -1.0345
 2635TIP3    H129396   1.691   5.003  16.980  0.1242  0.6291 -2.7034
 2635TIP3    H229397   1.544   5.020  17.014  0.2809  1.7196 -2.5251
 2636TIP3   OH229398   2.321   2.830  11.870 -0.2173  0.1083  0.4019
 2636TIP3    H129399   2.403   2.815  11.917  1.7815  1.1985 -2.4994
 2636TIP3    H229400   2.271   2.749  11.884  0.7047 -0.0785  3.3168
 2637TIP3   OH229401   0.392   3.135  12.643 -0.0228 -0.0727 -0.1944
 2637TIP3    H129402   0.308   3.113  12.681  0.3641 -0.5455  0.3996
 2637TIP3    H229403   0.449   3.152  12.718  0.2765  0.7707 -0.5956
 2638TIP3   OH229404   2.049   3.754   4.387 -0.0646  0.5443 -0.2161
 2638TIP3    H129405   2.056   3.775   4.294 -2.2317  0.0885 -0.5321
 2638TIP3    H229406   2.116   3.686   4.402  1.8239  2.1554 -0.8775
 2639TIP3   OH229407   0.007   1.481  11.686  0.2649  0.6302 -0.0436
 2639TIP3    H129408   0.033   1.450  11.599  1.2955 -1.5575  0.9723
 2639TIP3    H229409   0.015   1.576  11.681  1.3289  0.4893 -2.0213
 2640TIP3   OH229410   3.797   1.596  16.741  0.6135 -0.9037  0.1495
 2640TIP3    H129411   3.853   1.660  16.786 -0.4085 -0.0175  0.2241
 2640TIP3    H229412   3.797   1.519  16.798  1.2553 -0.6843  0.4514
 2641TIP3   OH229413   1.778   4.382   0.537  0.1006 -0.1242  0.9085
 2641TIP3    H129414   1.817   4.469   0.543  0.5920 -0.0177 -2.3663
 2641TIP3    H229415   1.686   4.397   0.515  0.3397 -0.3821 -0.3538
 2642TIP3   OH229416   0.482   5.617   3.296  0.0103  0.0389  0.1210
 2642TIP3    H129417   0.571   5.592   3.323 -0.3890 -1.8616 -0.1525
 2642TIP3    H229418   0.477   5.711   3.313  2.3152  0.3464 -0.5624
 2643TIP3   OH229419   1.950   4.037  11.937  0.0613  0.2937  0.8295
 2643TIP3    H129420   2.015   4.080  11.993  1.0540  0.0989 -0.1492
 2643TIP3    H229421   1.879   4.014  11.997  1.2711 -0.2966  2.1016
 2644TIP3   OH229422   3.235   0.146  14.620 -0.3494  0.1812 -0.3923
 2644TIP3    H129423   3.323   0.151  14.656 -0.1801 -0.0965 -0.7740
 2644TIP3    H229424   3.234   0.067  14.567 -0.6038  0.5900 -1.0029
 2645TIP3   OH229425   0.790   2.959   1.493  1.0460  0.4704 -0.1353
 2645TIP3    H129426   0.790   2.893   1.562 -2.4752  2.9261  2.6095
 2645TIP3    H229427   0.759   2.912   1.415 -1.4697 -1.2559  1.7287
 2646TIP3   OH229428   1.490   3.743   0.036  0.2953 -0.1639 -0.3054
 2646TIP3    H129429   1.415   3.716   0.091  0.2646 -0.3288 -0.4277
 2646TIP3    H229430   1.452   3.803  -0.028 -0.1405 -1.8100 -1.6771
 2647TIP3   OH229431   0.032   3.639  11.932  0.6297 -0.2611  0.6138
 2647TIP3    H129432   0.117   3.623  11.892  0.1271  1.8329 -1.4993
 2647TIP3    H229433  -0.029   3.589  11.879  0.1575  1.2233 -0.3170
 2648TIP3   OH229434   1.581   5.651   4.375 -0.0971  0.4393  0.1561
 2648TIP3    H129435   1.624   5.665   4.291 -1.0053  0.8839 -0.2400
 2648TIP3    H229436   1.642   5.686   4.439  1.7062 -2.0208 -0.0764
 2649TIP3   OH229437   6.559   5.686   1.744  0.2403  0.1560 -0.3139
 2649TIP3    H129438   6.482   5.714   1.795  0.6592 -0.1202  0.4885
 2649TIP3    H229439   6.552   5.591   1.740 -0.4859  0.2469 -1.9223
 2650TIP3   OH229440   1.816   6.462  14.905  0.1425  0.7044  0.2222
 2650TIP3    H129441   1.808   6.395  14.837  0.8256 -0.9555  1.7123
 2650TIP3    H229442   1.733   6.509  14.903 -0.8235 -0.9651 -0.0697
 2651TIP3   OH229443   0.029   0.808  13.817 -0.3958  0.2476  0.4209
 2651TIP3    H129444   0.034   0.733  13.876 -1.3201  0.7014  1.1011
 2651TIP3    H229445  -0.054   0.850  13.839 -0.6724  0.5410 -1.0821
 2652TIP3   OH229446   2.407   5.118  16.741  0.0180  0.9413 -0.1445
 2652TIP3    H129447   2.481   5.177  16.732 -0.1292  0.9583 -1.4811
 2652TIP3    H229448   2.330   5.174  16.727 -0.1910  0.7236  0.1322
 2653TIP3   OH229449   0.881   3.050   4.385 -0.0656  0.0652 -0.1395
 2653TIP3    H129450   0.932   3.022   4.461 -1.3115 -2.6854 -0.2040
 2653TIP3    H229451   0.912   2.995   4.313 -1.3788  0.0950 -0.7623
 2654TIP3   OH229452   0.677   1.415   2.745  0.2969 -0.7147  0.5656
 2654TIP3    H129453   0.638   1.360   2.677 -0.9494 -1.0095  1.4896
 2654TIP3    H229454   0.631   1.390   2.825  1.6477 -0.2843  1.5038
 2655TIP3   OH229455   3.569   0.748  12.990  0.2034 -0.0600 -0.6082
 2655TIP3    H129456   3.644   0.779  12.940  3.0166 -0.3416  3.1015
 2655TIP3    H229457   3.525   0.827  13.020  0.1732  0.1335 -1.1594
 2656TIP3   OH229458   2.188   3.720  13.537 -0.3928 -0.1181 -0.1449
 2656TIP3    H129459   2.237   3.680  13.609 -0.6015  0.1294  0.1381
 2656TIP3    H229460   2.123   3.655  13.513 -0.9604  0.1842  0.5504
 2657TIP3   OH229461   6.685   2.361  12.501 -0.0269  0.0416  0.3550
 2657TIP3    H129462   6.655   2.408  12.579  1.3812  1.0318  0.3468
 2657TIP3    H229463   6.704   2.273  12.532  0.0111  0.2704  1.0093
 2658TIP3   OH229464   3.417   0.737   2.571 -0.3153 -0.1588  0.8116
 2658TIP3    H129465   3.431   0.783   2.488 -0.6167 -1.0690  0.2518
 2658TIP3    H229466   3.503   0.703   2.595 -0.4247 -0.7991  0.3229
 2659TIP3   OH229467   0.055   1.825   4.641  0.2305 -0.4538 -0.0790
 2659TIP3    H129468   0.049   1.737   4.603  0.8026 -0.0659 -1.0802
 2659TIP3    H229469   0.144   1.831   4.676  0.0282 -0.4457  0.4521
 2660TIP3   OH229470   3.771   4.606  17.105  0.2277 -0.0263  0.3690
 2660TIP3    H129471   3.767   4.552  17.184  0.2962 -0.1019  0.3217
 2660TIP3    H229472   3.680   4.614  17.076 -0.0775  1.7946  1.6606
 2661TIP3   OH229473   1.868   0.465  10.803 -0.2670 -0.2298  0.3455
 2661TIP3    H129474   1.781   0.427  10.818 -0.5233  0.3971  0.4904
 2661TIP3    H229475   1.864   0.497  10.712 -0.2502 -0.0318  0.4157
 2662TIP3   OH229476   4.225   4.144   1.357 -0.4836  0.3051 -0.4298
 2662TIP3    H129477   4.145   4.192   1.379  0.8207  1.0376  3.5023
 2662TIP3    H229478   4.218   4.061   1.403  1.3111  0.7404  0.7551
 2663TIP3   OH229479   3.263   0.777  12.296 -0.1626  0.1130  0.3909
 2663TIP3    H129480   3.279   0.871  12.298 -0.5616  0.2033  2.8482
 2663TIP3    H229481   3.169   0.769  12.309 -0.0415 -0.6406  0.8315
 2664TIP3   OH229482   2.122   5.195   6.187 -0.5985 -0.2934  0.1764
 2664TIP3    H129483   2.109   5.151   6.104 -0.1539 -0.6528  0.2952
 2664TIP3    H229484   2.036   5.196   6.228 -0.8872  0.1887 -0.4348
 2665TIP3   OH229485   2.185   4.943   1.322 -0.7597  0.4392 -0.8139
 2665TIP3    H129486   2.158   5.024   1.366 -1.2178 -0.6558  1.0416
 2665TIP3    H229487   2.279   4.953   1.309 -0.9035  1.4916 -1.1137
 2666TIP3   OH229488   2.441   3.166  16.530 -0.7387  0.1896  0.0412
 2666TIP3    H129489   2.362   3.198  16.573 -0.9499 -1.1383  0.6935
 2666TIP3    H229490   2.474   3.097  16.588  1.4623  1.3558  0.2860
 2667TIP3   OH229491   3.950   3.729  10.556 -0.0917 -0.0358 -0.6653
 2667TIP3    H129492   3.919   3.803  10.503  2.0427  1.4730  0.0705
 2667TIP3    H229493   4.035   3.706  10.519  1.1630  0.6214  1.5696
 2668TIP3   OH229494   3.331   6.114   5.345  0.1973 -0.0842  0.2794
 2668TIP3    H129495   3.298   6.147   5.429 -0.0360  0.5791 -0.0635
 2668TIP3    H229496   3.252   6.086   5.298  0.2774 -0.0134  0.1002
 2669TIP3   OH229497   2.710   3.169  10.140 -0.8754  0.5422  0.4695
 2669TIP3    H129498   2.692   3.126  10.224 -1.5590  1.7365  0.9773
 2669TIP3    H229499   2.723   3.098  10.078  0.3683 -0.3879  1.7205
 2670TIP3   OH229500   1.012   2.859  14.504  0.3572 -0.2068  0.3212
 2670TIP3    H129501   1.078   2.794  14.526  0.8825  0.2419  0.0952
 2670TIP3    H229502   1.048   2.905  14.428 -0.0163  0.3310  0.4605
 2671TIP3   OH229503   5.559   2.086  16.648 -0.1609 -0.2460 -0.1435
 2671TIP3    H129504   5.593   2.018  16.589 -0.9606 -1.1101  0.3570
 2671TIP3    H229505   5.541   2.160  16.591 -0.8699 -1.0471 -1.0079
 2672TIP3   OH229506   1.888   3.230  14.865  0.3267 -0.2171  0.0330
 2672TIP3    H129507   1.970   3.280  14.868 -0.1622  0.7127 -1.1628
 2672TIP3    H229508   1.837   3.262  14.939  0.2621  0.6396 -0.3710
 2673TIP3   OH229509   1.607   1.065  14.342 -0.7316 -0.2294  0.2255
 2673TIP3    H129510   1.532   1.045  14.285 -1.3754  0.5800  0.7783
 2673TIP3    H229511   1.568   1.090  14.425  0.1711 -0.0254  0.5968
 2674TIP3   OH229512   4.788   4.771  14.551  0.0992  0.5953  0.6465
 2674TIP3    H129513   4.703   4.734  14.527  1.0283 -0.3631 -1.3903
 2674TIP3    H229514   4.809   4.731  14.635 -0.6419 -0.6184  0.2729
 2675TIP3   OH229515   5.051   5.617   1.823  0.2272 -0.4525 -0.5217
 2675TIP3    H129516   5.015   5.693   1.868  0.0160 -0.7103 -0.2531
 2675TIP3    H229517   5.066   5.647   1.734 -1.9180 -0.7100 -1.0240
 2676TIP3   OH229518   2.667   0.299  11.501  0.5980 -0.1851 -0.2988
 2676TIP3    H129519   2.743   0.357  11.498  1.4225 -1.2974 -1.6326
 2676TIP3    H229520   2.678   0.249  11.582 -0.8077  2.3210  1.5906
 2677TIP3   OH229521   3.182   4.229  15.743  0.1720 -0.2110  0.7050
 2677TIP3    H129522   3.191   4.324  15.749 -2.6961  0.1286  1.0243
 2677TIP3    H229523   3.216   4.207  15.656 -1.0664  1.4410 -0.2493
 2678TIP3   OH229524   1.062   1.531  15.764  0.1680  0.0897 -0.1740
 2678TIP3    H129525   1.053   1.459  15.827 -1.5271  0.3429 -0.0603
 2678TIP3    H229526   1.085   1.607  15.818  1.5213 -0.2523 -0.2396
 2679TIP3   OH229527   5.187   4.048   0.995 -0.1133 -0.2590 -0.4656
 2679TIP3    H129528   5.095   4.025   0.985  0.0071 -0.7793 -0.4096
 2679TIP3    H229529   5.187   4.143   1.002 -0.5784 -0.1882 -1.2511
 2680TIP3   OH229530   1.495   0.148   5.406  0.4705  0.3237  0.2755
 2680TIP3    H129531   1.570   0.090   5.398  0.4321  0.3991 -0.7655
 2680TIP3    H229532   1.520   0.210   5.475  0.8392 -0.4100  0.8236
 2681TIP3   OH229533   5.741   5.686   1.297  0.1108 -0.4738  0.6381
 2681TIP3    H129534   5.745   5.604   1.248 -0.2406 -0.3260  0.3621
 2681TIP3    H229535   5.710   5.750   1.233 -0.9460 -0.4026  1.2069
 2682TIP3   OH229536   0.487   4.709  15.304  0.0581  0.1811 -0.6601
 2682TIP3    H129537   0.536   4.692  15.384 -0.1173  1.0289 -0.3625
 2682TIP3    H229538   0.487   4.805  15.295 -1.1917  0.1849 -0.8609
 2683TIP3   OH229539   1.616   1.637  11.386  0.1835  0.3551 -0.5550
 2683TIP3    H129540   1.561   1.600  11.456  0.3226 -0.0236 -0.6434
 2683TIP3    H229541   1.602   1.731  11.392 -0.7616  0.2455 -0.8068
 2684TIP3   OH229542   6.751   5.976   3.119  0.1729  0.0890 -0.3136
 2684TIP3    H129543   6.774   6.067   3.140 -1.0846 -0.0769  2.1119
 2684TIP3    H229544   6.834   5.936   3.093  0.6684  2.0114 -1.9887
 2685TIP3   OH229545   1.266   0.344  15.023  0.4020  0.2335  0.1399
 2685TIP3    H129546   1.325   0.383  14.959  0.7051 -0.3510  0.0644
 2685TIP3    H229547   1.185   0.395  15.014  1.1930  1.6707  0.9270
 2686TIP3   OH229548   3.052   0.267   4.625 -0.2773  0.0991 -0.7204
 2686TIP3    H129549   2.992   0.195   4.610  0.3813 -0.2271 -1.9375
 2686TIP3    H229550   3.077   0.296   4.538 -0.4896  1.7833 -0.2527
 2687TIP3   OH229551   5.279   1.548   5.112  0.4498 -0.5472 -0.5320
 2687TIP3    H129552   5.239   1.461   5.108 -0.9801 -0.0222  0.9522
 2687TIP3    H229553   5.352   1.545   5.050 -0.8637 -2.1112 -2.0780
 2688TIP3   OH229554   5.650   0.453  16.215 -0.1323  0.2931  0.0456
 2688TIP3    H129555   5.725   0.401  16.244  0.2009  0.8914  0.2850
 2688TIP3    H229556   5.676   0.486  16.129 -0.1157  0.5124  0.1354
 2689TIP3   OH229557   6.476   5.538   1.402  0.0787 -0.3600  0.1414
 2689TIP3    H129558   6.410   5.529   1.472  0.3657 -0.2703  0.4273
 2689TIP3    H229559   6.530   5.460   1.410 -0.1432 -0.5559 -0.2561
 2690TIP3   OH229560   5.189   3.153   1.783  0.0299  0.5467 -0.0379
 2690TIP3    H129561   5.197   3.068   1.825  0.1808  0.1934 -0.7736
 2690TIP3    H229562   5.192   3.135   1.690  1.7657  1.4987 -0.2260
 2691TIP3   OH229563   6.761   2.761   2.329  0.3484  0.1267 -0.7891
 2691TIP3    H129564   6.789   2.839   2.376 -2.2989  0.8161 -0.2091
 2691TIP3    H229565   6.691   2.790   2.272 -1.8262 -2.0045  0.5815
 2692TIP3   OH229566   5.519   2.517  10.867  0.6809  0.2999  0.4451
 2692TIP3    H129567   5.511   2.428  10.833  0.0883  0.5104  0.0089
 2692TIP3    H229568   5.469   2.571  10.805  1.8846  1.0846  0.1194
 2693TIP3   OH229569   0.592   3.140   5.836 -0.0352  0.8920  0.3622
 2693TIP3    H129570   0.561   3.228   5.856  0.3508  1.3155 -0.8374
 2693TIP3    H229571   0.552   3.119   5.751  0.8729  0.4287  0.0307
 2694TIP3   OH229572   6.138   3.514   1.669  0.4808  0.1460 -0.1267
 2694TIP3    H129573   6.064   3.522   1.730  0.6496 -0.6325  0.1829
 2694TIP3    H229574   6.099   3.533   1.583 -0.0034  0.0901  0.0734
 2695TIP3   OH229575   4.777   2.751   0.630  0.3687 -0.1404  0.3806
 2695TIP3    H129576   4.836   2.748   0.705  1.0231 -0.0453 -0.1168
 2695TIP3    H229577   4.808   2.680   0.573 -0.1730 -0.2679  0.2433
 2696TIP3   OH229578   2.960   1.546  13.757  0.0086  0.0800  0.1667
 2696TIP3    H129579   2.991   1.576  13.843 -0.0018  0.1470  0.1473
 2696TIP3    H229580   2.946   1.452  13.768  1.8374 -0.2839 -0.3115
 2697TIP3   OH229581   5.040   3.722   3.013  0.1248  0.7670  0.0073
 2697TIP3    H129582   5.026   3.772   3.094  0.6903  0.6676  0.1747
 2697TIP3    H229583   4.992   3.771   2.946 -2.7151 -0.6470  0.8671
 2698TIP3   OH229584   4.177   3.650  10.435  0.4336  0.1804 -0.1701
 2698TIP3    H129585   4.243   3.701  10.484  1.4812 -0.2498 -1.0888
 2698TIP3    H229586   4.215   3.562  10.430  0.9357  0.4711 -2.7311
 2699TIP3   OH229587   4.268   5.514  15.455  0.6699 -1.1564  0.2339
 2699TIP3    H129588   4.221   5.569  15.393 -0.2278 -1.8099  0.3056
 2699TIP3    H229589   4.359   5.519  15.427  0.2650 -1.6223 -1.3041
 2700TIP3   OH229590   4.140   3.606   1.940 -0.1139 -0.2780 -0.5650
 2700TIP3    H129591   4.106   3.690   1.970  0.1091 -0.4798  0.2630
 2700TIP3    H229592   4.224   3.626   1.900 -0.2011 -0.0685 -0.6420
 2701TIP3   OH229593   5.365   0.647  13.354  0.3226  0.6131 -0.5131
 2701TIP3    H129594   5.359   0.568  13.408 -2.0473 -0.1118 -1.7371
 2701TIP3    H229595   5.435   0.628  13.291 -0.6499 -0.8158 -1.2030
 2702TIP3   OH229596   5.550   4.901  15.626  0.0886  0.6555 -0.1581
 2702TIP3    H129597   5.598   4.911  15.543 -0.6275 -0.8315 -0.7900
 2702TIP3    H229598   5.551   4.807  15.642 -1.1286  0.7768  0.7239
 2703TIP3   OH229599   4.878   4.826  11.447  0.1757  0.2564  0.2053
 2703TIP3    H129600   4.936   4.807  11.521 -1.6933 -1.2052  1.4007
 2703TIP3    H229601   4.845   4.740  11.420  1.6595  0.6152 -3.1489
 2704TIP3   OH229602   4.831   5.945  13.492 -0.0651  0.3449 -0.0366
 2704TIP3    H129603   4.747   5.980  13.520  0.0530  0.1542  0.5696
 2704TIP3    H229604   4.822   5.850  13.500  0.9872  0.3822  2.3994
 2705TIP3   OH229605   4.187   2.108  12.507 -0.1870 -0.7260  0.5490
 2705TIP3    H129606   4.172   2.202  12.506  0.3542 -0.6253  1.2784
 2705TIP3    H229607   4.265   2.095  12.455  0.1505 -0.6887  1.0387
 2706TIP3   OH229608   3.912   5.189  14.835 -0.4407 -0.1504  0.1731
 2706TIP3    H129609   3.891   5.263  14.892 -0.7999  0.7916 -1.1283
 2706TIP3    H229610   3.828   5.149  14.816 -0.1958 -1.2788  1.3240
 2707TIP3   OH229611   1.723   3.512  13.385 -0.0205  0.4433  0.2448
 2707TIP3    H129612   1.729   3.465  13.302  1.4227 -1.1796  1.2156
 2707TIP3    H229613   1.791   3.579  13.380  0.4863 -0.0577  0.3453
 2708TIP3   OH229614   4.668   1.365  11.968 -0.2141 -0.1647 -0.0098
 2708TIP3    H129615   4.574   1.368  11.986  0.1447 -1.2412  2.4175
 2708TIP3    H229616   4.710   1.378  12.053  1.8311 -0.9611 -0.8151
 2709TIP3   OH229617   2.429   3.050   4.196 -0.4056 -0.0668  0.3060
 2709TIP3    H129618   2.510   2.999   4.200 -0.0466  0.4692  0.0079
 2709TIP3    H229619   2.444   3.123   4.256 -0.0879  0.8334 -0.8427
 2710TIP3   OH229620   5.847   2.789  14.841  0.0054 -0.0870 -0.0317
 2710TIP3    H129621   5.755   2.812  14.854 -0.0247 -0.5815  0.7293
 2710TIP3    H229622   5.885   2.865  14.798 -1.1549 -0.5904 -2.0734
 2711TIP3   OH229623   3.539   3.517  12.368 -0.0835  0.3752  0.1692
 2711TIP3    H129624   3.491   3.556  12.295 -0.1515 -2.3242 -1.3616
 2711TIP3    H229625   3.475   3.459  12.410  0.5247  0.3600  1.1011
 2712TIP3   OH229626   0.345   1.075  14.433  0.2662  0.0002 -0.4028
 2712TIP3    H129627   0.344   1.068  14.338  1.4880 -0.6326 -0.3863
 2712TIP3    H229628   0.362   0.986  14.463  0.2002  0.2544  0.4010
 2713TIP3   OH229629   6.733   5.568  12.011  0.0220 -0.4884 -0.0066
 2713TIP3    H129630   6.700   5.597  11.926  0.3384  0.0573  0.0539
 2713TIP3    H229631   6.727   5.472  12.007  0.9273 -0.5244 -1.0182
 2714TIP3   OH229632   3.475   3.002   3.773  0.5196 -0.4268 -0.2533
 2714TIP3    H129633   3.569   3.006   3.756  0.3004  0.1197 -1.4549
 2714TIP3    H229634   3.435   3.043   3.697 -0.5862  2.1217  1.5437
 2715TIP3   OH229635   5.242   3.781  15.611 -0.4341 -0.3514  0.4983
 2715TIP3    H129636   5.158   3.738  15.593 -0.6554  0.2039  0.1686
 2715TIP3    H229637   5.303   3.709  15.627 -0.6559 -0.8195 -0.6664
 2716TIP3   OH229638   0.392   2.754  14.304 -0.1355 -0.7859 -0.7775
 2716TIP3    H129639   0.302   2.784  14.318  0.0206 -0.5049 -0.3519
 2716TIP3    H229640   0.382   2.667  14.264 -0.5932 -0.7176 -0.8238
 2717TIP3   OH229641   2.152   5.430  14.810 -0.2797 -0.1278  0.3012
 2717TIP3    H129642   2.057   5.420  14.801 -0.3762  1.2698 -0.4644
 2717TIP3    H229643   2.168   5.523  14.795  1.5431 -0.8043 -2.8723
 2718TIP3   OH229644   1.499   4.367  16.515 -0.5011 -0.1123  0.0683
 2718TIP3    H129645   1.493   4.423  16.592  0.2495  0.6033 -0.3713
 2718TIP3    H229646   1.591   4.340  16.512 -0.6856 -0.7410 -0.1636
 2719TIP3   OH229647   4.572   3.993  14.002 -0.6665  0.2672  0.6514
 2719TIP3    H129648   4.603   4.039  13.924 -0.2855 -2.5436 -1.0044
 2719TIP3    H229649   4.476   3.990  13.992 -0.6016 -0.2988  0.1150
 2720TIP3   OH229650   3.700   5.288  15.098  0.1170 -0.3259 -0.3490
 2720TIP3    H129651   3.608   5.317  15.096  0.1010  0.2445  3.1556
 2720TIP3    H229652   3.695   5.193  15.089 -0.3995 -0.1108 -4.0716
 2721TIP3   OH229653   2.728   2.310   4.056  0.1275  0.4661 -0.2669
 2721TIP3    H129654   2.689   2.390   4.022 -0.5375 -0.8045 -2.7312
 2721TIP3    H229655   2.761   2.264   3.979  0.8286 -1.4646  1.0871
 2722TIP3   OH229656   5.451   4.483   5.530 -0.5054  0.2903 -0.1787
 2722TIP3    H129657   5.359   4.456   5.531 -0.7150  1.0152  1.0475
 2722TIP3    H229658   5.497   4.414   5.577 -0.4272  0.0090 -0.6541
 2723TIP3   OH229659   3.735   0.518   5.573 -0.3280  0.3223  0.1724
 2723TIP3    H129660   3.802   0.562   5.522 -0.8550  1.9371  0.8108
 2723TIP3    H229661   3.705   0.584   5.636  0.5794 -1.6584  2.8987
 2724TIP3   OH229662   5.308   0.453  15.348 -0.2868 -0.0374  0.4706
 2724TIP3    H129663   5.279   0.541  15.326  0.9598  0.1634 -0.5193
 2724TIP3    H229664   5.285   0.442  15.440 -0.7722  1.1900  0.5118
 2725TIP3   OH229665   4.102   6.038   2.981 -0.4524 -0.5492  0.4464
 2725TIP3    H129666   4.014   6.011   3.007 -0.7020 -1.0980 -0.8779
 2725TIP3    H229667   4.156   5.960   2.993  0.1422  0.0906  2.3443
 2726TIP3   OH229668   0.101   5.343  13.554 -0.6715 -0.0915 -0.3872
 2726TIP3    H129669   0.107   5.253  13.522 -1.3484 -0.4293  0.4119
 2726TIP3    H229670   0.007   5.362  13.558 -0.5231  1.1085 -1.7706
 2727TIP3   OH229671   5.407   6.163   2.987  0.5974  0.1722  0.2289
 2727TIP3    H129672   5.325   6.194   3.026 -0.6893 -0.1086 -2.1123
 2727TIP3    H229673   5.455   6.125   3.061 -0.6386  1.7790  1.9685
 2728TIP3   OH229674   3.288   2.085  12.056  0.2530  0.4584 -0.1852
 2728TIP3    H129675   3.287   1.989  12.054  2.2897  0.4070 -1.2096
 2728TIP3    H229676   3.212   2.108  12.109 -0.4705 -1.7047 -0.1531
 2729TIP3   OH229677   0.553   1.414  14.370  0.1314 -0.8708 -0.6398
 2729TIP3    H129678   0.586   1.325  14.360 -0.3175 -0.9606 -1.4384
 2729TIP3    H229679   0.462   1.403  14.397  0.7126 -0.6263  1.6209
 2730TIP3   OH229680   3.202   2.596   5.851 -0.1901  0.2740  0.0951
 2730TIP3    H129681   3.178   2.565   5.764  0.5314 -0.4758  0.1566
 2730TIP3    H229682   3.118   2.613   5.895 -0.5908 -1.1250 -0.1109
 2731TIP3   OH229683   1.641   5.793   3.907 -0.2896 -0.6043 -0.1541
 2731TIP3    H129684   1.597   5.752   3.981 -1.5841 -0.3017 -0.7299
 2731TIP3    H229685   1.692   5.864   3.946 -0.2425 -1.0079  0.5398
 2732TIP3   OH229686   3.936   5.935  11.647  0.4151  0.4907  0.4674
 2732TIP3    H129687   3.865   5.958  11.706  0.8686 -0.3548  1.3678
 2732TIP3    H229688   3.997   5.885  11.701  0.8313 -0.3279 -0.7279
 2733TIP3   OH229689   1.855   4.018  14.929  0.2546 -0.1556 -0.2200
 2733TIP3    H129690   1.793   3.949  14.904  1.0604 -0.3473 -1.8365
 2733TIP3    H229691   1.844   4.027  15.023  0.4741 -2.8802  0.1484
 2734TIP3   OH229692   1.557   6.389   2.295  0.2261 -0.0003 -0.6168
 2734TIP3    H129693   1.617   6.426   2.359  0.7430 -0.4882 -0.8092
 2734TIP3    H229694   1.606   6.391   2.213 -0.7374  1.4197 -1.1934
 2735TIP3   OH229695   2.176   1.701  16.593  0.0653 -0.3800  0.4046
 2735TIP3    H129696   2.083   1.714  16.615 -0.4399  1.0782 -2.2425
 2735TIP3    H229697   2.179   1.612  16.558 -0.2681 -0.5305  0.7398
 2736TIP3   OH229698   5.926   6.243   1.482  0.1467  0.4236  0.4558
 2736TIP3    H129699   5.994   6.177   1.499 -1.2742 -1.0638  0.5614
 2736TIP3    H229700   5.942   6.311   1.548  2.9556  1.3207 -0.9930
 2737TIP3   OH229701   4.728   5.627   5.237 -0.3292 -0.2142 -0.1030
 2737TIP3    H129702   4.699   5.571   5.309 -3.4340  1.2922 -0.0243
 2737TIP3    H229703   4.805   5.671   5.270 -0.2812 -1.3357  1.3789
 2738TIP3   OH229704   0.107   5.810   3.003 -0.2012 -0.2184 -0.3393
 2738TIP3    H129705   0.176   5.843   2.946 -0.0502  0.4762  0.2351
 2738TIP3    H229706   0.063   5.742   2.951  1.2677 -1.0763 -0.5036
 2739TIP3   OH229707   2.486   1.013  10.942  0.4794  0.3935 -0.2111
 2739TIP3    H129708   2.579   1.005  10.923  0.3229 -0.1328 -0.8039
 2739TIP3    H229709   2.469   1.107  10.937  0.9907  0.4980 -0.0212
 2740TIP3   OH229710   6.490   3.398   1.928 -0.0022  0.0287  0.9558
 2740TIP3    H129711   6.563   3.419   1.987  0.9096  0.8672 -0.4226
 2740TIP3    H229712   6.456   3.483   1.901  0.6719 -0.2762 -0.9983
 2741TIP3   OH229713   3.191   6.274   1.526  0.1045 -0.4149 -0.4084
 2741TIP3    H129714   3.145   6.336   1.470 -0.0402 -1.2552 -1.2333
 2741TIP3    H229715   3.266   6.245   1.474 -0.9094 -2.4149 -0.8464
 2742TIP3   OH229716   1.847   0.307   0.987  0.1516 -0.2390  0.7514
 2742TIP3    H129717   1.840   0.236   0.923  0.9070  0.4918 -0.1600
 2742TIP3    H229718   1.793   0.278   1.060  0.0343 -1.5229  0.1830
 2743TIP3   OH229719   0.377   2.310  10.292  0.6574 -0.0636 -0.0443
 2743TIP3    H129720   0.417   2.390  10.327  1.4745 -0.5070  0.0784
 2743TIP3    H229721   0.286   2.314  10.320  0.4078  1.3595 -0.9968
 2744TIP3   OH229722   0.089   2.815   2.076 -0.0653  0.0883 -0.1264
 2744TIP3    H129723   0.156   2.803   2.143  0.1056 -0.3554 -0.3751
 2744TIP3    H229724   0.006   2.806   2.124  0.0517  0.3108  0.1199
 2745TIP3   OH229725   1.461   0.915  15.414 -0.1011  0.4409 -0.7293
 2745TIP3    H129726   1.417   0.990  15.455 -1.5567 -0.0358 -1.3678
 2745TIP3    H229727   1.462   0.936  15.321 -0.1902 -0.1700 -0.8707
 2746TIP3   OH229728   4.351   3.219  14.471 -0.4697 -0.2837  0.3340
 2746TIP3    H129729   4.263   3.258  14.472  0.9184  3.2892 -0.2049
 2746TIP3    H229730   4.382   3.228  14.561 -0.2878 -0.6040  0.3061
 2747TIP3   OH229731   2.557   6.196  14.108 -0.3329  0.2846 -0.3788
 2747TIP3    H129732   2.646   6.196  14.074 -1.2930 -2.0496 -3.3898
 2747TIP3    H229733   2.556   6.125  14.172  0.1427  0.9235  0.3556
 2748TIP3   OH229734   1.981   4.615  14.498 -0.3660  0.0837 -0.5179
 2748TIP3    H129735   1.986   4.634  14.592  0.2540 -1.5637 -0.1729
 2748TIP3    H229736   1.891   4.586  14.484 -0.9806  2.0108 -0.8227
 2749TIP3   OH229737   3.569   0.195   3.162  0.2241  0.1862 -0.6136
 2749TIP3    H129738   3.541   0.274   3.116 -0.3567 -0.1045 -0.7700
 2749TIP3    H229739   3.550   0.212   3.254 -3.0691 -1.0075 -0.9411
 2750TIP3   OH229740   6.192   0.966  16.564  0.1782  0.6320  0.7412
 2750TIP3    H129741   6.120   1.023  16.538  0.6362  1.0897  0.4512
 2750TIP3    H229742   6.228   0.934  16.482 -0.4920 -0.6147  0.9200
 2751TIP3   OH229743   4.052   0.919  14.992  0.3763 -0.1103  0.0237
 2751TIP3    H129744   4.139   0.931  14.953 -0.0256  1.4087 -0.4980
 2751TIP3    H229745   3.994   0.973  14.938 -0.8161 -0.7250  0.6519
 2752TIP3   OH229746   5.394   4.600   3.940  0.1385  0.4188 -0.9489
 2752TIP3    H129747   5.398   4.505   3.948 -0.1265  0.3610 -1.4706
 2752TIP3    H229748   5.304   4.619   3.916 -0.3925  0.9722  1.2208
 2753TIP3   OH229749   3.561   0.420   0.324  0.2846  0.2568  0.7114
 2753TIP3    H129750   3.488   0.482   0.331  1.5236  1.7557  1.1109
 2753TIP3    H229751   3.550   0.380   0.238 -1.3742 -0.0635  1.0406
 2754TIP3   OH229752   1.058   4.563   4.195  0.9317  0.4828 -0.4730
 2754TIP3    H129753   1.058   4.642   4.249 -1.2921  0.9247 -1.0394
 2754TIP3    H229754   1.122   4.581   4.126 -0.3107  2.3016 -1.2259
 2755TIP3   OH229755   2.495   2.700   4.208 -0.0864 -0.2313 -0.1175
 2755TIP3    H129756   2.430   2.765   4.234 -1.6534 -1.4458 -0.8032
 2755TIP3    H229757   2.578   2.734   4.241 -0.7252  2.4067 -0.9769
 2756TIP3   OH229758   3.347   6.356  15.027  0.2198  0.2773 -0.1678
 2756TIP3    H129759   3.441   6.337  15.020  0.0471 -1.3872  1.2491
 2756TIP3    H229760   3.330   6.356  15.121 -1.7155 -2.5365 -0.3807
 2757TIP3   OH229761   3.482   3.609   1.963 -0.2098 -0.2887  0.2095
 2757TIP3    H129762   3.518   3.694   1.987 -0.1768 -0.3573  0.4062
 2757TIP3    H229763   3.553   3.566   1.916 -0.6324  0.2547 -0.9497
 2758TIP3   OH229764   6.588   5.816   5.407  0.4421 -0.5292  0.1125
 2758TIP3    H129765   6.561   5.883   5.468  1.2403  0.2197 -0.3323
 2758TIP3    H229766   6.683   5.826   5.400  0.4232 -0.8893 -0.9026
 2759TIP3   OH229767   0.518   3.443   4.631  0.4069 -0.4161  0.5329
 2759TIP3    H129768   0.481   3.365   4.672 -2.6375  0.8441  0.4676
 2759TIP3    H229769   0.543   3.414   4.543 -1.0121 -1.2691  0.3810
 2760TIP3   OH229770   5.454   1.216   2.767 -0.4153 -0.0782 -0.3799
 2760TIP3    H129771   5.488   1.305   2.756  0.8143 -0.4022  0.6555
 2760TIP3    H229772   5.462   1.177   2.680 -1.4357  0.9516 -0.9703
 2761TIP3   OH229773   0.736   3.914  12.389  0.1619  0.3054  0.1419
 2761TIP3    H129774   0.787   3.882  12.463 -0.6944 -3.5891 -0.7216
 2761TIP3    H229775   0.785   3.885  12.312 -1.1190  0.3960 -0.7443
 2762TIP3   OH229776   0.324   3.203  17.140 -0.7057  0.1230 -0.2173
 2762TIP3    H129777   0.323   3.288  17.186  0.2725  0.0161  0.0244
 2762TIP3    H229778   0.416   3.188  17.119 -0.9909 -0.4314 -1.1221
 2763TIP3   OH229779   2.024   2.258  12.715  0.2761  0.1467  0.0536
 2763TIP3    H129780   2.004   2.224  12.628  0.8761  1.8756 -0.8062
 2763TIP3    H229781   2.083   2.332  12.699 -1.6951  2.2016  1.6959
 2764TIP3   OH229782   2.360   1.701   5.313 -0.0778 -0.0356 -0.3488
 2764TIP3    H129783   2.369   1.795   5.292 -0.5803 -0.2826 -1.8167
 2764TIP3    H229784   2.334   1.699   5.405  2.1471  1.1698  0.3847
 2765TIP3   OH229785   1.562   3.453   2.053 -0.4385  0.4384  0.3127
 2765TIP3    H129786   1.609   3.388   2.106 -0.5447  1.0671  1.2191
 2765TIP3    H229787   1.573   3.535   2.102 -1.5860  0.8019 -0.0093
 2766TIP3   OH229788   1.055   6.628  16.840  0.0492  0.2340  0.1037
 2766TIP3    H129789   1.000   6.609  16.917  2.0702 -1.4131  1.2571
 2766TIP3    H229790   1.084   6.542  16.811  2.2953  1.0475 -0.2048
 2767TIP3   OH229791   6.394   2.293  14.951  0.3032 -0.3755 -0.1549
 2767TIP3    H129792   6.348   2.209  14.951 -1.8288  0.7139  0.0598
 2767TIP3    H229793   6.331   2.355  14.989  1.1806  1.6538 -1.7890
 2768TIP3   OH229794   0.687   6.295   6.224 -0.1222 -0.5207  0.1260
 2768TIP3    H129795   0.622   6.355   6.189 -0.2384 -0.5977  0.2100
 2768TIP3    H229796   0.637   6.231   6.274 -0.2619 -2.0814 -1.8574
 2769TIP3   OH229797   0.947   3.185   4.111 -0.0391 -0.6953 -0.0355
 2769TIP3    H129798   0.901   3.135   4.179  1.1488 -0.2808  1.1180
 2769TIP3    H229799   0.926   3.277   4.130 -0.4828 -0.6283 -0.8311
 2770TIP3   OH229800   1.445   0.592  10.785 -0.4044 -0.0544 -0.2315
 2770TIP3    H129801   1.394   0.591  10.866 -1.1470 -0.8013 -0.6870
 2770TIP3    H229802   1.385   0.627  10.719 -1.2458 -3.1725 -1.2924
 2771TIP3   OH229803   1.574   1.041   5.313  0.1732 -0.4630  0.3423
 2771TIP3    H129804   1.539   0.988   5.385 -0.8495 -0.2207  0.0372
 2771TIP3    H229805   1.541   0.998   5.234  2.3998 -1.5267 -0.0734
 2772TIP3   OH229806   1.985   1.026  13.212  0.8080 -0.2155  0.7266
 2772TIP3    H129807   2.053   0.967  13.178  1.4521  0.4103  0.9181
 2772TIP3    H229808   2.020   1.058  13.295  0.4019  0.3318  0.6917
 2773TIP3   OH229809   2.557   6.772   4.910  0.2460  0.0820 -0.2799
 2773TIP3    H129810   2.482   6.748   4.964 -0.5501  1.9728 -0.4882
 2773TIP3    H229811   2.564   6.867   4.917  0.2137  0.4353 -3.3133
 2774TIP3   OH229812   2.750   4.363   5.647 -0.3409 -0.1600  0.1540
 2774TIP3    H129813   2.659   4.380   5.672 -0.1780 -0.4610  0.9635
 2774TIP3    H229814   2.773   4.437   5.590 -0.8054  0.3960  0.6761
 2775TIP3   OH229815   4.810   6.158  13.875  0.6496  0.0060  0.2454
 2775TIP3    H129816   4.727   6.206  13.881  0.9290  0.9236 -2.0899
 2775TIP3    H229817   4.804   6.090  13.942 -1.4442  0.8381  0.9743
 2776TIP3   OH229818   1.763   6.509   5.988  0.1254  0.0818  0.2293
 2776TIP3    H129819   1.820   6.551   5.924 -1.3805 -0.9346 -1.8734
 2776TIP3    H229820   1.708   6.580   6.022 -0.1656  0.3685 -0.8253
 2777TIP3   OH229821   5.632   1.430   0.765  0.4171  0.2385  0.1687
 2777TIP3    H129822   5.706   1.374   0.743  0.5123  1.5897 -3.6448
 2777TIP3    H229823   5.667   1.494   0.827  1.5128 -0.9873  0.8763
 2778TIP3   OH229824   5.491   6.141  16.115  0.1523  0.0881  0.7510
 2778TIP3    H129825   5.540   6.065  16.084 -1.2498 -0.2687 -0.6477
 2778TIP3    H229826   5.455   6.113  16.199 -0.1246 -0.6960  0.3821
 2779TIP3   OH229827   5.653   1.291  16.742 -0.4862  0.1685  0.0121
 2779TIP3    H129828   5.652   1.239  16.822 -0.0824 -0.2661 -0.2665
 2779TIP3    H229829   5.735   1.269  16.698  0.2260  1.8431  0.4108
 2780TIP3   OH229830   1.449   6.044  11.822 -0.5362  0.3379  0.0146
 2780TIP3    H129831   1.505   6.024  11.897 -2.0488  1.2148  1.4371
 2780TIP3    H229832   1.490   6.119  11.780  0.4802 -0.3386 -0.2380
 2781TIP3   OH229833   2.210   0.392   4.982  0.2340  0.7292  0.1381
 2781TIP3    H129834   2.251   0.455   5.041  1.1530 -1.0905  1.5062
 2781TIP3    H229835   2.270   0.386   4.908  0.3098  1.1962  0.1600
 2782TIP3   OH229836   1.346   1.265  16.608  0.2012  0.1584 -0.3997
 2782TIP3    H129837   1.274   1.235  16.552  0.3898  0.6312 -0.9020
 2782TIP3    H229838   1.417   1.286  16.547  0.0455  1.7249 -0.1064
 2783TIP3   OH229839   5.349   1.740   6.130  0.3366 -0.0207  0.0583
 2783TIP3    H129840   5.367   1.811   6.069  1.0745 -0.4028 -0.1811
 2783TIP3    H229841   5.390   1.663   6.090  0.5188 -0.3491  0.8575
 2784TIP3   OH229842   5.211   6.534  11.801 -0.2080  0.3986 -0.4097
 2784TIP3    H129843   5.210   6.581  11.884  0.0973 -0.0007 -0.1726
 2784TIP3    H229844   5.119   6.511  11.785 -0.1687 -0.2228  0.2257
 2785TIP3   OH229845   2.009   2.560   4.365  0.1817 -0.4185  0.0722
 2785TIP3    H129846   2.022   2.478   4.413  1.3132 -0.0382  0.4530
 2785TIP3    H229847   2.083   2.614   4.391 -1.1156  1.1492  0.6860
 2786TIP3   OH229848   5.404   0.441  15.872  0.0807 -0.1759  0.2074
 2786TIP3    H129849   5.416   0.356  15.915 -1.2259 -0.4425  0.0868
 2786TIP3    H229850   5.391   0.420  15.780 -1.1298  0.0653  0.3087
 2787TIP3   OH229851   4.653   0.148   3.351  0.1470 -0.1329 -0.5103
 2787TIP3    H129852   4.684   0.237   3.335  2.8469 -0.9420 -0.3231
 2787TIP3    H229853   4.596   0.156   3.428  0.6438  1.3765 -0.2653
 2788TIP3   OH229854   2.920   0.555   0.041 -0.1412 -0.0328 -0.0864
 2788TIP3    H129855   2.848   0.492   0.036  0.9621 -1.3774  0.2213
 2788TIP3    H229856   2.888   0.625   0.098 -1.2924 -0.4605 -0.1948
 2789TIP3   OH229857   6.189   1.603   3.115 -0.2625 -0.0201 -0.0402
 2789TIP3    H129858   6.262   1.541   3.112  2.2718  2.7951 -0.3169
 2789TIP3    H229859   6.178   1.623   3.208 -1.6349 -1.3650  0.1356
 2790TIP3   OH229860   3.772   5.003   2.903 -0.0550  0.5107  0.6005
 2790TIP3    H129861   3.806   5.036   2.820 -0.0888  1.2808  0.8834
 2790TIP3    H229862   3.704   4.940   2.878  1.7817 -1.3610  0.0214
 2791TIP3   OH229863   4.584   4.163  15.807  0.4286 -0.2461  0.5228
 2791TIP3    H129864   4.492   4.173  15.783  0.4219  0.0504  0.6696
 2791TIP3    H229865   4.582   4.116  15.890  0.3981 -0.0029  0.6609
 2792TIP3   OH229866   0.964   3.478   1.763 -0.3405  0.1893  0.0562
 2792TIP3    H129867   1.010   3.522   1.691 -0.0658  0.7260  0.5540
 2792TIP3    H229868   0.930   3.549   1.817  0.0777 -0.2065  0.8588
 2793TIP3   OH229869   0.096   2.751   5.038  0.5621 -0.1248 -0.4586
 2793TIP3    H129870   0.037   2.734   5.112  0.5063 -0.0977 -0.4965
 2793TIP3    H229871   0.145   2.669   5.027 -0.0442 -0.4270 -0.9494
 2794TIP3   OH229872   0.726   3.004  16.947 -0.1667  0.0737 -0.1771
 2794TIP3    H129873   0.678   3.080  16.979 -2.4372 -1.3369  0.0110
 2794TIP3    H229874   0.694   2.991  16.858  0.6907 -0.2599 -0.4418
 2795TIP3   OH229875   5.680   6.013  15.286 -0.0875 -0.1612 -0.4427
 2795TIP3    H129876   5.677   6.058  15.202 -3.3457  2.7000  0.9451
 2795TIP3    H229877   5.607   5.951  15.283  0.2252 -0.5595 -0.0007
 2796TIP3   OH229878   6.468   2.659   4.237 -0.0280  0.1460 -0.3461
 2796TIP3    H129879   6.389   2.607   4.219 -0.0802  0.1049  0.0060
 2796TIP3    H229880   6.506   2.620   4.316 -0.3386  0.9436  0.2099
 2797TIP3   OH229881   1.637   1.472   4.902  0.4861  0.3267 -0.6662
 2797TIP3    H129882   1.603   1.508   4.820  1.7724  1.8812 -0.5608
 2797TIP3    H229883   1.598   1.528   4.970  0.7190  0.0862 -0.3325
 2798TIP3   OH229884   4.663   5.602  12.571  0.0789  0.0284  0.2662
 2798TIP3    H129885   4.742   5.551  12.559 -0.1354 -0.2247 -0.0935
 2798TIP3    H229886   4.689   5.692  12.553 -0.0410 -0.2386 -1.3373
 2799TIP3   OH229887   0.496   0.430  13.478 -0.2588  1.1562 -0.3569
 2799TIP3    H129888   0.549   0.357  13.445 -3.3978 -1.4944  0.0253
 2799TIP3    H229889   0.467   0.476  13.399  0.8424  1.3577 -0.6599
 2800TIP3   OH229890   4.472   3.634  15.257  0.3286 -0.0319 -0.1539
 2800TIP3    H129891   4.527   3.593  15.324 -0.5885 -0.7269  0.1912
 2800TIP3    H229892   4.531   3.648  15.183  0.6067 -2.2616 -0.4014
 2801TIP3   OH229893   0.103   6.292  15.268  0.0499  0.7129  0.1836
 2801TIP3    H129894   0.167   6.314  15.335  1.0243  0.5455 -0.6648
 2801TIP3    H229895   0.049   6.223  15.307  1.2684 -0.1290  0.4226
 2802TIP3   OH229896   3.021   6.113  15.688 -0.5696  0.0959 -0.5362
 2802TIP3    H129897   2.946   6.107  15.748 -2.5155 -0.8748 -2.9029
 2802TIP3    H229898   3.093   6.072  15.736 -2.4214 -2.0198  0.6187
 2803TIP3   OH229899   0.432   2.863   4.731 -0.1038  0.7102  0.2486
 2803TIP3    H129900   0.339   2.844   4.720 -0.1806 -0.3823  2.2536
 2803TIP3    H229901   0.474   2.777   4.732  0.8354  1.1545  0.0790
 2804TIP3   OH229902   3.082   3.634   5.685 -0.7487 -0.2316  0.0639
 2804TIP3    H129903   3.148   3.658   5.749 -1.0555 -0.5869  0.5190
 2804TIP3    H229904   3.107   3.546   5.656 -1.9544 -1.0949  1.5070
 2805TIP3   OH229905   1.853   0.085  16.557 -0.4857  0.3881 -0.3449
 2805TIP3    H129906   1.822   0.174  16.571 -0.7461  0.4418 -1.2063
 2805TIP3    H229907   1.817   0.060  16.472  0.3502 -0.2063 -0.5376
 2806TIP3   OH229908   5.268   2.419   3.384 -0.2843  0.0006 -0.1449
 2806TIP3    H129909   5.213   2.441   3.309 -0.3576 -0.2833 -0.1774
 2806TIP3    H229910   5.206   2.410   3.457 -0.0930  1.4510  0.2213
 2807TIP3   OH229911   1.994   3.747   0.207 -0.3263 -0.2678  0.1633
 2807TIP3    H129912   1.988   3.700   0.124  0.0864  0.2207 -0.1476
 2807TIP3    H229913   2.054   3.819   0.190 -0.8549  0.3026  0.6696
 2808TIP3   OH229914   4.578   1.969  12.544  0.5489 -0.6310 -0.3644
 2808TIP3    H129915   4.671   1.990  12.553  0.3048  0.3355 -0.0137
 2808TIP3    H229916   4.565   1.893  12.602  0.6343  0.7100  1.5109
 2809TIP3   OH229917   0.685   3.227   3.867 -0.7350  0.1496 -0.7022
 2809TIP3    H129918   0.743   3.286   3.916 -0.5491 -0.8974  0.3943
 2809TIP3    H229919   0.683   3.263   3.779  2.1047 -0.1199 -0.9680
 2810TIP3   OH229920   0.581   2.724  12.424  0.7243  0.5826  0.4461
 2810TIP3    H129921   0.576   2.630  12.444 -0.2232  0.6291  0.4951
 2810TIP3    H229922   0.538   2.732  12.338  3.8472  0.5167 -1.2805
 2811TIP3   OH229923   1.965   1.123   1.361  0.4014 -0.0077 -0.7002
 2811TIP3    H129924   1.957   1.198   1.301  0.9061  0.0113 -0.7416
 2811TIP3    H229925   1.884   1.074   1.347  1.2387 -0.9416 -2.6879
 2812TIP3   OH229926   2.363   2.324   3.797  0.1181  0.2817 -0.0445
 2812TIP3    H129927   2.274   2.356   3.815 -0.4891 -0.5560 -1.3988
 2812TIP3    H229928   2.420   2.384   3.845 -1.1048  1.7930 -0.4114
 2813TIP3   OH229929   1.226   3.326  14.857  0.5092 -0.5088 -0.3060
 2813TIP3    H129930   1.224   3.422  14.850  0.0742 -0.5319 -0.5411
 2813TIP3    H229931   1.214   3.295  14.767  1.7832 -0.7834 -0.3986
 2814TIP3   OH229932   0.192   0.358  13.058 -0.3235  0.1798 -0.0946
 2814TIP3    H129933   0.281   0.381  13.088  0.8868  0.9221 -3.8036
 2814TIP3    H229934   0.181   0.267  13.087  0.8475  0.6319  2.0305
 2815TIP3   OH229935   2.450   4.996   3.773 -0.1931  1.2169 -0.0158
 2815TIP3    H129936   2.377   4.946   3.807 -0.3657  0.7698 -1.0048
 2815TIP3    H229937   2.426   5.014   3.682  0.8728  1.1399 -0.3243
 2816TIP3   OH229938   0.073   6.512  16.559  0.2516  0.2154 -0.5285
 2816TIP3    H129939   0.058   6.419  16.573  0.2371  0.4991  1.7415
 2816TIP3    H229940   0.156   6.516  16.510  1.3564 -0.9745  1.1236
 2817TIP3   OH229941   6.235   3.642   1.087  0.0299  0.3415 -0.0861
 2817TIP3    H129942   6.303   3.578   1.067 -0.0026 -0.3825  1.8600
 2817TIP3    H229943   6.261   3.721   1.040  1.9384 -0.0767  0.1888
 2818TIP3   OH229944   3.258   5.495   3.882  0.2912 -0.1997 -0.2254
 2818TIP3    H129945   3.331   5.446   3.920  1.0602  0.9098 -0.2363
 2818TIP3    H229946   3.197   5.427   3.852  1.0792 -1.1353  0.2291
 2819TIP3   OH229947   2.843   4.766   0.533  0.0261  0.6974 -0.5873
 2819TIP3    H129948   2.844   4.859   0.507  0.5980  0.8631  0.0069
 2819TIP3    H229949   2.831   4.768   0.627 -2.7703  0.0765 -0.8605
 2820TIP3   OH229950   2.546   2.417  12.911 -0.0524  0.3739  0.4257
 2820TIP3    H129951   2.494   2.336  12.909 -1.1328  1.0603 -0.7922
 2820TIP3    H229952   2.484   2.486  12.889  1.2870  1.2973 -0.6416
 2821TIP3   OH229953   5.115   2.705   3.585 -0.4115  0.0123  0.0912
 2821TIP3    H129954   5.115   2.709   3.681 -0.2445  0.8557  0.0631
 2821TIP3    H229955   5.207   2.714   3.561 -0.3528 -1.0497 -0.1275
 2822TIP3   OH229956   0.133   1.405  15.683 -0.6355  0.0112  0.4576
 2822TIP3    H129957   0.128   1.350  15.761 -0.4424 -1.0176 -0.2314
 2822TIP3    H229958   0.182   1.482  15.711 -2.2078  0.5735  1.8439
 2823TIP3   OH229959   3.122   3.678  13.485 -0.2174  0.0233 -0.0488
 2823TIP3    H129960   3.134   3.766  13.448  0.2471 -0.1399 -0.3050
 2823TIP3    H229961   3.029   3.659  13.473 -0.7351  1.2218  1.6975
 2824TIP3   OH229962   3.015   3.889  13.984  0.5263  0.0558 -0.2124
 2824TIP3    H129963   3.017   3.981  13.960 -2.4952  0.1237 -0.5027
 2824TIP3    H229964   3.057   3.885  14.070 -0.7213  1.9746  0.5291
 2825TIP3   OH229965   4.683   1.880   0.099  0.3398 -0.8475  0.4618
 2825TIP3    H129966   4.645   1.865   0.012  0.5650 -0.3656  0.2742
 2825TIP3    H229967   4.748   1.811   0.109  0.3053 -0.9111  0.2455
 2826TIP3   OH229968   5.884   5.322   3.538 -0.3314 -0.4491  0.0294
 2826TIP3    H129969   5.906   5.234   3.568  0.5286 -0.0978  0.4446
 2826TIP3    H229970   5.903   5.320   3.444  0.8590 -0.3492  0.2593
 2827TIP3   OH229971   1.794   4.025  15.745 -0.3799 -0.5769 -0.3805
 2827TIP3    H129972   1.699   4.020  15.739 -0.4291 -4.9189  0.7006
 2827TIP3    H229973   1.811   4.054  15.834 -0.6259  0.6517 -0.7156
 2828TIP3   OH229974   4.894   2.489   5.929  0.1337 -0.0396  0.8146
 2828TIP3    H129975   4.856   2.577   5.924  1.4631  0.5072 -0.5182
 2828TIP3    H229976   4.910   2.475   6.022  1.1311  1.7244  0.9518
 2829TIP3   OH229977   2.545   6.772   1.294  0.3906 -0.3194 -0.8596
 2829TIP3    H129978   2.471   6.751   1.351  1.7062  2.5514  2.2842
 2829TIP3    H229979   2.532   6.864   1.271  1.3081 -0.6939 -3.1049
 2830TIP3   OH229980   2.629   4.675  16.350  0.0923 -0.3674  0.1737
 2830TIP3    H129981   2.556   4.681  16.289 -0.2301 -1.2415  0.4694
 2830TIP3    H229982   2.594   4.707  16.433  0.1554 -0.4204  0.2211
 2831TIP3   OH229983   2.414   0.294   3.620  0.2148  0.0103 -0.5583
 2831TIP3    H129984   2.331   0.248   3.612 -0.8688  1.6888  0.2602
 2831TIP3    H229985   2.447   0.270   3.706  0.7319 -0.8638 -0.9904
 2832TIP3   OH229986   5.114   4.676  14.533 -0.0256  0.1790  0.2891
 2832TIP3    H129987   5.070   4.758  14.553 -1.2224 -0.4424  0.3017
 2832TIP3    H229988   5.166   4.658  14.611 -1.0337  0.1213  0.9734
 2833TIP3   OH229989   2.579   0.134  16.665 -0.1752  0.2187  0.3576
 2833TIP3    H129990   2.589   0.149  16.571 -1.0958  0.8938  0.3531
 2833TIP3    H229991   2.503   0.076  16.672  0.7980 -1.0692  0.6219
 2834TIP3   OH229992   3.461   6.020  16.251 -0.2577 -0.0674  0.1873
 2834TIP3    H129993   3.403   6.095  16.245 -1.1027 -0.7168  0.0390
 2834TIP3    H229994   3.457   5.979  16.165  0.2378 -0.2569  0.2476
 2835TIP3   OH229995   3.424   3.647  11.168  0.6388 -0.2803  0.2395
 2835TIP3    H129996   3.458   3.665  11.080 -2.7882  1.3290 -0.9624
 2835TIP3    H229997   3.402   3.554  11.167  2.4863 -0.7451  0.1731
 2836TIP3   OH229998   0.859   5.163   2.978  0.7170  0.3982 -0.0222
 2836TIP3    H129999   0.883   5.218   3.052  1.2800  0.1472 -0.0093
 2836TIP3    H230000   0.805   5.093   3.017  1.1749  0.1554  0.1882
 2837TIP3   OH230001   0.683   5.642  13.333 -0.8475  0.1775  0.1323
 2837TIP3    H130002   0.702   5.735  13.317  0.8941 -0.1943 -0.2259
 2837TIP3    H230003   0.662   5.638  13.426  1.0596  0.6930  0.6387
 2838TIP3   OH230004   3.832   0.507  16.559  0.0410  0.2283  0.1717
 2838TIP3    H130005   3.805   0.549  16.478 -0.3330  0.5532  0.4649
 2838TIP3    H230006   3.794   0.419  16.555 -2.9458  1.3203  1.5254
 2839TIP3   OH230007   0.171   0.370  11.232  0.2153 -0.1049 -0.6813
 2839TIP3    H130008   0.210   0.355  11.318 -0.6962 -0.8272 -0.3805
 2839TIP3    H230009   0.228   0.436  11.191  2.5977 -2.0935 -0.8375
 2840TIP3   OH230010   5.553   4.961   2.512  0.0679  0.3214  0.5739
 2840TIP3    H130011   5.586   5.014   2.584  0.3427 -0.1139  0.7705
 2840TIP3    H230012   5.593   4.999   2.434  1.2725 -0.3782  0.8311
 2841TIP3   OH230013   1.118   1.866  12.046 -0.3084 -0.1729 -0.3904
 2841TIP3    H130014   1.081   1.908  11.968  0.7757  0.0023 -0.8302
 2841TIP3    H230015   1.205   1.905  12.055 -0.9054  0.8348  1.7313
 2842TIP3   OH230016   1.149   6.495   4.524  0.4967  0.3032  0.2555
 2842TIP3    H130017   1.185   6.583   4.513  0.2260  0.6502  1.9207
 2842TIP3    H230018   1.143   6.483   4.619 -2.4306 -0.2951  0.0732
 2843TIP3   OH230019   4.429   1.243  16.893  0.6863 -0.1248 -0.4252
 2843TIP3    H130020   4.423   1.289  16.976 -0.1834 -2.9202  1.2025
 2843TIP3    H230021   4.351   1.272  16.844  0.5707  0.6740  0.2160
 2844TIP3   OH230022   6.513   6.352  13.987 -0.1984 -0.0081  0.0157
 2844TIP3    H130023   6.520   6.346  14.082 -1.0545  2.4107  0.2892
 2844TIP3    H230024   6.604   6.348  13.957  0.1801  0.5829  1.0395
 2845TIP3   OH230025   2.036   6.360   3.566  0.1265 -0.1048 -0.0021
 2845TIP3    H130026   1.943   6.337   3.564  0.3063 -1.5147  2.6416
 2845TIP3    H230027   2.037   6.452   3.593 -0.4886  0.2351 -1.0853
 2846TIP3   OH230028   2.366   3.697   3.674 -0.1894  0.1157  0.8633
 2846TIP3    H130029   2.370   3.649   3.756 -1.7638 -0.3623  0.7001
 2846TIP3    H230030   2.457   3.716   3.652  0.6988 -4.0130  0.2033
 2847TIP3   OH230031   6.583   0.170  12.436  0.0752 -0.4971  0.1393
 2847TIP3    H130032   6.659   0.221  12.464  0.3942 -0.2214 -1.1645
 2847TIP3    H230033   6.614   0.079  12.435  0.1137 -0.4875  0.5051
 2848TIP3   OH230034   5.601   1.811   0.339 -0.0851  0.2744 -0.2071
 2848TIP3    H130035   5.667   1.782   0.275 -1.5916 -1.0272 -1.2394
 2848TIP3    H230036   5.596   1.739   0.402  0.6545  1.1121  0.8586
 2849TIP3   OH230037   5.416   4.258  13.512  0.3830  0.1168 -0.2471
 2849TIP3    H130038   5.340   4.294  13.557  0.5206  1.0497 -0.7278
 2849TIP3    H230039   5.403   4.282  13.420  1.8835  1.4634 -0.1561
 2850TIP3   OH230040   1.354   4.029   4.870  0.5820  0.0639 -0.2240
 2850TIP3    H130041   1.357   3.978   4.951  3.3388  1.2667  0.5390
 2850TIP3    H230042   1.358   3.963   4.800 -1.2878 -0.9569  0.5474
 2851TIP3   OH230043   1.867   4.028   1.547  0.0498  0.1842  0.3974
 2851TIP3    H130044   1.881   3.978   1.628  0.3433 -0.9358 -0.3257
 2851TIP3    H230045   1.925   4.103   1.554  3.6080 -2.2255 -0.7369
 2852TIP3   OH230046   6.504   1.441   1.721 -0.1215 -0.0277 -0.4297
 2852TIP3    H130047   6.549   1.504   1.777  0.9384  0.9012 -2.2090
 2852TIP3    H230048   6.414   1.441   1.751  0.6687 -0.6681  2.1566
 2853TIP3   OH230049   2.398   0.573   0.387 -0.8153  0.1085  0.3069
 2853TIP3    H130050   2.347   0.650   0.362  0.7681  1.7127  1.7174
 2853TIP3    H230051   2.462   0.563   0.316 -1.3063 -0.2143 -0.1000
 2854TIP3   OH230052   0.349   5.579  15.381 -0.1649 -0.2528 -0.0762
 2854TIP3    H130053   0.414   5.594  15.450 -2.6144  1.6558  2.0137
 2854TIP3    H230054   0.319   5.667  15.358 -1.7665 -1.0497 -1.1852
 2855TIP3   OH230055   0.274   1.548  15.941 -0.5006  0.4096 -0.0441
 2855TIP3    H130056   0.180   1.554  15.960 -0.0187  1.4040  2.3478
 2855TIP3    H230057   0.308   1.635  15.962  1.1746 -0.3670  0.5878
 2856TIP3   OH230058   4.347   4.118  15.220 -0.2745  0.0151  0.3407
 2856TIP3    H130059   4.440   4.114  15.198 -0.5268  0.5584 -0.8854
 2856TIP3    H230060   4.337   4.056  15.293  0.6433 -1.6685 -0.9031
 2857TIP3   OH230061   6.179   5.756   5.856 -0.3007 -0.0632 -0.0513
 2857TIP3    H130062   6.273   5.766   5.847  0.3238 -2.3977  2.4546
 2857TIP3    H230063   6.163   5.755   5.950 -3.3921  3.6247 -0.2725
 2858TIP3   OH230064   0.954   0.305   0.912 -0.2459 -0.5712  0.4762
 2858TIP3    H130065   1.043   0.288   0.942  0.1120 -0.3132 -0.4009
 2858TIP3    H230066   0.916   0.361   0.980  1.1897  1.6398 -0.4254
 2859TIP3   OH230067   4.794   1.739   5.324  0.6457 -0.1021 -0.1923
 2859TIP3    H130068   4.699   1.731   5.313  0.2840  1.0521  1.5744
 2859TIP3    H230069   4.829   1.732   5.236 -0.9943 -1.5148 -0.7792
 2860TIP3   OH230070   1.654   5.317  10.992  0.7410  0.1661 -0.1359
 2860TIP3    H130071   1.727   5.324  10.930  0.0326  0.1804 -0.9918
 2860TIP3    H230072   1.595   5.388  10.968 -0.3154 -0.7940 -0.5124
 2861TIP3   OH230073   1.500   2.632   3.740 -0.2093 -0.4123 -0.0376
 2861TIP3    H130074   1.590   2.660   3.758 -0.6998  0.9955  0.2908
 2861TIP3    H230075   1.509   2.577   3.662  0.7045  1.5073 -1.3843
 2862TIP3   OH230076   1.374   4.191   4.220 -0.5719  0.5287  0.4190
 2862TIP3    H130077   1.446   4.130   4.238 -1.0685 -0.5204 -0.9768
 2862TIP3    H230078   1.406   4.276   4.252  0.4142 -0.3000  1.7749
 2863TIP3   OH230079   4.724   2.711   6.235  0.4205  0.1993  0.5528
 2863TIP3    H130080   4.764   2.719   6.148  0.1472 -1.0734  0.2995
 2863TIP3    H230081   4.787   2.660   6.285  0.1681  0.1820  0.8516
 2864TIP3   OH230082   0.290   3.904   1.597  0.1041  0.1410  0.2318
 2864TIP3    H130083   0.353   3.838   1.625  1.7379  0.8367 -1.5801
 2864TIP3    H230084   0.343   3.983   1.581 -1.3865  1.0786 -0.2900
 2865TIP3   OH230085   5.189   0.009   1.676 -0.0949  0.4661 -0.3573
 2865TIP3    H130086   5.148  -0.069   1.714  0.3445  0.3984 -0.0025
 2865TIP3    H230087   5.166   0.006   1.583 -1.7391  0.9747  0.0067
 2866TIP3   OH230088   1.598   1.748   3.770  0.0265 -0.0423 -0.2045
 2866TIP3    H130089   1.582   1.766   3.862 -0.8698 -0.1933 -0.3239
 2866TIP3    H230090   1.648   1.666   3.770 -1.7012 -1.1402  0.0911
 2867TIP3   OH230091   3.398   0.250   2.731  0.9768  0.6149 -0.4588
 2867TIP3    H130092   3.315   0.289   2.757 -0.0487 -2.1015  0.7716
 2867TIP3    H230093   3.464   0.295   2.784  0.1388  1.8711 -0.4364
 2868TIP3   OH230094   1.366   4.047  12.334 -0.4243 -0.4585  0.2391
 2868TIP3    H130095   1.275   4.057  12.307 -0.6049 -0.8347  0.7039
 2868TIP3    H230096   1.368   3.966  12.385 -0.5227  1.2227  3.1221
 2869TIP3   OH230097   0.095   3.889   0.366  0.3668  0.2785  0.4252
 2869TIP3    H130098   0.104   3.841   0.448  0.6968 -0.9542 -0.3027
 2869TIP3    H230099   0.056   3.826   0.305  0.9450  0.8794 -0.6030
 2870TIP3   OH230100   3.477   6.090  13.393  0.2646 -0.4602 -0.8028
 2870TIP3    H130101   3.413   6.155  13.364  0.0481 -0.9638 -1.5000
 2870TIP3    H230102   3.523   6.132  13.465  0.5182  0.6951 -1.6071
 2871TIP3   OH230103   5.240   6.768  16.525  0.5812  0.0307 -0.3906
 2871TIP3    H130104   5.200   6.851  16.499 -2.1735 -0.6720  1.1937
 2871TIP3    H230105   5.232   6.766  16.620 -0.2048 -2.3891 -0.4397
 2872TIP3   OH230106   4.330   3.648   0.711  0.3242  0.2785 -0.3043
 2872TIP3    H130107   4.259   3.679   0.655  0.0387  0.7008  0.2775
 2872TIP3    H230108   4.353   3.724   0.764 -1.3998 -0.8294  2.2233
 2873TIP3   OH230109   3.298   3.884   0.956 -0.9976 -0.0846  0.1952
 2873TIP3    H130110   3.238   3.958   0.962 -0.8151  0.2021 -1.1853
 2873TIP3    H230111   3.255   3.815   1.006 -1.0516  1.0075  1.7223
 2874TIP3   OH230112   5.029   4.026   4.643  0.6300 -0.0738 -0.2137
 2874TIP3    H130113   5.047   4.005   4.552  2.2849  0.0934  0.0451
 2874TIP3    H230114   4.942   3.989   4.660  0.7060 -0.9277 -1.5833
 2875TIP3   OH230115   3.512   4.574   0.342  0.0951 -0.5649  0.2714
 2875TIP3    H130116   3.507   4.629   0.264 -1.2740 -2.0184 -0.7303
 2875TIP3    H230117   3.482   4.631   0.413 -0.0744  0.3475 -0.5082
 2876TIP3   OH230118   5.823   0.806   1.395 -0.1024 -0.0658  0.7466
 2876TIP3    H130119   5.811   0.858   1.316 -0.4249  0.0182  0.8516
 2876TIP3    H230120   5.878   0.860   1.451 -1.6575  0.8109  1.4669
 2877TIP3   OH230121   4.697   4.915  10.739  0.0565  0.2817 -0.5691
 2877TIP3    H130122   4.759   4.863  10.688  1.8043  0.0019  1.6678
 2877TIP3    H230123   4.732   5.004  10.736 -0.4781  0.4927 -0.7728
 2878TIP3   OH230124   0.036   3.592  13.737 -0.3228 -0.0713 -0.5489
 2878TIP3    H130125   0.093   3.604  13.813  0.4217  0.5813 -1.1884
 2878TIP3    H230126  -0.030   3.530  13.766  0.6634 -0.7894  0.2510
 2879TIP3   OH230127   1.696   1.734  14.384  0.2303  0.1121 -0.4500
 2879TIP3    H130128   1.655   1.812  14.347  1.1723  0.4940 -0.7133
 2879TIP3    H230129   1.623   1.683  14.419 -1.1318 -1.5273 -4.9858
 2880TIP3   OH230130   2.219   1.292  15.868 -0.6254 -0.6387 -0.3100
 2880TIP3    H130131   2.194   1.304  15.777 -0.5976  0.5656 -0.1743
 2880TIP3    H230132   2.312   1.270  15.865 -0.3103  0.6550 -0.5252
 2881TIP3   OH230133   6.747   4.677   4.084 -0.5666  0.1650 -0.0836
 2881TIP3    H130134   6.696   4.757   4.098  2.5671  2.6914 -1.9356
 2881TIP3    H230135   6.762   4.643   4.172 -3.4542  0.4860  0.6545
 2882TIP3   OH230136   5.303   3.638   2.526  0.5354 -0.1607 -0.6355
 2882TIP3    H130137   5.388   3.677   2.549  0.4673 -0.7984  0.7876
 2882TIP3    H230138   5.313   3.612   2.435  2.0215 -0.6142 -0.3689
 2883TIP3   OH230139   5.690   3.799  15.678  0.1605 -0.2171  0.1973
 2883TIP3    H130140   5.740   3.773  15.601  2.3961  3.8526 -0.0367
 2883TIP3    H230141   5.615   3.848  15.643 -0.9372 -1.4895  0.6596
 2884TIP3   OH230142   2.785   6.413  13.132 -0.0197  0.5176  0.1653
 2884TIP3    H130143   2.694   6.385  13.122 -0.7069  1.7570  2.2806
 2884TIP3    H230144   2.813   6.436  13.043 -1.2773 -1.2102 -0.7378
 2885TIP3   OH230145   4.481   4.779   1.330 -0.0359  0.2025  0.1109
 2885TIP3    H130146   4.397   4.758   1.288  0.3742  1.0342 -1.1872
 2885TIP3    H230147   4.469   4.867   1.366  0.7094  0.9479 -1.3742
 2886TIP3   OH230148   2.083   6.386  16.619 -0.3459  0.0103  0.2460
 2886TIP3    H130149   2.125   6.408  16.535 -0.3181  0.4382  0.3740
 2886TIP3    H230150   2.136   6.314  16.653  0.4362  0.7027  0.5183
 2887TIP3   OH230151   5.870   0.109  13.550 -0.5118 -0.6822 -0.1304
 2887TIP3    H130152   5.833   0.130  13.464  1.6289  1.9594 -0.5481
 2887TIP3    H230153   5.885   0.194  13.591  1.8759 -1.7005  1.3305
 2888TIP3   OH230154   1.414   2.258  14.254  0.5431  0.0917  0.1377
 2888TIP3    H130155   1.348   2.327  14.258  2.2853  1.8414  0.9100
 2888TIP3    H230156   1.367   2.181  14.222 -1.3373  1.8398 -1.6688
 2889TIP3   OH230157   0.704   4.256  15.175  0.1339 -0.0208 -0.3532
 2889TIP3    H130158   0.737   4.326  15.118 -0.5505  1.3240  0.8259
 2889TIP3    H230159   0.612   4.277  15.187  0.2326 -0.3273  1.1121
 2890TIP3   OH230160   6.463   4.353   2.124 -0.4184  0.0311  0.0543
 2890TIP3    H130161   6.497   4.412   2.057 -1.2246 -0.1505 -0.5309
 2890TIP3    H230162   6.458   4.406   2.203  1.3887  0.0116  0.2117
 2891TIP3   OH230163   1.183   1.280  13.193  0.4181  0.7366 -0.2004
 2891TIP3    H130164   1.171   1.375  13.193  1.9752  0.9742  0.9322
 2891TIP3    H230165   1.110   1.246  13.245 -0.1558  1.2902 -0.6261
 2892TIP3   OH230166   6.772   1.799   2.770 -0.3641 -0.3672 -0.4923
 2892TIP3    H130167   6.761   1.830   2.680 -2.7077  2.2258  0.5568
 2892TIP3    H230168   6.856   1.837   2.798 -0.5107  0.3695 -1.0136
 2893TIP3   OH230169   5.796   2.722   3.281  0.0615 -0.0721 -0.4372
 2893TIP3    H130170   5.721   2.681   3.237  1.0060 -1.3053 -0.9899
 2893TIP3    H230171   5.859   2.737   3.210 -0.2428  2.4369 -0.2485
 2894TIP3   OH230172   6.091   5.951  10.382  0.0452 -0.3589 -0.5388
 2894TIP3    H130173   6.051   6.029  10.421 -0.3745 -1.1382  0.6511
 2894TIP3    H230174   6.021   5.886  10.380  1.3089 -2.0039  2.2918
 2895TIP3   OH230175   0.923   4.260  12.221 -0.1846  0.0442  0.0723
 2895TIP3    H130176   0.865   4.314  12.276 -0.2400  0.0394  0.0178
 2895TIP3    H230177   0.885   4.172  12.226 -0.6851  0.2115 -0.6675
 2896TIP3   OH230178   3.379   3.149  12.299 -0.4412 -0.4828 -0.1941
 2896TIP3    H130179   3.369   3.104  12.215 -0.5203 -1.8568  0.5143
 2896TIP3    H230180   3.320   3.102  12.358 -2.2956  1.9821  0.1198
 2897TIP3   OH230181   6.728   6.375   4.875  0.0459 -0.4907  0.8757
 2897TIP3    H130182   6.811   6.366   4.921  0.8528  0.4096 -0.3594
 2897TIP3    H230183   6.670   6.419   4.937  1.3613  1.4717  0.7646
 2898TIP3   OH230184   0.669   3.261  12.996  0.4449 -0.2739 -0.3941
 2898TIP3    H130185   0.693   3.294  12.910  0.1776  2.1085  0.3764
 2898TIP3    H230186   0.573   3.267  12.998  0.5334  1.5123  0.6855
 2899TIP3   OH230187   0.648   1.144  14.362  0.1774  0.4207  0.2222
 2899TIP3    H130188   0.653   1.049  14.375  0.2961  0.1739 -1.4205
 2899TIP3    H230189   0.714   1.180  14.421 -1.0609 -0.3406  2.1855
 2900TIP3   OH230190   2.684   2.608  12.221 -0.1771 -0.2286  0.1461
 2900TIP3    H130191   2.631   2.592  12.143 -0.8517 -2.4889  0.9776
 2900TIP3    H230192   2.713   2.521  12.249  1.6318  0.6846  1.3619
 2901TIP3   OH230193   4.942   2.683  12.141 -0.2631  0.4821 -0.2601
 2901TIP3    H130194   4.989   2.747  12.195  2.9775 -1.1180 -0.9576
 2901TIP3    H230195   4.952   2.715  12.051 -0.3228 -0.0059 -0.4410
 2902TIP3   OH230196   6.680   4.693  15.089 -0.9447 -0.0054  0.2490
 2902TIP3    H130197   6.623   4.726  15.019  1.6242  1.4295 -1.3530
 2902TIP3    H230198   6.717   4.772  15.129 -0.3965 -0.8750  1.5319
 2903TIP3   OH230199   2.261   5.916  11.162  0.2539  0.2397 -0.1082
 2903TIP3    H130200   2.291   5.930  11.252 -1.2979 -0.4442  0.5351
 2903TIP3    H230201   2.340   5.889  11.115  1.6670  3.0368  0.4176
 2904TIP3   OH230202   0.288   4.825  15.178  0.4788 -0.3974 -0.0514
 2904TIP3    H130203   0.240   4.766  15.120  2.1794  0.7376 -2.7646
 2904TIP3    H230204   0.333   4.767  15.239 -3.8752 -1.5621  2.5824
 2905TIP3   OH230205   4.135   5.333  11.724 -0.2939 -0.2819 -0.0678
 2905TIP3    H130206   4.158   5.241  11.736 -0.2864 -0.4091 -0.9827
 2905TIP3    H230207   4.041   5.337  11.741  0.1243  0.0851  2.8300
 2906TIP3   OH230208   2.617   1.697   2.966 -0.1684 -0.1095 -0.6674
 2906TIP3    H130209   2.615   1.785   2.928  1.8775 -0.5374 -1.9142
 2906TIP3    H230210   2.686   1.651   2.918  1.2987 -1.3011  2.3086
 2907TIP3   OH230211   5.685   1.777   1.551  0.2273 -0.0430  0.1943
 2907TIP3    H130212   5.702   1.724   1.629 -0.4777  0.2255  0.5424
 2907TIP3    H230213   5.603   1.742   1.515  1.0184 -0.7744 -0.9649
 2908TIP3   OH230214   1.132   2.187   2.063 -0.1331 -0.5463  0.0571
 2908TIP3    H130215   1.173   2.194   1.977  0.6281 -0.7336  0.4016
 2908TIP3    H230216   1.130   2.277   2.096  0.2688 -0.5709  0.1573
 2909TIP3   OH230217   4.855   4.320   5.667  0.4887  0.5779  0.2220
 2909TIP3    H130218   4.807   4.307   5.585 -0.2512  1.9471  0.4179
 2909TIP3    H230219   4.946   4.298   5.645  0.1034 -0.2122 -0.6441
 2910TIP3   OH230220   0.901   6.789   6.370 -0.4052  0.0381  0.0712
 2910TIP3    H130221   0.889   6.868   6.423  1.7772  1.4328 -1.3346
 2910TIP3    H230222   0.904   6.717   6.434 -0.5466  1.3294  1.5757
 2911TIP3   OH230223   6.143   6.028   2.457  0.1137  0.2512  0.1137
 2911TIP3    H130224   6.088   6.103   2.436  0.4780  0.5907  0.3687
 2911TIP3    H230225   6.113   6.001   2.544  2.3264  2.2883  1.6051
 2912TIP3   OH230226   4.267   2.394  13.904 -0.0162 -0.3225 -0.1001
 2912TIP3    H130227   4.304   2.463  13.959 -1.2755  0.6856 -0.4717
 2912TIP3    H230228   4.175   2.418  13.893 -0.5080 -2.1018 -0.1956
 2913TIP3   OH230229   5.604   1.951  14.360 -0.6079  0.0909  0.3195
 2913TIP3    H130230   5.569   1.996  14.436 -0.7115 -0.5002  0.6309
 2913TIP3    H230231   5.542   1.973  14.289 -0.7566  0.2869  0.5095
 2914TIP3   OH230232   6.819   5.207   2.191 -0.2170 -0.2863 -0.4107
 2914TIP3    H130233   6.781   5.254   2.117  0.1056  0.0847 -0.3421
 2914TIP3    H230234   6.843   5.121   2.155 -0.1815 -0.1548 -0.7014
 2915TIP3   OH230235   1.541   6.110   4.517  0.1858 -0.3216  0.0363
 2915TIP3    H130236   1.487   6.041   4.556  1.6025 -1.8052 -0.5208
 2915TIP3    H230237   1.609   6.126   4.583 -0.0894  0.5007  0.1254
 2916TIP3   OH230238   3.245   4.203   3.174 -0.4274  0.0450  0.5740
 2916TIP3    H130239   3.175   4.234   3.117  1.2106  1.3377 -0.8329
 2916TIP3    H230240   3.326   4.227   3.129  0.9488 -0.3922  2.6541
 2917TIP3   OH230241   5.363   2.978  15.204 -0.1451 -0.0862  0.7287
 2917TIP3    H130242   5.454   2.988  15.234  1.5718 -3.5065 -2.4150
 2917TIP3    H230243   5.342   3.061  15.162  3.0157 -0.2947 -1.6120
 2918TIP3   OH230244   2.022   1.847  15.611  0.1711 -0.3083 -0.1627
 2918TIP3    H130245   1.952   1.785  15.633 -0.1044  0.1214  0.1862
 2918TIP3    H230246   2.056   1.875  15.695  0.2450  0.0727 -0.3187
 2919TIP3   OH230247   1.167   2.694   3.141 -0.2513  0.3845 -0.1527
 2919TIP3    H130248   1.257   2.668   3.121  0.0086 -0.2961  1.6912
 2919TIP3    H230249   1.125   2.702   3.055  0.9230 -1.5930 -0.9879
 2920TIP3   OH230250   3.549   4.046   3.720 -0.6780  0.1439  0.1453
 2920TIP3    H130251   3.454   4.057   3.715 -0.5382  1.1792 -0.8021
 2920TIP3    H230252   3.569   3.985   3.649 -0.5683  0.5076 -0.1401
 2921TIP3   OH230253   3.428   4.576  12.997 -0.4444 -0.1796  0.6919
 2921TIP3    H130254   3.448   4.630  13.074 -1.2912 -1.2955  1.7367
 2921TIP3    H230255   3.335   4.591  12.981 -0.1193  0.6172 -0.6073
 2922TIP3   OH230256   1.904   0.599  12.698  0.9211 -0.1699  0.3219
 2922TIP3    H130257   1.979   0.542  12.681  1.7966  1.7010 -3.2873
 2922TIP3    H230258   1.827   0.542  12.689  1.7833 -1.6803  1.9122
 2923TIP3   OH230259   6.752   5.144  16.611  0.3969 -0.9229 -0.3578
 2923TIP3    H130260   6.721   5.218  16.663 -0.0519 -0.4211 -1.3083
 2923TIP3    H230261   6.675   5.088  16.601 -0.2840  0.2524 -2.5979
 2924TIP3   OH230262   3.540   0.208  14.033 -0.3570  1.4978  0.3715
 2924TIP3    H130263   3.495   0.243  14.110  0.3261  0.6494  1.1749
 2924TIP3    H230264   3.506   0.119  14.024  0.2786  1.2636  0.2736
 2925TIP3   OH230265   6.637   3.085  15.813 -0.6269 -0.1599 -0.0173
 2925TIP3    H130266   6.682   3.169  15.806 -0.2187 -0.3845 -0.0714
 2925TIP3    H230267   6.685   3.027  15.754 -0.7770 -0.4910  0.1875
 2926TIP3   OH230268   4.173   1.555   0.086  0.2358  0.4028 -0.3199
 2926TIP3    H130269   4.178   1.636   0.035  0.7396  1.4012  1.2267
 2926TIP3    H230270   4.245   1.501   0.053  0.4974  0.9864 -0.7121
 2927TIP3   OH230271   6.746   5.030  11.255 -0.1004 -0.3885  0.1998
 2927TIP3    H130272   6.747   4.937  11.276 -0.4445 -0.8918 -1.7323
 2927TIP3    H230273   6.656   5.058  11.275  0.2109 -0.2650  1.4871
 2928TIP3   OH230274   4.846   2.385   6.174 -0.1393 -0.3394  0.2831
 2928TIP3    H130275   4.835   2.295   6.202 -2.7802 -0.2950 -0.3658
 2928TIP3    H230276   4.787   2.435   6.229  2.2443  1.2689  1.5587
 2929TIP3   OH230277   6.313   6.792  12.797 -0.1286  0.0899  0.0707
 2929TIP3    H130278   6.306   6.781  12.892  1.1290  3.6732  0.7292
 2929TIP3    H230279   6.406   6.781  12.778 -0.4882 -1.5309 -0.9729
 2930TIP3   OH230280   0.357   5.320   5.835 -0.4956  0.4606 -0.1494
 2930TIP3    H130281   0.442   5.312   5.878 -0.5685 -2.1693 -0.3589
 2930TIP3    H230282   0.314   5.394   5.880  1.3077  0.9014  0.9305
 2931TIP3   OH230283   3.346   6.518   2.562  0.1210  0.3249  0.3750
 2931TIP3    H130284   3.348   6.479   2.474 -0.9861  2.5754 -0.7360
 2931TIP3    H230285   3.428   6.567   2.568  1.6171 -2.1874  1.8551
 2932TIP3   OH230286   1.102   0.743   0.061 -0.6844 -0.2514  0.0550
 2932TIP3    H130287   1.132   0.790  -0.017 -0.7422 -2.1969 -1.2005
 2932TIP3    H230288   1.182   0.716   0.105 -0.5803 -1.5155 -0.8508
 2933TIP3   OH230289   1.958   0.283   4.944  0.2552 -0.2148 -0.7522
 2933TIP3    H130290   1.892   0.350   4.960  0.7714  0.8152 -2.6293
 2933TIP3    H230291   2.041   0.324   4.970  0.4161 -0.6620 -0.5451
 2934TIP3   OH230292   4.357   3.655  16.609 -0.4749  0.3604 -0.5929
 2934TIP3    H130293   4.389   3.699  16.688  0.5251  0.7881 -1.2079
 2934TIP3    H230294   4.353   3.724  16.543  0.5424 -0.3185 -1.4106
 2935TIP3   OH230295   1.656   3.338   3.496  0.2494  0.4928 -0.0208
 2935TIP3    H130296   1.723   3.279   3.461 -0.8163 -0.8529  0.1367
 2935TIP3    H230297   1.580   3.325   3.438  0.0256  1.8265 -0.0667
 2936TIP3   OH230298   3.639   4.912   6.427 -0.0887  0.1305  0.2018
 2936TIP3    H130299   3.626   4.904   6.522  2.5059  1.8058  0.7700
 2936TIP3    H230300   3.563   4.962   6.397 -0.0452  1.1570  1.7002
 2937TIP3   OH230301   3.250   5.349  12.002 -0.3044  0.2562 -0.3666
 2937TIP3    H130302   3.159   5.365  11.978 -0.1001  0.6038 -0.9362
 2937TIP3    H230303   3.297   5.426  11.970  0.0193  0.6561  1.0091
 2938TIP3   OH230304   1.073   1.676  10.699 -0.4986 -0.6508  0.2389
 2938TIP3    H130305   0.990   1.656  10.742 -0.0735 -2.2905  0.3650
 2938TIP3    H230306   1.052   1.746  10.637 -1.9771 -1.0374  0.2705
 2939TIP3   OH230307   1.536   1.388   0.790  0.3792 -0.3421  0.3329
 2939TIP3    H130308   1.452   1.349   0.766 -1.2865  2.5566  0.8634
 2939TIP3    H230309   1.583   1.399   0.707 -1.3360  1.1307 -0.5223
 2940TIP3   OH230310   4.499   3.415   4.903  0.0266 -0.3663 -0.2698
 2940TIP3    H130311   4.478   3.334   4.949  2.1222 -0.5109  0.5085
 2940TIP3    H230312   4.502   3.391   4.811 -0.2356 -0.9668 -0.1236
 2941TIP3   OH230313   5.301   2.705   0.113 -0.5302  0.0128  0.2848
 2941TIP3    H130314   5.377   2.720   0.057 -0.0216 -0.3972  0.8579
 2941TIP3    H230315   5.328   2.732   0.200 -0.9624 -0.3541  0.5422
 2942TIP3   OH230316   5.083   3.488  11.559  0.1805  1.0742 -0.7676
 2942TIP3    H130317   5.161   3.536  11.529  0.0852  1.7188 -0.0187
 2942TIP3    H230318   5.009   3.541  11.530  0.0804  1.5452  0.3044
 2943TIP3   OH230319   2.248   6.181   1.079  0.5391  0.0702 -0.4549
 2943TIP3    H130320   2.294   6.108   1.121 -0.4179  0.7426  1.9407
 2943TIP3    H230321   2.163   6.145   1.054  1.0207 -0.2654 -1.7126
 2944TIP3   OH230322   5.963   4.260   1.842  0.5032  0.2180 -0.0298
 2944TIP3    H130323   5.913   4.242   1.762 -1.0575  0.3773  0.8723
 2944TIP3    H230324   6.017   4.182   1.855  1.0704  0.3523 -1.4284
 2945TIP3   OH230325   0.144   2.994   3.874  0.0238  0.4428 -1.1511
 2945TIP3    H130326   0.238   2.983   3.880  0.1177  0.9993 -1.5686
 2945TIP3    H230327   0.118   2.939   3.800  0.2743  1.6998 -2.2000
 2946TIP3   OH230328   4.237   0.694   1.499 -0.0921  0.0542 -0.4679
 2946TIP3    H130329   4.180   0.631   1.456 -0.6445 -0.7832  1.3830
 2946TIP3    H230330   4.176   0.757   1.538  0.2685 -0.3021  0.7052
 2947TIP3   OH230331   0.451   0.439   3.486 -0.0746 -0.2913 -0.1155
 2947TIP3    H130332   0.432   0.406   3.574  0.7513  2.0886  1.0281
 2947TIP3    H230333   0.366   0.440   3.442 -0.7323 -0.2896  1.1059
 2948TIP3   OH230334   0.221   5.523   4.338 -0.1798 -0.6793 -0.1051
 2948TIP3    H130335   0.159   5.560   4.401  0.1555  3.3833 -1.8604
 2948TIP3    H230336   0.304   5.565   4.359  0.0746  0.3017 -2.7239
 2949TIP3   OH230337   1.067   2.321   2.452 -0.3354 -0.2106 -0.0316
 2949TIP3    H130338   1.126   2.363   2.390 -0.6210 -0.9923 -0.8445
 2949TIP3    H230339   1.104   2.341   2.538  0.1711  0.7180 -0.4525
 2950TIP3   OH230340   5.016   6.230  13.359 -0.4410 -0.0541 -0.2921
 2950TIP3    H130341   4.960   6.253  13.433 -0.3469 -0.5471 -0.0631
 2950TIP3    H230342   4.967   6.260  13.282 -0.5205  0.4979 -0.0319
 2951TIP3   OH230343   2.960   5.310   2.881 -0.2840 -0.1519  0.2925
 2951TIP3    H130344   2.980   5.374   2.812 -2.1917  0.3517  0.1602
 2951TIP3    H230345   2.987   5.226   2.844  1.0043  0.3829 -0.0633
 2952TIP3   OH230346   3.459   1.985   5.230  0.1378 -0.4796  0.3379
 2952TIP3    H130347   3.463   2.073   5.194 -0.1236 -0.6885 -0.2176
 2952TIP3    H230348   3.548   1.967   5.261  0.1780 -0.0063  0.4968
 2953TIP3   OH230349   0.419   4.259   2.897  0.2695 -0.3891 -0.0101
 2953TIP3    H130350   0.461   4.257   2.810 -1.4272 -1.3662 -0.8640
 2953TIP3    H230351   0.426   4.351   2.924  2.0227 -0.3188 -0.5377
 2954TIP3   OH230352   2.871   4.946  14.645 -0.2623 -0.4775  0.4548
 2954TIP3    H130353   2.856   5.034  14.609  1.4184  0.1348  1.1642
 2954TIP3    H230354   2.797   4.894  14.614 -0.9959  1.0540 -0.4381
 2955TIP3   OH230355   2.529   2.406   1.879  0.0927 -0.0402 -0.6512
 2955TIP3    H130356   2.589   2.348   1.833  0.7739  1.6960 -2.0776
 2955TIP3    H230357   2.585   2.477   1.912 -0.9315  0.7250 -0.4960
 2956TIP3   OH230358   6.428   0.801   1.862  0.2428 -0.4760 -0.1012
 2956TIP3    H130359   6.423   0.741   1.936 -0.0258 -0.3226  0.0055
 2956TIP3    H230360   6.466   0.748   1.791  1.3684 -0.3725  0.3983
 2957TIP3   OH230361   2.365   1.040  14.931 -0.6105  0.2186  0.0513
 2957TIP3    H130362   2.282   1.007  14.963  1.1553 -1.9913  2.8481
 2957TIP3    H230363   2.360   1.032  14.836 -2.8780 -1.6461  0.2492
 2958TIP3   OH230364   1.385   0.038  12.959  0.3370  0.6276 -0.0147
 2958TIP3    H130365   1.480   0.028  12.953  0.2034 -0.8596  0.0457
 2958TIP3    H230366   1.356  -0.036  13.012 -0.7537  1.7007  0.9658
 2959TIP3   OH230367   6.009   0.132  17.086 -0.1721  0.0286  0.5634
 2959TIP3    H130368   6.029   0.223  17.108  1.2322 -0.4660  1.4957
 2959TIP3    H230369   6.074   0.081  17.134  0.4296 -1.3632 -1.5734
 2960TIP3   OH230370   1.231   5.045  14.062  0.4913 -0.5404 -0.3041
 2960TIP3    H130371   1.181   5.048  14.143  1.0468  0.8588  0.0010
 2960TIP3    H230372   1.283   4.965  14.069  0.4540 -0.4884  0.6698
 2961TIP3   OH230373   0.956   6.603  15.294  0.6932  0.8314  0.0484
 2961TIP3    H130374   0.901   6.659  15.239  1.9849  2.7276  0.5729
 2961TIP3    H230375   0.938   6.632  15.384  0.0107 -0.9226  0.5103
 2962TIP3   OH230376   1.176   4.916  12.765 -0.0925 -0.1553  0.1911
 2962TIP3    H130377   1.114   4.964  12.710  1.4758  1.2329 -0.4381
 2962TIP3    H230378   1.162   4.951  12.853 -1.9748 -1.7328  0.5852
 2963TIP3   OH230379   3.121   5.702  15.935 -0.2998 -0.3717 -0.1572
 2963TIP3    H130380   3.206   5.660  15.943  0.1228  0.0824 -1.8327
 2963TIP3    H230381   3.060   5.641  15.976  0.7229 -1.0743  0.3500
 2964TIP3   OH230382   4.845   3.165  11.807  0.0177  0.2323  0.2757
 2964TIP3    H130383   4.814   3.091  11.755  1.0040  0.0712 -0.0978
 2964TIP3    H230384   4.930   3.186  11.770  2.2437 -1.8340  3.6921
 2965TIP3   OH230385   2.956   2.166   4.573 -0.0762 -0.5973  0.3344
 2965TIP3    H130386   3.039   2.174   4.622  1.1724  0.2879 -1.7903
 2965TIP3    H230387   2.968   2.089   4.518  1.2874  1.9276 -3.2486
 2966TIP3   OH230388   4.685   4.438  11.617 -0.0777 -0.4677 -0.1957
 2966TIP3    H130389   4.592   4.456  11.602  0.1303  1.2623  0.3326
 2966TIP3    H230390   4.721   4.522  11.647  1.0482 -1.7825  2.4991
 2967TIP3   OH230391   5.245   3.821   5.799  0.5728  0.0326  0.1123
 2967TIP3    H130392   5.316   3.873   5.838  0.5028  0.7954 -0.7353
 2967TIP3    H230393   5.288   3.771   5.730  0.9725 -2.4010  1.9681
 2968TIP3   OH230394   6.244   3.618  11.482 -0.4820 -0.2452  0.0046
 2968TIP3    H130395   6.250   3.695  11.538  0.2870 -0.4821  0.2674
 2968TIP3    H230396   6.250   3.652  11.393 -2.7317  0.2381 -0.0131
 2969TIP3   OH230397   5.378   4.513   5.058 -0.4333 -0.1241 -0.3133
 2969TIP3    H130398   5.464   4.530   5.021 -1.4780  3.3920 -1.4852
 2969TIP3    H230399   5.339   4.449   4.998  0.2314  0.6506 -1.6125
 2970TIP3   OH230400   3.479   5.487  13.120  0.4971 -0.2406  0.2937
 2970TIP3    H130401   3.414   5.557  13.115 -0.6802 -1.3633 -1.0229
 2970TIP3    H230402   3.545   5.520  13.180 -1.6949  0.6273  2.4309
 2971TIP3   OH230403   0.490   4.541   5.444 -0.0358  0.1445 -0.1947
 2971TIP3    H130404   0.472   4.521   5.535  1.3098  1.2413  0.3543
 2971TIP3    H230405   0.496   4.456   5.401 -2.8727 -0.3507  0.2315
 2972TIP3   OH230406   2.512   1.753   4.843 -0.3826 -0.0289  0.4653
 2972TIP3    H130407   2.459   1.676   4.822  0.0697 -0.4648  0.9260
 2972TIP3    H230408   2.597   1.736   4.803  0.0540 -0.2501  1.4529
 2973TIP3   OH230409   0.868   3.301   2.486 -0.4503  0.2349 -0.0605
 2973TIP3    H130410   0.779   3.304   2.520 -0.7785  1.1363 -0.9319
 2973TIP3    H230411   0.911   3.379   2.522 -0.9037  1.3862 -1.8827
 2974TIP3   OH230412   4.366   0.439   5.226 -0.1535  0.5310  0.1725
 2974TIP3    H130413   4.420   0.425   5.148 -2.9272  1.1268 -2.0332
 2974TIP3    H230414   4.311   0.361   5.231 -0.9638  1.1178  0.6616
 2975TIP3   OH230415   4.470   2.298  15.367 -0.3779  0.4748  0.0784
 2975TIP3    H130416   4.495   2.285  15.459 -1.6754  2.5956  0.7974
 2975TIP3    H230417   4.469   2.393  15.356 -1.8186  0.3040 -1.6685
 2976TIP3   OH230418   1.122   3.975   6.201  0.3811  0.1499  0.0779
 2976TIP3    H130419   1.081   3.889   6.204 -0.6488  0.5431 -1.4699
 2976TIP3    H230420   1.050   4.036   6.180  1.2408  1.2548  0.2144
 2977TIP3   OH230421   3.226   6.557   4.320  0.0200  0.8171  0.5792
 2977TIP3    H130422   3.209   6.561   4.226  0.1089  0.8288  0.5636
 2977TIP3    H230423   3.179   6.479   4.349  0.2558  0.6343  0.4700
 2978TIP3   OH230424   4.299   6.517   4.569 -0.3525  0.0235 -0.3379
 2978TIP3    H130425   4.258   6.439   4.532  0.5302 -0.2038 -0.8830
 2978TIP3    H230426   4.308   6.498   4.662  3.0591 -2.1222 -0.8912
 2979TIP3   OH230427   6.587   2.160   3.019  0.0492  0.3915  0.1752
 2979TIP3    H130428   6.581   2.158   2.923  0.7661 -0.5320  0.1303
 2979TIP3    H230429   6.509   2.206   3.047 -0.2223  0.5888 -0.8566
 2980TIP3   OH230430   5.136   3.439   1.416  0.1420  0.7462  0.3470
 2980TIP3    H130431   5.188   3.464   1.492 -0.6471 -0.1834  1.2189
 2980TIP3    H230432   5.053   3.487   1.427  0.2649  1.1239 -0.2920
 2981TIP3   OH230433   2.372   2.487  14.331 -0.2904  0.4192 -0.4464
 2981TIP3    H130434   2.325   2.559  14.290 -0.1828  0.0676 -1.2179
 2981TIP3    H230435   2.387   2.425  14.259 -0.0766 -0.2064  0.1298
 2982TIP3   OH230436   1.991   0.975  12.190 -0.0034  0.5253  0.0810
 2982TIP3    H130437   2.078   1.013  12.202 -0.1610  1.7951 -2.1244
 2982TIP3    H230438   1.957   1.020  12.113 -2.2082 -0.7003  0.2753
 2983TIP3   OH230439   5.061   0.112  14.542 -0.2192 -0.2174 -0.2891
 2983TIP3    H130440   5.007   0.033  14.552  0.8831 -0.8478  0.9661
 2983TIP3    H230441   5.042   0.143  14.453 -1.9851 -0.8919 -0.1806
 2984TIP3   OH230442   4.675   0.489  12.882 -0.0768  0.5520 -1.1281
 2984TIP3    H130443   4.748   0.531  12.927 -1.1605  0.5976  0.7177
 2984TIP3    H230444   4.654   0.413  12.936 -0.1361 -0.5988 -2.7184
 2985TIP3   OH230445   0.139   0.183   2.779 -0.3389 -0.0831  0.8949
 2985TIP3    H130446   0.062   0.178   2.836 -1.9561 -1.3094 -1.2449
 2985TIP3    H230447   0.153   0.277   2.765 -2.9572  0.1659 -0.5285
 2986TIP3   OH230448   4.618   4.019  13.559 -0.8067 -0.4910  0.2017
 2986TIP3    H130449   4.655   4.039  13.645 -0.4749 -0.2352  0.0036
 2986TIP3    H230450   4.539   3.968  13.578 -0.4080 -0.9508  0.6301
 2987TIP3   OH230451   0.533   2.497  10.421 -0.5559  0.2219 -0.0080
 2987TIP3    H130452   0.544   2.572  10.480 -2.2155 -0.0401  0.6756
 2987TIP3    H230453   0.620   2.485  10.382 -0.0284  1.9261  0.5394
 2988TIP3   OH230454   1.444   5.606  13.906 -0.1452  0.2720 -0.2487
 2988TIP3    H130455   1.433   5.629  13.998  0.6114  1.1975 -0.3657
 2988TIP3    H230456   1.429   5.512  13.902 -3.9107  0.7154  0.1764
 2989TIP3   OH230457   5.903   1.652   0.615 -0.4008  0.0212  0.3049
 2989TIP3    H130458   5.825   1.699   0.644 -0.1607  1.2206 -0.9166
 2989TIP3    H230459   5.973   1.684   0.670 -0.7704 -1.2565  1.5907
 2990TIP3   OH230460   3.564   3.205   2.900  0.4581  0.1761 -0.8801
 2990TIP3    H130461   3.474   3.218   2.931  0.6182  0.2599 -0.4341
 2990TIP3    H230462   3.555   3.158   2.818  0.0093  0.0865 -0.7821
 2991TIP3   OH230463   2.242   1.472  10.463  0.2274 -0.3353  0.6956
 2991TIP3    H130464   2.220   1.396  10.517  1.1803  0.6508  2.5891
 2991TIP3    H230465   2.186   1.542  10.495 -0.2029 -0.0570 -0.6074
 2992TIP3   OH230466   3.669   0.178   6.640 -0.3295  0.4265 -0.4962
 2992TIP3    H130467   3.725   0.142   6.708 -2.0861 -1.5283  0.0287
 2992TIP3    H230468   3.591   0.209   6.686 -2.3197 -2.4890 -1.6019
 2993TIP3   OH230469   6.653   3.087  15.140 -0.6571  0.1479 -0.0086
 2993TIP3    H130470   6.567   3.060  15.110 -0.0492  0.0814 -1.8417
 2993TIP3    H230471   6.714   3.029  15.094  0.3552 -0.7524  2.2908
 2994TIP3   OH230472   2.821   5.932  11.081  0.3296  0.2419  0.6566
 2994TIP3    H130473   2.860   5.891  11.004 -1.3756  0.8617 -0.5956
 2994TIP3    H230474   2.870   6.014  11.090 -0.3244  0.8158 -0.6417
 2995TIP3   OH230475   6.463   0.374   3.811  0.1823  0.4527  0.0967
 2995TIP3    H130476   6.523   0.448   3.802  1.2693 -0.2542  1.1938
 2995TIP3    H230477   6.517   0.297   3.796 -1.0389 -0.1583 -1.5531
 2996TIP3   OH230478   2.211   4.337   5.623 -0.4291  0.1621  0.5318
 2996TIP3    H130479   2.133   4.295   5.588  0.0186 -0.2133 -0.0396
 2996TIP3    H230480   2.178   4.398   5.689 -1.2201  0.2121  0.1016
 2997TIP3   OH230481   2.339   1.522  14.446 -0.3316  0.3643  0.2153
 2997TIP3    H130482   2.255   1.542  14.404 -0.1097  2.0116  0.4869
 2997TIP3    H230483   2.353   1.594  14.507  0.9402 -0.2736  0.7056
 2998TIP3   OH230484   3.846   1.318   1.711 -0.2691 -0.1313  0.5937
 2998TIP3    H130485   3.780   1.380   1.742  0.7386  0.8747  0.7648
 2998TIP3    H230486   3.809   1.283   1.630 -1.6023 -0.5881  1.3731
 2999TIP3   OH230487   6.361   2.188   3.862  0.0802 -0.2171  0.7978
 2999TIP3    H130488   6.273   2.220   3.881  0.0398  0.1222  0.0525
 2999TIP3    H230489   6.400   2.172   3.948 -0.2617  0.8461  1.1578
 3000TIP3   OH230490   5.074   2.309   4.622 -0.4499 -0.0396  0.5484
 3000TIP3    H130491   5.026   2.228   4.640  2.1343 -2.3259 -1.9159
 3000TIP3    H230492   5.123   2.326   4.703 -1.7848 -0.3255  1.4449
 3001TIP3   OH230493   2.837   2.719  11.472  0.6795 -0.3504  0.3057
 3001TIP3    H130494   2.823   2.814  11.480  0.3182 -0.2701 -1.1103
 3001TIP3    H230495   2.751   2.681  11.488  0.8500 -0.4745  1.0043
 3002TIP3   OH230496   0.166   0.256  12.301  0.5803  0.8283 -0.0470
 3002TIP3    H130497   0.099   0.285  12.363  1.9922  0.7224  1.5975
 3002TIP3    H230498   0.123   0.187  12.251 -1.1410  2.0733 -0.4050
 3003TIP3   OH230499   2.795   0.309   1.204 -0.7295 -0.4509 -1.0164
 3003TIP3    H130500   2.815   0.402   1.216  0.7247 -1.0664  2.0865
 3003TIP3    H230501   2.878   0.269   1.178 -0.9008 -1.1369 -0.5446
 3004TIP3   OH230502   0.221   2.788   5.320  0.4360  0.1671  0.4059
 3004TIP3    H130503   0.203   2.695   5.332 -0.5799  0.1063 -1.2669
 3004TIP3    H230504   0.314   2.798   5.338  0.2278 -0.8486  2.2663
 3005TIP3   OH230505   3.933   5.486   3.912 -0.3677 -0.2117 -0.2918
 3005TIP3    H130506   3.879   5.547   3.862 -0.4230  0.1739  0.2267
 3005TIP3    H230507   3.898   5.400   3.890 -0.1672 -0.0791 -1.1715
 3006TIP3   OH230508   5.075   6.762   3.163  0.1194 -0.7595 -0.1400
 3006TIP3    H130509   5.039   6.784   3.249  2.7018  0.3871  0.7669
 3006TIP3    H230510   5.105   6.846   3.127  3.0319 -1.6851 -0.1626
 3007TIP3   OH230511   6.674   5.113   1.745  0.3243  0.1077  0.1159
 3007TIP3    H130512   6.724   5.194   1.741 -2.4405  1.8554 -1.4020
 3007TIP3    H230513   6.622   5.121   1.824  0.0887 -0.2241 -0.0044
 3008TIP3   OH230514   4.148   5.528  13.862 -1.0716 -0.6564 -0.2363
 3008TIP3    H130515   4.120   5.523  13.953  1.7138 -1.3989  0.6785
 3008TIP3    H230516   4.227   5.582  13.864 -1.5483  0.2471 -2.4163
 3009TIP3   OH230517   2.160   0.123   3.772 -0.2176 -0.2226 -0.3178
 3009TIP3    H130518   2.141   0.195   3.712 -0.5162 -0.5877 -0.6682
 3009TIP3    H230519   2.196   0.055   3.716 -1.8387 -1.1116 -0.3339
 3010TIP3   OH230520   3.913   2.375   6.417 -0.1519  0.1805 -0.3002
 3010TIP3    H130521   3.971   2.302   6.392 -0.6338 -0.1831 -0.3659
 3010TIP3    H230522   3.922   2.438   6.346 -0.1921 -0.0838 -0.5412
 3011TIP3   OH230523   3.680   0.004  13.780 -0.0020 -0.6121 -0.0496
 3011TIP3    H130524   3.769  -0.007  13.812  0.8388 -0.5728 -2.2181
 3011TIP3    H230525   3.677   0.092  13.745 -0.4757 -1.0495 -1.1634
 3012TIP3   OH230526   0.887   6.110  12.983 -0.1190 -0.0218 -0.0238
 3012TIP3    H130527   0.886   6.183  12.920  2.1906  1.1970  1.2232
 3012TIP3    H230528   0.896   6.032  12.929  2.1285  1.0025 -1.2907
 3013TIP3   OH230529   4.081   3.995   5.025 -0.6349 -0.2397 -0.0345
 3013TIP3    H130530   3.996   4.009   4.982 -1.2862 -1.3162  0.8540
 3013TIP3    H230531   4.094   3.900   5.021  1.0963  0.0118 -1.1845
 3014TIP3   OH230532   5.655   5.220  11.806  0.4761 -0.0443  0.1648
 3014TIP3    H130533   5.601   5.290  11.842 -2.0782 -1.1458 -1.2457
 3014TIP3    H230534   5.716   5.265  11.748 -1.4616  1.0749 -1.1521
 3015TIP3   OH230535   0.787   5.789   3.973  0.1279 -0.1035  0.0590
 3015TIP3    H130536   0.720   5.781   3.906  1.7637  0.4495 -1.7273
 3015TIP3    H230537   0.768   5.873   4.016 -1.1557 -0.6442  0.6114
 3016TIP3   OH230538   3.216   3.954   5.544  0.0541 -0.5206 -0.1786
 3016TIP3    H130539   3.212   4.045   5.575 -0.0914 -0.6457  0.1688
 3016TIP3    H230540   3.304   3.946   5.508 -0.2026 -0.0064 -0.9442
 3017TIP3   OH230541   3.737   3.040   3.295  0.2148 -0.0225  0.3370
 3017TIP3    H130542   3.678   3.029   3.369  0.8146  1.1902  1.0175
 3017TIP3    H230543   3.714   2.968   3.235 -0.7442 -0.6023  1.3697
 3018TIP3   OH230544   4.040   2.426  17.175  0.1803 -0.0604  0.1734
 3018TIP3    H130545   4.047   2.522  17.174  0.5453 -0.0761  0.7673
 3018TIP3    H230546   4.129   2.396  17.194 -0.0226 -0.4999  0.4404
 3019TIP3   OH230547   5.958   2.588   1.071  0.2491 -0.6455 -1.0268
 3019TIP3    H130548   5.878   2.536   1.061 -2.0139  1.6064  3.0353
 3019TIP3    H230549   5.975   2.589   1.165  2.5366  2.5605 -1.2939
 3020TIP3   OH230550   0.926   5.416   3.213  0.6427 -0.7266  0.0835
 3020TIP3    H130551   0.881   5.496   3.241  0.1768 -1.2440  0.8471
 3020TIP3    H230552   0.922   5.418   3.118 -0.4696 -0.4520  0.1205
 3021TIP3   OH230553   6.372   2.369   4.308 -0.1580  0.6023  0.1777
 3021TIP3    H130554   6.282   2.338   4.322  1.0014 -2.6649  1.4396
 3021TIP3    H230555   6.397   2.409   4.391  0.2812 -0.7294  0.7186
 3022TIP3   OH230556   0.981   3.746  13.787 -0.2636 -0.2606 -0.0317
 3022TIP3    H130557   0.910   3.713  13.732 -0.6259 -0.9055  0.7844
 3022TIP3    H230558   1.014   3.823  13.741 -1.2577 -0.1553 -0.6048
 3023TIP3   OH230559   0.589   4.962  13.645 -0.2321 -0.6137 -0.0884
 3023TIP3    H130560   0.583   5.050  13.683 -1.6776  0.2948 -2.2644
 3023TIP3    H230561   0.561   4.904  13.715 -0.8351  0.7943  0.8812
 3024TIP3   OH230562   1.690   5.757  14.326  0.3669 -0.0837  0.1734
 3024TIP3    H130563   1.711   5.809  14.404 -0.8301  1.1841 -0.3207
 3024TIP3    H230564   1.615   5.801  14.287 -1.5228 -2.8393  0.3686
 3025TIP3   OH230565   3.886   4.221   0.321 -0.5480 -0.1483 -0.0734
 3025TIP3    H130566   3.815   4.261   0.270 -0.6499 -0.6788 -0.3493
 3025TIP3    H230567   3.843   4.164   0.383 -0.3968  0.1298  0.2904
 3026TIP3   OH230568   3.098   3.419  11.699  0.0376 -0.4838  0.1497
 3026TIP3    H130569   3.137   3.503  11.724 -0.9680 -0.4419  1.7103
 3026TIP3    H230570   3.016   3.415  11.748  0.2926 -2.6090  0.4931
 3027TIP3   OH230571   3.195   6.340   0.107  0.7664  0.3659  0.0621
 3027TIP3    H130572   3.275   6.374   0.065  1.3579  0.0944  0.9327
 3027TIP3    H230573   3.207   6.360   0.199  0.8794 -1.6848  0.5352
 3028TIP3   OH230574   0.946   1.639  16.899  0.3040 -0.4519 -0.8569
 3028TIP3    H130575   1.014   1.637  16.966  0.1257 -0.2501 -0.6699
 3028TIP3    H230576   0.908   1.551  16.900 -2.8936  0.7250  2.6020
 3029TIP3   OH230577   4.078   4.585   6.579  0.1570 -0.3625 -0.3222
 3029TIP3    H130578   4.152   4.644   6.563 -0.0304  0.4885  1.6675
 3029TIP3    H230579   4.001   4.638   6.558  0.0459 -0.9490 -1.4962
 3030TIP3   OH230580   1.235   1.474  12.841 -0.5832 -0.2988 -0.0872
 3030TIP3    H130581   1.327   1.498  12.847 -0.3487 -1.2129  0.1022
 3030TIP3    H230582   1.224   1.401  12.902 -1.2268 -0.7746 -0.7394
 3031TIP3   OH230583   5.497   1.520  16.348  0.2857  0.0960 -0.1659
 3031TIP3    H130584   5.425   1.561  16.396 -1.0850 -0.5372 -1.5917
 3031TIP3    H230585   5.506   1.433  16.388  0.6865  0.4032  0.4187
 3032TIP3   OH230586   6.378   1.888   1.071 -0.1173  0.0416  0.2095
 3032TIP3    H130587   6.433   1.839   1.132  0.3325  0.3275  0.0435
 3032TIP3    H230588   6.440   1.932   1.013 -0.4770  1.3060  0.7415
 3033TIP3   OH230589   5.616   2.942   5.952 -0.5363  0.0544 -0.2247
 3033TIP3    H130590   5.520   2.939   5.947 -0.6687  1.1126  1.1258
 3033TIP3    H230591   5.636   3.035   5.961  0.6048 -0.1959 -0.0983
 3034TIP3   OH230592   0.450   4.838  13.424 -0.2791 -0.3938 -0.0291
 3034TIP3    H130593   0.507   4.860  13.350  0.1598 -1.0747  0.0971
 3034TIP3    H230594   0.466   4.907  13.488 -0.2395 -0.1113 -0.3383
 3035TIP3   OH230595   4.511   1.617   6.442 -0.0333 -0.3652 -0.3190
 3035TIP3    H130596   4.470   1.541   6.400  0.1630  0.1209 -1.4511
 3035TIP3    H230597   4.509   1.598   6.535 -0.5927 -1.4576 -0.5410
 3036TIP3   OH230598   6.666   1.749   5.046 -0.2979 -0.5865  0.2989
 3036TIP3    H130599   6.741   1.694   5.024 -0.1562 -0.1622 -0.2848
 3036TIP3    H230600   6.677   1.766   5.140  0.1006 -0.8770  0.3113
 3037TIP3   OH230601   1.998   0.228  12.878 -0.0610  0.3781  0.0920
 3037TIP3    H130602   2.077   0.179  12.858 -0.6684 -0.2582 -0.8598
 3037TIP3    H230603   1.988   0.289  12.805  0.1583  1.2523  0.7783
 3038TIP3   OH230604   5.216   4.585  13.127  0.1115 -0.7011 -0.3578
 3038TIP3    H130605   5.205   4.670  13.084 -1.7590 -0.1000  1.1481
 3038TIP3    H230606   5.127   4.558  13.150  0.9094 -1.1185  2.7574
 3039TIP3   OH230607   5.187   5.150  12.561  0.2817 -0.0192 -0.4148
 3039TIP3    H130608   5.210   5.106  12.643  0.9835  1.8513  0.4574
 3039TIP3    H230609   5.112   5.204  12.583 -1.5424 -1.8063 -1.8571
 3040TIP3   OH230610   5.704   0.639  11.780 -0.1119  0.3435  0.2100
 3040TIP3    H130611   5.704   0.582  11.703 -0.5758  0.8289 -0.1581
 3040TIP3    H230612   5.653   0.716  11.754  1.7850  1.6649  0.1541
 3041TIP3   OH230613   3.053   4.784   4.658 -0.6510 -0.1783  0.3870
 3041TIP3    H130614   2.995   4.832   4.598  1.1885 -0.5363 -1.8145
 3041TIP3    H230615   3.117   4.849   4.687  0.2664 -0.6583 -0.5005
 3042TIP3   OH230616   1.871   2.830   1.741  0.2289  0.4346 -0.4471
 3042TIP3    H130617   1.825   2.908   1.771  0.3462  0.5685 -0.6114
 3042TIP3    H230618   1.890   2.781   1.821 -2.2001 -0.7686 -0.5372
 3043TIP3   OH230619   0.836   3.222   4.698  0.1719 -0.2534 -0.4091
 3043TIP3    H130620   0.754   3.179   4.671 -0.2393  0.8075 -0.9056
 3043TIP3    H230621   0.817   3.257   4.785 -0.9761  2.5402 -1.6356
 3044TIP3   OH230622   1.306   6.773  13.216  1.0018 -0.6289 -0.0784
 3044TIP3    H130623   1.267   6.790  13.302  2.2329  0.2134  0.3304
 3044TIP3    H230624   1.292   6.679  13.202  0.4457 -0.7035  0.8518
 3045TIP3   OH230625   5.667   6.722  14.555 -0.1406 -0.1565  0.1640
 3045TIP3    H130626   5.633   6.792  14.611 -1.4311  0.7102 -1.6191
 3045TIP3    H230627   5.712   6.663  14.616  0.5829  1.9326  1.8051
 3046TIP3   OH230628   1.182   2.070   4.766  0.0252  0.1218 -0.1615
 3046TIP3    H130629   1.159   1.982   4.794  0.4687  0.3279  0.8920
 3046TIP3    H230630   1.205   2.060   4.673  1.7417 -1.2080  0.3398
 3047TIP3   OH230631   0.560   3.074   1.281 -0.3136  0.2467  0.3801
 3047TIP3    H130632   0.640   3.084   1.229 -0.6526 -1.2293 -0.4944
 3047TIP3    H230633   0.537   3.163   1.307  1.4487  0.7422  0.4265
 3048TIP3   OH230634   4.390   3.001   3.235  0.2639 -0.3218 -0.0440
 3048TIP3    H130635   4.399   3.065   3.306 -1.6003 -0.7037  0.5842
 3048TIP3    H230636   4.303   2.964   3.246 -0.1100 -0.4009 -2.5404
 3049TIP3   OH230637   4.508   4.424   5.142 -0.4079  0.7975  0.6039
 3049TIP3    H130638   4.441   4.356   5.130  0.9397 -0.5172  0.3438
 3049TIP3    H230639   4.532   4.418   5.235  0.6236  0.0115  0.3042
 3050TIP3   OH230640   1.779   4.283  12.099 -0.0915 -0.1217 -0.1193
 3050TIP3    H130641   1.751   4.224  12.029  1.1554  1.4334 -2.0759
 3050TIP3    H230642   1.726   4.259  12.174 -1.9928 -1.4660 -1.7820
 3051TIP3   OH230643   3.691   5.500   1.284 -0.0062  0.4036 -0.6011
 3051TIP3    H130644   3.612   5.553   1.294  0.3362  0.9971 -0.9317
 3051TIP3    H230645   3.736   5.507   1.368 -0.7708 -0.7398 -0.0727
 3052TIP3   OH230646   1.785   5.997   0.750 -0.7343  0.5679 -0.2143
 3052TIP3    H130647   1.775   5.967   0.840 -0.5701  1.6046  0.1694
 3052TIP3    H230648   1.831   6.081   0.758  0.0890  0.2433 -1.3318
 3053TIP3   OH230649   6.470   2.841  15.757 -0.2881  0.3829  0.7562
 3053TIP3    H130650   6.379   2.862  15.734 -0.9392  0.5612  3.1426
 3053TIP3    H230651   6.519   2.920  15.735 -1.0480  0.9517  1.0612
 3054TIP3   OH230652   0.008   4.808  12.194  0.3477 -0.3989  0.5304
 3054TIP3    H130653  -0.074   4.815  12.146  0.7206  2.1448  0.1252
 3054TIP3    H230654  -0.011   4.849  12.279  1.5909  2.0036 -0.2445
 3055TIP3   OH230655   1.898   1.299   3.095  0.4225 -0.5103 -0.0827
 3055TIP3    H130656   1.843   1.373   3.072  1.1269  0.0583  0.0528
 3055TIP3    H230657   1.912   1.307   3.189  0.7171 -0.6647 -0.1115
 3056TIP3   OH230658   3.777   5.385   1.909 -0.0219  0.1753 -0.2485
 3056TIP3    H130659   3.838   5.363   1.838 -1.4401 -0.7642 -1.2208
 3056TIP3    H230660   3.755   5.477   1.895  0.3359  0.2188 -0.5293
 3057TIP3   OH230661   6.079   5.347   0.689 -0.2929 -0.0425 -0.1972
 3057TIP3    H130662   6.105   5.308   0.772  0.0851 -1.0320 -0.7687
 3057TIP3    H230663   5.985   5.328   0.681 -1.2946  3.2426  1.7064
 3058TIP3   OH230664   1.986   2.347   5.674  0.4543  0.0582  0.3742
 3058TIP3    H130665   1.944   2.281   5.619  0.6707 -0.7180  1.1402
 3058TIP3    H230666   1.968   2.319   5.763  0.9706  0.7726  0.7078
 3059TIP3   OH230667   0.978   4.584  13.145  0.4603 -0.2962  0.2936
 3059TIP3    H130668   0.980   4.521  13.074  0.1472  2.1465 -2.0279
 3059TIP3    H230669   1.041   4.550  13.209  0.1967 -2.9657 -0.7458
 3060TIP3   OH230670   0.191   2.211  15.613  0.2558 -0.7299 -0.5199
 3060TIP3    H130671   0.107   2.201  15.567 -1.1456  0.3360  1.6057
 3060TIP3    H230672   0.223   2.121  15.622 -2.1187 -1.5419  1.0184
 3061TIP3   OH230673   4.065   2.616   4.552  0.6602  0.3600 -0.6068
 3061TIP3    H130674   4.005   2.583   4.619  1.6900  0.4011  0.3604
 3061TIP3    H230675   4.030   2.581   4.470 -0.3631 -0.0806 -0.0020
 3062TIP3   OH230676   4.680   0.762   4.631 -0.3482  0.2623 -0.9933
 3062TIP3    H130677   4.615   0.818   4.673 -1.2631 -0.1556 -1.8187
 3062TIP3    H230678   4.677   0.786   4.539  1.8388  1.3701 -0.8378
 3063TIP3   OH230679   3.407   5.488  15.725  0.1182  0.2817  0.1899
 3063TIP3    H130680   3.412   5.392  15.723 -2.1864  0.1249 -1.4249
 3063TIP3    H230681   3.399   5.510  15.818 -1.0043 -1.2341  0.4872
 3064TIP3   OH230682   5.514   0.745  13.024 -0.1345  0.6119  0.1666
 3064TIP3    H130683   5.517   0.818  12.962 -1.1269  1.5830  1.2221
 3064TIP3    H230684   5.423   0.713  13.018 -0.1199  0.4440  0.8096
 3065TIP3   OH230685   1.877   0.706   1.178 -0.6252  0.1404  0.0193
 3065TIP3    H130686   1.946   0.770   1.158 -0.1398 -0.4406 -0.2082
 3065TIP3    H230687   1.837   0.687   1.093 -1.4857  0.9402  0.2392
 3066TIP3   OH230688   5.820   5.541  13.544  0.3717 -0.1516 -0.5621
 3066TIP3    H130689   5.755   5.607  13.521  0.6958 -0.3321 -2.0665
 3066TIP3    H230690   5.831   5.551  13.639  1.0029  2.5020 -0.8299
 3067TIP3   OH230691   1.087   6.007  11.795  0.2901  0.2910  0.0734
 3067TIP3    H130692   0.994   5.991  11.807  0.5454 -0.6871  0.9858
 3067TIP3    H230693   1.106   5.978  11.706 -0.3674  1.0301 -0.3165
 3068TIP3   OH230694   1.816   2.483   0.475 -0.3995  0.6774  0.1385
 3068TIP3    H130695   1.884   2.546   0.499 -0.1207  0.6893 -0.6529
 3068TIP3    H230696   1.802   2.497   0.381 -1.3438  0.5275  0.2400
 3069TIP3   OH230697   5.249   4.236   3.663 -0.1546  0.6536  0.5992
 3069TIP3    H130698   5.303   4.166   3.699  0.4322  1.2094  0.8071
 3069TIP3    H230699   5.296   4.265   3.584 -2.5802 -2.1837 -2.1536
 3070TIP3   OH230700   3.278   6.441   5.965 -0.3851  0.2473  0.4386
 3070TIP3    H130701   3.220   6.517   5.966  1.5462  1.7979  0.9038
 3070TIP3    H230702   3.263   6.399   6.050 -2.0692 -0.4582 -0.1508
 3071TIP3   OH230703   3.422   6.768  14.033  0.3059  0.0098 -0.2498
 3071TIP3    H130704   3.398   6.685  13.992 -0.1153  0.7259 -1.5292
 3071TIP3    H230705   3.496   6.747  14.090  0.6249 -1.1271 -1.0510
 3072TIP3   OH230706   4.710   0.936  14.452  0.8215  0.0467  0.1289
 3072TIP3    H130707   4.729   0.849  14.416 -2.5576  0.1628 -2.4430
 3072TIP3    H230708   4.623   0.928  14.490  0.3992  2.2688 -0.2282
 3073TIP3   OH230709   2.799   5.009  13.646 -0.2819 -0.0882  0.0287
 3073TIP3    H130710   2.706   5.032  13.644 -0.1519  0.5056  0.4541
 3073TIP3    H230711   2.816   4.988  13.738 -0.1978 -1.0805 -0.2047
 3074TIP3   OH230712   0.335   1.566   5.347  0.3304  0.0428 -0.4084
 3074TIP3    H130713   0.250   1.530   5.372  0.2495 -0.0629 -0.8385
 3074TIP3    H230714   0.315   1.654   5.313  0.5648  0.6736  1.0030
 3075TIP3   OH230715   3.109   3.174   2.704 -0.1449 -0.1775 -0.2296
 3075TIP3    H130716   3.043   3.230   2.665  0.3446  0.5417 -0.0365
 3075TIP3    H230717   3.065   3.090   2.718 -0.9629  0.2518 -0.2360
 3076TIP3   OH230718   4.724   5.448  15.650  0.3598 -0.0373  0.6671
 3076TIP3    H130719   4.776   5.386  15.599 -0.4720  0.0030 -0.2674
 3076TIP3    H230720   4.637   5.445  15.609  0.6101  2.6979 -0.2636
 3077TIP3   OH230721   3.944   4.684  10.799  0.3755  0.0941  0.1206
 3077TIP3    H130722   4.025   4.658  10.754  0.6202  1.9488 -0.6074
 3077TIP3    H230723   3.879   4.691  10.729 -0.1551 -0.3729  0.5608
 3078TIP3   OH230724   4.609   3.339  16.252  0.0989  0.5312  0.8976
 3078TIP3    H130725   4.634   3.408  16.312  0.2997  0.9223  0.3691
 3078TIP3    H230726   4.691   3.295  16.230  0.2266  1.2763 -0.1725
 3079TIP3   OH230727   4.233   4.474   5.432 -0.2553  0.1078 -0.0209
 3079TIP3    H130728   4.207   4.431   5.350 -1.5192  0.5610  0.1163
 3079TIP3    H230729   4.328   4.485   5.424 -0.1807 -0.9324 -0.8960
 3080TIP3   OH230730   4.317   1.016  14.909 -0.5383 -0.0937 -0.0388
 3080TIP3    H130731   4.341   1.089  14.852  0.3455 -2.2684 -2.6734
 3080TIP3    H230732   4.392   1.007  14.968  0.1568  0.0304 -0.8763
 3081TIP3   OH230733   6.260   4.983   4.865 -0.5414 -0.0142 -0.4664
 3081TIP3    H130734   6.275   4.898   4.907  0.6551 -0.3043 -1.3976
 3081TIP3    H230735   6.297   5.047   4.926  0.8863 -0.4027 -0.8716
 3082TIP3   OH230736   3.994   4.042  16.726  0.1835  0.5404 -0.7460
 3082TIP3    H130737   3.935   4.014  16.795  0.5694  0.4330 -0.4524
 3082TIP3    H230738   4.049   4.110  16.766  1.0625 -0.2044 -0.6419
 3083TIP3   OH230739   5.693   0.445  16.676  0.4874 -0.2375 -0.1514
 3083TIP3    H130740   5.688   0.450  16.580  1.7165  0.4045 -0.1961
 3083TIP3    H230741   5.744   0.366  16.693  2.6462  1.0784 -0.1407
 3084TIP3   OH230742   6.788   0.955   2.554 -0.7254  0.1657 -0.3137
 3084TIP3    H130743   6.881   0.959   2.530  0.1184 -2.9107  1.8071
 3084TIP3    H230744   6.742   0.963   2.471  1.6008 -1.1535 -1.8716
 3085TIP3   OH230745   0.007   5.981   5.906 -0.2426  0.4649  0.4430
 3085TIP3    H130746   0.074   6.005   5.841  0.3041  1.2837  1.2788
 3085TIP3    H230747   0.048   5.913   5.959 -0.9006 -0.6204 -0.3982
 3086TIP3   OH230748   1.733   4.611   1.218 -0.5816  0.1284  0.8799
 3086TIP3    H130749   1.735   4.530   1.269 -0.4284 -0.6340 -0.2970
 3086TIP3    H230750   1.770   4.587   1.133  2.5648  2.1843  1.5003
 3087TIP3   OH230751   0.859   4.388   2.697  0.1318  0.5869  0.3163
 3087TIP3    H130752   0.819   4.421   2.616  2.4780  1.8738 -0.4243
 3087TIP3    H230753   0.888   4.300   2.675  1.4107  1.1908 -0.5465
 3088TIP3   OH230754   1.358   5.459  16.823  0.0547  0.9790 -0.1599
 3088TIP3    H130755   1.309   5.449  16.905 -1.6171  1.9152 -0.9774
 3088TIP3    H230756   1.329   5.385  16.769  0.2662  1.0060 -0.3075
 3089TIP3   OH230757   5.533   3.036   0.862  0.0682 -0.0933 -0.1093
 3089TIP3    H130758   5.495   2.954   0.828 -1.1210  0.0392  0.8332
 3089TIP3    H230759   5.521   3.030   0.957  0.2174  1.0555 -0.0066
 3090TIP3   OH230760   4.972   4.745   2.399  0.0465 -0.4668 -0.0386
 3090TIP3    H130761   4.948   4.670   2.453  2.7645 -1.0395  0.5634
 3090TIP3    H230762   5.067   4.736   2.387  0.2050  2.0051 -1.3059
 3091TIP3   OH230763   3.983   3.052   4.180 -0.1299  0.2755 -0.0660
 3091TIP3    H130764   3.917   2.987   4.158 -1.7244  2.1254 -1.0577
 3091TIP3    H230765   3.977   3.061   4.275 -0.4608 -0.4236 -0.0178
 3092TIP3   OH230766   1.092   5.798  16.886 -0.5411  0.1561 -0.6828
 3092TIP3    H130767   1.168   5.816  16.831  0.2655 -0.2760  0.2567
 3092TIP3    H230768   1.112   5.715  16.929 -1.5567  0.0243 -0.4430
 3093TIP3   OH230769   5.230   3.028  15.990  0.2262  0.2672 -0.3091
 3093TIP3    H130770   5.226   2.988  15.903  0.1229 -0.0842 -0.1453
 3093TIP3    H230771   5.266   3.116  15.974  2.1449 -0.4946 -0.4730
 3094TIP3   OH230772   3.792   0.803   2.369  0.0164 -0.1232  0.0701
 3094TIP3    H130773   3.826   0.882   2.411  0.1428 -0.5176  0.7148
 3094TIP3    H230774   3.728   0.768   2.432 -2.1429  0.9631 -1.3647
 3095TIP3   OH230775   2.074   6.239  17.040 -0.3349 -0.4406  0.1859
 3095TIP3    H130776   2.068   6.234  17.136 -2.2498  0.3975  0.1452
 3095TIP3    H230777   2.095   6.150  17.013 -2.1487 -1.2346  1.2667
 3096TIP3   OH230778   4.175   4.205  16.859  0.4731 -0.0060 -0.0236
 3096TIP3    H130779   4.204   4.296  16.859  1.0876 -0.1980  0.2449
 3096TIP3    H230780   4.252   4.155  16.833  0.6286 -0.5751  1.4024
 3097TIP3   OH230781   0.845   1.596   2.866 -0.6874  0.4870  0.2502
 3097TIP3    H130782   0.803   1.541   2.800  1.3302 -0.9806  0.0914
 3097TIP3    H230783   0.801   1.574   2.947 -1.2940  0.2089 -0.1457
 3098TIP3   OH230784   6.506   1.093  11.818 -0.3806  0.0353 -0.2375
 3098TIP3    H130785   6.451   1.120  11.891  0.2724  0.1867  0.2081
 3098TIP3    H230786   6.534   1.174  11.777  1.5764  0.1190  1.0985
 3099TIP3   OH230787   1.433   3.679   0.599 -0.5755  0.3987 -0.1047
 3099TIP3    H130788   1.385   3.702   0.519  0.9701 -1.4176 -1.6681
 3099TIP3    H230789   1.417   3.585   0.611  2.0904 -0.1972 -0.4541
 3100TIP3   OH230790   3.915   1.333   5.553  0.0081  0.1122 -0.2015
 3100TIP3    H130791   3.839   1.378   5.515 -1.5360 -2.1805 -0.0551
 3100TIP3    H230792   3.973   1.403   5.581 -2.1307  1.9948 -0.1729
 3101TIP3   OH230793   6.192   6.283  17.205 -0.2925 -0.5512  0.2567
 3101TIP3    H130794   6.263   6.227  17.174 -1.0856 -0.7477 -1.3066
 3101TIP3    H230795   6.152   6.318  17.125  0.0736  2.1718  1.1439
 3102TIP3   OH230796   2.813   3.744   5.850 -0.4113 -0.0578  0.0749
 3102TIP3    H130797   2.865   3.713   5.924 -1.0278  1.6576  1.2989
 3102TIP3    H230798   2.747   3.676   5.837  1.2946 -1.6517 -0.6812
 3103TIP3   OH230799   4.096   6.620   1.719  0.1887  0.1053 -0.0306
 3103TIP3    H130800   4.068   6.594   1.632  1.1597 -1.3347  0.0751
 3103TIP3    H230801   4.188   6.596   1.725  0.1932  0.3270  1.3354
 3104TIP3   OH230802   0.308   2.822  12.861 -0.4605 -0.2336  0.0470
 3104TIP3    H130803   0.259   2.740  12.853 -0.8946  0.1211 -1.0992
 3104TIP3    H230804   0.386   2.808  12.807 -1.7443  0.9646 -2.2706
 3105TIP3   OH230805   6.374   6.665  12.497 -0.2317 -0.2393  0.0033
 3105TIP3    H130806   6.312   6.661  12.425 -0.2600  1.3086 -0.1094
 3105TIP3    H230807   6.321   6.686  12.574  0.0824  0.8859 -0.0576
 3106TIP3   OH230808   3.905   2.835   0.491 -0.6295  0.6409 -0.1249
 3106TIP3    H130809   3.909   2.822   0.586 -0.5032 -2.3338 -0.4239
 3106TIP3    H230810   3.818   2.870   0.475 -0.9444  0.4516  1.0579
 3107TIP3   OH230811   1.597   1.166  13.789 -0.1751  0.0512  0.5076
 3107TIP3    H130812   1.687   1.198  13.788 -0.2063  0.1396  0.5106
 3107TIP3    H230813   1.573   1.158  13.697  0.3350 -1.3924  0.4815
 3108TIP3   OH230814   0.601   4.386   5.940  0.7268 -0.3014  0.6180
 3108TIP3    H130815   0.566   4.462   5.988  1.5895  0.0707  0.6769
 3108TIP3    H230816   0.696   4.390   5.956  0.9485 -0.5394 -0.6092
 3109TIP3   OH230817   4.394   6.758   3.381 -0.2596  0.0658  0.5942
 3109TIP3    H130818   4.366   6.845   3.412 -0.0755  0.7495 -1.0258
 3109TIP3    H230819   4.488   6.757   3.395 -0.3953 -0.2780  1.5247
 3110TIP3   OH230820   5.896   3.963   3.797 -0.1732 -0.3604 -0.4938
 3110TIP3    H130821   5.957   4.013   3.852 -0.0134 -1.1189  0.0346
 3110TIP3    H230822   5.925   3.872   3.806 -1.1315 -0.6826 -0.5710
 3111TIP3   OH230823   2.347   6.010   6.312  0.2805 -0.5491  0.0612
 3111TIP3    H130824   2.438   5.997   6.338  1.8216  2.8719 -2.6990
 3111TIP3    H230825   2.341   5.972   6.224 -0.8365 -0.3532  0.0367
 3112TIP3   OH230826   5.885   4.859   0.230  0.5418 -0.3275  0.5673
 3112TIP3    H130827   5.917   4.823   0.312  1.3092 -0.7404  0.0959
 3112TIP3    H230828   5.897   4.954   0.239 -0.8362 -0.2183  1.5343
 3113TIP3   OH230829   0.533   5.134   2.491 -0.6601 -0.6121  0.2220
 3113TIP3    H130830   0.486   5.197   2.434 -0.4203  1.2790  1.9891
 3113TIP3    H230831   0.606   5.104   2.438 -0.8312  0.5659 -0.7400
 3114TIP3   OH230832   1.214   2.859  15.071 -0.6605 -0.2404 -0.1289
 3114TIP3    H130833   1.288   2.820  15.116 -0.7243 -0.6839 -0.4103
 3114TIP3    H230834   1.215   2.951  15.099 -0.0604 -0.2632 -0.0711
 3115TIP3   OH230835   0.161   6.459  11.784 -0.0757  0.0900 -0.2830
 3115TIP3    H130836   0.191   6.531  11.729  0.8372 -0.1051 -0.0575
 3115TIP3    H230837   0.232   6.395  11.780  0.4639  0.4865  1.8883
 3116TIP3   OH230838   0.388   5.998   2.272 -0.2769 -0.0193 -0.2063
 3116TIP3    H130839   0.480   5.983   2.295 -0.9310 -1.4113  1.8220
 3116TIP3    H230840   0.378   6.093   2.276  0.9515  0.1277  0.0247
 3117TIP3   OH230841   0.288   2.791  17.004 -0.2750 -0.0709 -0.1746
 3117TIP3    H130842   0.241   2.710  17.024 -1.7106  0.9841  0.9582
 3117TIP3    H230843   0.356   2.797  17.071 -0.1806 -0.3169 -0.2480
 3118TIP3   OH230844   2.090   1.230  15.133 -0.1062 -0.4451 -0.0306
 3118TIP3    H130845   2.183   1.226  15.154 -0.3648 -0.7127  1.1444
 3118TIP3    H230846   2.087   1.234  15.037  1.1099 -0.2272 -0.0731
 3119TIP3   OH230847   6.754   6.623   4.241 -1.0537  0.2222  0.0828
 3119TIP3    H130848   6.722   6.668   4.163 -0.5094 -2.2895 -1.7023
 3119TIP3    H230849   6.715   6.535   4.236 -0.0650 -0.3884  2.0332
 3120TIP3   OH230850   0.058   2.978   2.433  0.4566  0.0359  0.1462
 3120TIP3    H130851   0.046   2.977   2.528  0.4515 -1.5645  0.1594
 3120TIP3    H230852   0.147   3.010   2.420  0.5454  0.0183  0.7045
 3121TIP3   OH230853   0.300   5.554  16.543  0.0443 -0.1072  0.5917
 3121TIP3    H130854   0.288   5.638  16.589 -0.8435  0.2766 -0.3061
 3121TIP3    H230855   0.212   5.530  16.515  0.1816 -1.7173  1.4465
 3122TIP3   OH230856   5.341   2.829   3.035  0.0496 -0.3392 -0.5587
 3122TIP3    H130857   5.392   2.810   2.956  0.1032  0.6819 -0.7764
 3122TIP3    H230858   5.253   2.798   3.014  0.3326 -1.1895 -0.5513
 3123TIP3   OH230859   6.542   2.161  15.423 -0.4808  0.2911 -0.1195
 3123TIP3    H130860   6.561   2.225  15.354  2.5609  0.1755  0.4791
 3123TIP3    H230861   6.483   2.098  15.382  0.4733  0.7518 -2.3398
 3124TIP3   OH230862   1.327   5.072   5.250 -0.5366  0.8696  0.3140
 3124TIP3    H130863   1.413   5.102   5.221 -0.7096  1.2913  0.2287
 3124TIP3    H230864   1.316   5.112   5.336  1.0364 -2.3327  2.1655
 3125TIP3   OH230865   3.712   2.161   3.764  0.4889 -0.2556 -0.0790
 3125TIP3    H130866   3.669   2.123   3.687 -1.0861  0.6537  0.2975
 3125TIP3    H230867   3.728   2.087   3.822 -1.6270 -0.5600  0.2245
 3126TIP3   OH230868   5.673   5.494   4.025  0.8130  0.6236 -0.2244
 3126TIP3    H130869   5.616   5.569   4.012 -0.4441 -0.4898 -1.4122
 3126TIP3    H230870   5.716   5.481   3.941  3.0912  1.5956  0.7088
 3127TIP3   OH230871   5.733   1.986  11.530  0.6404  0.4775 -0.2354
 3127TIP3    H130872   5.783   1.914  11.568  0.1896 -0.8342 -2.0445
 3127TIP3    H230873   5.654   1.992  11.584 -0.7721 -2.4244 -1.7695
 3128TIP3   OH230874   0.114   4.319  15.245  0.2278 -0.3009 -0.6650
 3128TIP3    H130875   0.186   4.378  15.267 -1.1518  1.7580 -1.3653
 3128TIP3    H230876   0.052   4.374  15.197 -1.4345 -2.2036 -0.8212
 3129TIP3   OH230877   5.973   5.334  11.193 -0.3240 -0.5166  0.2308
 3129TIP3    H130878   6.015   5.419  11.209  1.1953 -1.1774 -0.0405
 3129TIP3    H230879   5.909   5.351  11.124  0.0401  0.3868  0.1018
 3130TIP3   OH230880   3.563   2.994  10.833 -0.4028 -1.0224 -0.4396
 3130TIP3    H130881   3.600   2.936  10.767  2.8934 -1.3276  1.4084
 3130TIP3    H230882   3.602   3.080  10.814  1.0081 -1.2201  1.2484
 3131TIP3   OH230883   1.477   0.512   4.788 -0.0043 -0.7220  0.0839
 3131TIP3    H130884   1.460   0.467   4.705 -2.3020 -1.9946  1.1229
 3131TIP3    H230885   1.390   0.539   4.818  1.0961  3.0378  0.3744
 3132TIP3   OH230886   4.264   2.982  13.106  0.0890  0.3944  0.0951
 3132TIP3    H130887   4.321   3.052  13.138  0.3243  0.8226 -1.2173
 3132TIP3    H230888   4.295   2.904  13.151  0.5705  0.9332  0.7195
 3133TIP3   OH230889   2.441   2.384  10.375  0.1836 -0.5951  0.2099
 3133TIP3    H130890   2.373   2.318  10.362 -0.2018 -0.0853 -0.3579
 3133TIP3    H230891   2.422   2.423  10.460  1.0624 -1.9690  1.0908
 3134TIP3   OH230892   5.105   6.681   2.847 -0.2322  0.4695 -0.4034
 3134TIP3    H130893   5.155   6.600   2.841  0.6108  0.5749  2.8830
 3134TIP3    H230894   5.026   6.657   2.896 -0.1013  1.5232  0.3833
 3135TIP3   OH230895   2.937   3.317  15.087  0.0646 -0.2429  0.6360
 3135TIP3    H130896   2.864   3.297  15.146  0.1442  0.0376  0.8317
 3135TIP3    H230897   3.010   3.267  15.122  0.2762  0.4125  1.1525
 3136TIP3   OH230898   2.423   0.172  12.603  0.5860  0.0913  0.8626
 3136TIP3    H130899   2.377   0.134  12.528  0.2363 -1.1656  1.6709
 3136TIP3    H230900   2.383   0.258  12.615 -0.0611 -0.1108  0.2219
 3137TIP3   OH230901   2.916   2.746  15.752  0.8370 -0.3076 -0.0083
 3137TIP3    H130902   2.868   2.694  15.817  1.2717  1.0808  1.4824
 3137TIP3    H230903   2.958   2.681  15.696  0.2270 -1.5638  0.9416
 3138TIP3   OH230904   2.307   1.737  12.179 -0.0480 -0.8635  0.0406
 3138TIP3    H130905   2.261   1.670  12.128  0.7438 -1.4313  0.0407
 3138TIP3    H230906   2.244   1.766  12.245 -1.7373  1.1677 -2.2961
 3139TIP3   OH230907   2.614   2.755   2.935  0.2787 -0.8559  0.0488
 3139TIP3    H130908   2.673   2.718   3.001  0.3111  0.6961  0.9354
 3139TIP3    H230909   2.621   2.696   2.860  0.2452 -2.6879  1.4178
 3140TIP3   OH230910   5.789   0.080  15.110  0.3304  0.3986 -0.0664
 3140TIP3    H130911   5.773   0.160  15.060 -1.8715  0.7053  1.0047
 3140TIP3    H230912   5.747   0.011  15.058  0.7452  0.2182 -0.1606
 3141TIP3   OH230913   3.802   3.442  13.104  0.3052 -0.4062 -0.5433
 3141TIP3    H130914   3.809   3.538  13.108  1.6894 -0.4644 -1.0472
 3141TIP3    H230915   3.736   3.426  13.037  0.6530  0.1964 -1.0432
 3142TIP3   OH230916   2.232   5.743   0.008  0.1081 -0.0838 -0.3149
 3142TIP3    H130917   2.165   5.713  -0.052 -0.4365  1.6708 -0.6435
 3142TIP3    H230918   2.225   5.685   0.084  0.8410 -2.3705 -1.8983
 3143TIP3   OH230919   3.644   0.941   4.161 -0.3904  0.5434  0.1955
 3143TIP3    H130920   3.711   0.924   4.227 -1.0724 -0.1625  0.7204
 3143TIP3    H230921   3.561   0.936   4.209 -0.8027  2.2700 -0.2621
 3144TIP3   OH230922   5.726   1.150   2.922 -0.3687 -0.0754  0.4655
 3144TIP3    H130923   5.667   1.160   2.847  0.8309 -0.3747 -0.5502
 3144TIP3    H230924   5.719   1.058   2.946 -0.7738  0.0262  0.7371
 3145TIP3   OH230925   1.664   5.991  11.508  0.6836 -0.0553  0.4793
 3145TIP3    H130926   1.689   5.915  11.560  0.6855 -0.7183 -0.4705
 3145TIP3    H230927   1.657   5.958  11.418 -0.8005  0.7174  0.2765
 3146TIP3   OH230928   2.911   2.888  13.098 -0.6032 -0.7279 -0.0749
 3146TIP3    H130929   2.883   2.929  13.016 -0.5744  1.0110  0.7542
 3146TIP3    H230930   2.859   2.931  13.166  1.3446 -0.1404  1.1198
 3147TIP3   OH230931   5.129   3.344   4.626 -0.2560 -0.5061  0.3495
 3147TIP3    H130932   5.176   3.361   4.707 -0.9056 -0.4748  0.7253
 3147TIP3    H230933   5.102   3.252   4.633 -1.2015 -0.2150  0.6397
 3148TIP3   OH230934   6.496   0.339  13.359 -0.0163  1.1206  0.0947
 3148TIP3    H130935   6.582   0.312  13.327 -0.5471  0.3971 -0.7928
 3148TIP3    H230936   6.478   0.422  13.315 -0.2701  0.6786 -0.6528
 3149TIP3   OH230937   0.707   3.812   1.499  0.3950 -0.6876 -0.2658
 3149TIP3    H130938   0.688   3.825   1.406 -2.5029 -1.0104  0.1658
 3149TIP3    H230939   0.626   3.774   1.534  1.9807 -2.1222  2.0854
 3150TIP3   OH230940   6.045   5.042  13.855 -0.0932  0.7162  0.3902
 3150TIP3    H130941   6.022   5.015  13.767  0.9506 -0.7489  0.5069
 3150TIP3    H230942   5.974   5.008  13.910 -1.5148  2.9171  0.0157
 3151TIP3   OH230943   4.130   5.486  16.105  0.1260 -0.4179  0.1998
 3151TIP3    H130944   4.137   5.551  16.034  1.6240  1.6656  2.1262
 3151TIP3    H230945   4.171   5.407  16.069  0.9331  0.6045 -1.2382
 3152TIP3   OH230946   1.342   1.109  12.318  0.1738 -0.0087 -0.2924
 3152TIP3    H130947   1.285   1.179  12.349  1.4859  1.6935 -1.5629
 3152TIP3    H230948   1.282   1.038  12.295 -1.3623  1.3840 -0.7860
 3153TIP3   OH230949   4.735   5.873  14.467 -0.0338  0.5690  0.3187
 3153TIP3    H130950   4.671   5.905  14.404 -0.1978 -0.2453  0.0571
 3153TIP3    H230951   4.683   5.826  14.532  0.2066  0.7481  0.6410
 3154TIP3   OH230952   3.758   2.596  13.457 -0.2849 -0.6544  0.3802
 3154TIP3    H130953   3.818   2.670  13.455 -0.4655 -0.5023  0.5543
 3154TIP3    H230954   3.709   2.604  13.375  0.0714 -0.8987  0.1393
 3155TIP3   OH230955   1.722   5.018  14.946  0.2313  0.0452  0.4092
 3155TIP3    H130956   1.650   5.073  14.913  0.3349 -1.2620 -2.2202
 3155TIP3    H230957   1.683   4.969  15.019 -0.6607  1.4956  0.9533
 3156TIP3   OH230958   3.733   2.739  14.475 -0.1220 -0.2030  0.5142
 3156TIP3    H130959   3.715   2.811  14.536 -0.0492 -0.5288  0.9230
 3156TIP3    H230960   3.669   2.671  14.498 -0.9864  0.1770 -0.6513
 3157TIP3   OH230961   2.447   5.568   3.312 -0.0674  0.1836 -0.3131
 3157TIP3    H130962   2.524   5.534   3.266 -1.0493 -1.4099 -0.8649
 3157TIP3    H230963   2.421   5.497   3.371 -0.2673  1.2767  0.9797
 3158TIP3   OH230964   3.659   3.546   0.156 -0.2794  0.1545  0.4318
 3158TIP3    H130965   3.640   3.455   0.133  1.4857  0.1220 -1.1284
 3158TIP3    H230966   3.711   3.539   0.237  0.1236 -0.2542  0.1463
 3159TIP3   OH230967   1.063   1.906  10.517  0.4067 -0.2861 -0.0425
 3159TIP3    H130968   1.098   1.994  10.533  1.0689 -0.5573  0.0169
 3159TIP3    H230969   0.968   1.920  10.506  0.6953  0.6716 -1.7921
 3160TIP3   OH230970   1.118   3.072   0.389  0.3256 -0.8864 -0.3013
 3160TIP3    H130971   1.053   3.126   0.434  1.1513 -1.4649  1.7028
 3160TIP3    H230972   1.173   3.135   0.342 -0.1776 -0.1756  0.0406
 3161TIP3   OH230973   2.067   3.685  16.930 -0.1540 -0.3171 -0.1071
 3161TIP3    H130974   2.068   3.756  16.865  1.5550  0.6701  0.9179
 3161TIP3    H230975   1.985   3.639  16.913 -1.4327  1.9934 -0.7363
 3162TIP3   OH230976   0.434   3.423   6.454 -0.0702 -0.2145  0.0358
 3162TIP3    H130977   0.502   3.359   6.434 -0.3935  0.1288 -2.4755
 3162TIP3    H230978   0.479   3.507   6.455  0.3509 -0.3250  3.3089
 3163TIP3   OH230979   2.186   3.016  11.372  0.2065 -0.1713 -0.2240
 3163TIP3    H130980   2.141   3.091  11.333 -0.8270 -1.4205 -1.5849
 3163TIP3    H230981   2.241   3.053  11.441 -1.0216  1.7086 -0.1869
 3164TIP3   OH230982   3.113   3.217  14.217 -0.1085  1.0346 -0.3862
 3164TIP3    H130983   3.094   3.271  14.141  1.4983  1.6732 -0.3796
 3164TIP3    H230984   3.054   3.250  14.285 -0.8339  1.1368 -1.0488
 3165TIP3   OH230985   4.545   1.932   3.543 -0.5350  0.4950 -0.6242
 3165TIP3    H130986   4.635   1.965   3.540 -0.3304  0.0102 -0.0184
 3165TIP3    H230987   4.532   1.893   3.456 -0.8503  2.2755 -1.4370
 3166TIP3   OH230988   2.638   0.818  12.484  0.1484 -0.1497 -0.2403
 3166TIP3    H130989   2.665   0.860  12.565 -1.0061  1.2162 -0.5295
 3166TIP3    H230990   2.577   0.880  12.443  1.3684 -0.3881 -2.5948
 3167TIP3   OH230991   4.427   5.131   4.514  0.2731 -0.3727  0.2774
 3167TIP3    H130992   4.371   5.155   4.588  1.5458  0.5887  0.9655
 3167TIP3    H230993   4.469   5.213   4.488  0.5066 -0.8664 -0.9587
 3168TIP3   OH230994   2.374   4.923  14.473 -0.2940  0.2651  0.4120
 3168TIP3    H130995   2.353   4.830  14.485  2.5464 -0.4173  0.8485
 3168TIP3    H230996   2.376   4.959  14.562 -1.5390  0.8273  0.2358
 3169TIP3   OH230997   6.343   1.970   0.418  0.7707 -0.3037 -0.3365
 3169TIP3    H130998   6.436   1.949   0.425  0.5929 -0.8025  0.7692
 3169TIP3    H230999   6.334   2.009   0.331  1.8659 -0.9955 -0.7841
 3170TIP3   OH231000   4.161   2.942  15.595 -0.5915 -0.3628  0.1537
 3170TIP3    H131001   4.237   3.000  15.595 -0.2670 -0.7520  1.9683
 3170TIP3    H231002   4.098   2.986  15.652 -0.2353 -1.8640  1.7823
 3171TIP3   OH231003   3.133   2.331   2.230 -0.1038  0.0317 -0.5602
 3171TIP3    H131004   3.136   2.406   2.288  0.3354 -0.0796 -0.4309
 3171TIP3    H231005   3.108   2.258   2.286 -0.4998  0.0749 -0.6794
 3172TIP3   OH231006   2.260   1.676   1.105  0.2593 -0.0615  0.6002
 3172TIP3    H131007   2.218   1.718   1.180  1.2819 -1.5578  2.0934
 3172TIP3    H231008   2.211   1.595   1.092 -0.5387  0.6418 -1.0528
 3173TIP3   OH231009   3.690   1.272   4.194  0.2851  0.0398 -0.7500
 3173TIP3    H131010   3.777   1.287   4.230  0.0173  0.2849 -0.1840
 3173TIP3    H231011   3.705   1.245   4.103  0.9951 -0.9161 -0.3668
 3174TIP3   OH231012   2.807   3.731  15.577 -0.2006  0.5646  0.0152
 3174TIP3    H131013   2.814   3.807  15.518 -0.6673  0.9565  0.4501
 3174TIP3    H231014   2.813   3.655  15.519 -3.1819  0.9142 -0.9089
 3175TIP3   OH231015   2.591   4.955  14.259  0.4288 -0.3488  0.1767
 3175TIP3    H131016   2.539   4.937  14.338 -1.3718  0.2279 -0.8223
 3175TIP3    H231017   2.569   4.883  14.199 -0.4193  0.6722 -0.7967
 3176TIP3   OH231018   4.459   5.451  16.013  0.0490  0.1907  0.6778
 3176TIP3    H131019   4.543   5.454  15.967  0.0962 -0.6473  0.6894
 3176TIP3    H231020   4.415   5.374  15.976  0.6457 -1.3528  2.9809
 3177TIP3   OH231021   4.378   2.103   2.106  0.1684 -0.5317  0.2043
 3177TIP3    H131022   4.348   2.189   2.078 -3.0356 -2.1967 -2.0941
 3177TIP3    H231023   4.301   2.062   2.147  1.2805 -2.6824  0.3065
 3178TIP3   OH231024   5.175   0.654   1.987 -0.6871  0.3135  0.2043
 3178TIP3    H131025   5.136   0.713   1.923  2.0626 -0.1395 -2.0709
 3178TIP3    H231026   5.233   0.709   2.039  0.1681  0.0245 -0.4265
 3179TIP3   OH231027   0.569   0.012  15.557  0.5195 -0.1694 -0.1140
 3179TIP3    H131028   0.514  -0.066  15.557  0.5488 -0.2322  2.0587
 3179TIP3    H231029   0.529   0.070  15.621  1.0921  1.1988 -0.9524
 3180TIP3   OH231030   4.341   5.975   0.147 -0.2056  0.5326  0.0414
 3180TIP3    H131031   4.429   5.938   0.142 -0.1704  0.7292 -0.9250
 3180TIP3    H231032   4.285   5.901   0.170 -0.0918 -0.0662 -1.5249
 3181TIP3   OH231033   5.075   6.747   5.976  0.5241 -0.3644 -0.5797
 3181TIP3    H131034   5.050   6.804   6.049 -1.4969 -1.6199 -0.2041
 3181TIP3    H231035   5.170   6.754   5.972  0.4212  2.4258 -0.1032
 3182TIP3   OH231036   4.869   1.436  15.811  0.6798 -0.2348  0.0260
 3182TIP3    H131037   4.875   1.514  15.867  2.5305  0.3312 -0.8606
 3182TIP3    H231038   4.934   1.376  15.847  0.0264 -0.9347  0.0475
 3183TIP3   OH231039   5.852   1.107  13.523 -0.8370 -0.2326 -0.4369
 3183TIP3    H131040   5.770   1.057  13.522 -1.9485  1.4938 -1.2835
 3183TIP3    H231041   5.859   1.143  13.434  1.9817 -2.0080 -1.0687
 3184TIP3   OH231042   0.751   2.590   4.363  0.1612  0.4577  0.1694
 3184TIP3    H131043   0.681   2.568   4.425 -0.4386  0.5319 -0.4691
 3184TIP3    H231044   0.706   2.604   4.280  0.9856  0.0047 -0.3744
 3185TIP3   OH231045   4.929   4.131  12.553  0.9191 -0.3447 -0.2727
 3185TIP3    H131046   4.950   4.063  12.617  1.3118 -0.1811 -0.2206
 3185TIP3    H231047   4.916   4.085  12.471 -0.8459 -0.7051  0.1563
 3186TIP3   OH231048   6.353   1.748   3.694 -0.1873 -0.1179 -0.1924
 3186TIP3    H131049   6.370   1.838   3.664 -1.8495 -0.3288 -1.9742
 3186TIP3    H231050   6.264   1.752   3.729 -1.2220 -1.4882 -2.4386
 3187TIP3   OH231051   4.032   5.506   4.996 -0.5220 -0.1762  0.4574
 3187TIP3    H131052   3.961   5.508   4.932 -0.7075  2.3573  0.6523
 3187TIP3    H231053   3.989   5.510   5.081 -0.1893  1.6754  0.5723
 3188TIP3   OH231054   1.536   2.754  17.142  1.0643 -1.1545 -0.0720
 3188TIP3    H131055   1.441   2.752  17.141  1.0731 -1.8782 -0.6971
 3188TIP3    H231056   1.559   2.847  17.143  0.3471 -0.9066 -2.0171
 3189TIP3   OH231057   1.745   6.210   3.195  0.6158  0.2187 -0.6212
 3189TIP3    H131058   1.659   6.239   3.167  0.7109  0.4355 -0.6914
 3189TIP3    H231059   1.806   6.254   3.136  0.6767 -1.6437 -2.0242
 3190TIP3   OH231060   2.672   4.519   6.190  0.4961 -0.2843  0.1385
 3190TIP3    H131061   2.696   4.611   6.180  2.1524 -0.9315 -2.8321
 3190TIP3    H231062   2.653   4.510   6.283 -2.5724  3.6575  0.1506
 3191TIP3   OH231063   6.358   4.100  12.582 -0.6738  0.0731 -0.3934
 3191TIP3    H131064   6.319   4.186  12.563  0.5059  0.8725  0.6407
 3191TIP3    H231065   6.355   4.054  12.499 -1.0950  1.2272 -1.0470
 3192TIP3   OH231066   2.775   3.417  10.049  0.4247  0.5078  0.5244
 3192TIP3    H131067   2.689   3.426  10.008  0.2924  0.9027  0.8811
 3192TIP3    H231068   2.765   3.345  10.111  0.6951 -0.2617 -0.2978
 3193TIP3   OH231069   2.717   5.038   0.465  0.1013  0.0692 -0.6547
 3193TIP3    H131070   2.707   5.130   0.440  1.1268  0.5220  0.4725
 3193TIP3    H231071   2.678   5.033   0.552  0.0820 -0.5506 -0.7003
 3194TIP3   OH231072   6.571   3.743   5.914  0.7144  0.0273  0.2067
 3194TIP3    H131073   6.595   3.667   5.967  0.3497 -0.3857 -0.2210
 3194TIP3    H231074   6.476   3.751   5.925  0.5275 -0.5022 -0.9660
 3195TIP3   OH231075   6.655   2.147   5.979 -0.4492 -0.0144 -0.3316
 3195TIP3    H131076   6.747   2.127   5.959 -0.4635 -1.2923  0.7735
 3195TIP3    H231077   6.659   2.230   6.027  0.6498 -1.9875  3.4274
 3196TIP3   OH231078   0.792   4.320  13.392  0.5742  0.2354  0.2644
 3196TIP3    H131079   0.746   4.391  13.437  0.0248  0.6170 -0.8852
 3196TIP3    H231080   0.812   4.355  13.306 -0.4332 -1.2682 -0.6215
 3197TIP3   OH231081   0.604   2.976  13.949  0.1941 -0.7181  0.5006
 3197TIP3    H131082   0.563   3.030  13.881 -2.0396 -1.0528  1.4822
 3197TIP3    H231083   0.570   2.888  13.932 -0.1662 -0.8581  1.8524
 3198TIP3   OH231084   2.313   5.769   5.068  0.3851  0.1669 -0.1876
 3198TIP3    H131085   2.349   5.789   5.155  0.8720 -2.0004  0.1668
 3198TIP3    H231086   2.239   5.711   5.085  0.9579 -0.9093 -1.2394
 3199TIP3   OH231087   3.697   0.570  13.165  0.4051 -0.2523 -0.3049
 3199TIP3    H131088   3.655   0.643  13.120  0.4614  0.2913  0.4935
 3199TIP3    H231089   3.639   0.496  13.150 -0.7469  0.4260  0.5589
 3200TIP3   OH231090   1.902   6.601   4.601  0.1510  0.4963 -0.4678
 3200TIP3    H131091   1.974   6.540   4.583  0.0502 -0.2486  1.4348
 3200TIP3    H231092   1.935   6.657   4.671 -1.2970 -0.2842  0.9072
 3201TIP3   OH231093   3.244   3.913   4.351  0.1880 -0.5830  0.1452
 3201TIP3    H131094   3.170   3.879   4.300 -0.9635 -0.9217  1.9554
 3201TIP3    H231095   3.309   3.843   4.347 -0.9922 -1.8115  1.3875
 3202TIP3   OH231096   5.272   2.119   4.576  0.7217  0.2997  0.6920
 3202TIP3    H131097   5.197   2.083   4.528  1.4887 -3.0135  1.7550
 3202TIP3    H231098   5.294   2.199   4.529 -1.0655 -0.6570 -2.0071
 3203TIP3   OH231099   1.504   2.453   0.178 -0.3792 -0.0413 -0.3725
 3203TIP3    H131100   1.470   2.444   0.268 -0.2034 -0.7306 -0.3648
 3203TIP3    H231101   1.456   2.387   0.128 -0.8284  0.6699 -0.9020
 3204TIP3   OH231102   4.784   4.569  12.513 -0.3835  0.8902 -0.0734
 3204TIP3    H131103   4.729   4.588  12.437  0.1329  1.1942 -0.3759
 3204TIP3    H231104   4.730   4.591  12.588 -1.0363  0.2385 -0.3356
 3205TIP3   OH231105   2.379   3.714  10.745  0.2220 -0.0634 -0.3439
 3205TIP3    H131106   2.364   3.774  10.672 -0.0218  2.1105  1.3697
 3205TIP3    H231107   2.292   3.703  10.784  0.3740 -1.0614 -0.2791
 3206TIP3   OH231108   2.175   0.783  13.134  0.2523 -0.2904 -0.2816
 3206TIP3    H131109   2.216   0.862  13.169 -1.1302  0.8543 -1.1055
 3206TIP3    H231110   2.136   0.741  13.210  1.7371 -0.6719  0.2973
 3207TIP3   OH231111   3.600   4.932   3.567 -0.2863 -0.2807 -0.6370
 3207TIP3    H131112   3.523   4.885   3.598  0.2516  0.0351  1.2923
 3207TIP3    H231113   3.601   4.917   3.472 -1.8989 -1.4699 -0.5005
 3208TIP3   OH231114   4.339   1.330   0.025 -0.6045 -0.3647 -0.2716
 3208TIP3    H131115   4.420   1.337  -0.025 -0.1937  0.4635  0.4767
 3208TIP3    H231116   4.349   1.248   0.075  1.2630  1.2382  2.2662
 3209TIP3   OH231117   1.403   5.437  12.530  0.2996  0.3429 -0.1158
 3209TIP3    H131118   1.430   5.351  12.497 -0.0643  0.0819  0.2543
 3209TIP3    H231119   1.379   5.421  12.621 -1.4702  0.4742 -0.5207
 3210TIP3   OH231120   4.437   3.394  10.921 -0.0940  0.0156  0.1048
 3210TIP3    H131121   4.395   3.362  11.001 -0.1860  1.6940  0.7605
 3210TIP3    H231122   4.528   3.364  10.928 -0.3590 -0.7929  0.2781
 3211TIP3   OH231123   3.627   4.587   3.369  0.0246  0.4017  0.1508
 3211TIP3    H131124   3.567   4.600   3.295  0.5894  1.9070 -0.0741
 3211TIP3    H231125   3.670   4.504   3.350  1.4043  1.5366 -2.1798
 3212TIP3   OH231126   4.671   4.497  16.064  0.6012  0.0887  0.2349
 3212TIP3    H131127   4.603   4.433  16.087  0.8763  0.3879  2.0161
 3212TIP3    H231128   4.633   4.546  15.990 -1.8958  1.2967  2.1293
 3213TIP3   OH231129   4.939   3.448   6.481 -0.9101  0.0193 -0.0301
 3213TIP3    H131130   4.970   3.514   6.419 -1.6583 -0.6333 -1.1329
 3213TIP3    H231131   4.844   3.453   6.476 -0.9778 -0.8001  0.2423
 3214TIP3   OH231132   3.223   2.930   0.477  0.7657 -0.3042  0.2685
 3214TIP3    H131133   3.226   2.913   0.383  0.2623 -0.9896  0.3687
 3214TIP3    H231134   3.313   2.917   0.506  0.6152 -1.7343  0.1453
 3215TIP3   OH231135   1.792   4.981   1.937 -0.4703 -0.1661  0.3600
 3215TIP3    H131136   1.760   4.895   1.963 -2.9719  0.6502  0.2451
 3215TIP3    H231137   1.806   4.975   1.843  0.0691 -0.6353  0.4672
 3216TIP3   OH231138   2.461   4.533  11.362  0.3357 -0.1313 -0.2486
 3216TIP3    H131139   2.395   4.551  11.295 -0.4646 -1.8903 -0.0091
 3216TIP3    H231140   2.410   4.505  11.438  1.3095 -0.5402  0.2707
 3217TIP3   OH231141   3.869   1.684  12.764  0.0497  0.3099 -0.0632
 3217TIP3    H131142   3.889   1.624  12.835 -0.8848  1.3708  1.1455
 3217TIP3    H231143   3.843   1.627  12.691  0.4847 -0.7817  0.6157
 3218TIP3   OH231144   3.097   1.311  12.815  0.1305  0.2505  0.0253
 3218TIP3    H131145   3.174   1.254  12.807 -0.6613 -0.7898 -0.5232
 3218TIP3    H231146   3.132   1.400  12.811  1.4784 -0.1583  1.4962
 3219TIP3   OH231147   2.379   4.765   6.377  0.0694 -0.0050  0.2987
 3219TIP3    H131148   2.344   4.720   6.301  0.5818 -1.3286  0.8087
 3219TIP3    H231149   2.417   4.695   6.431  3.2609  1.2519 -0.0863
 3220TIP3   OH231150   3.977   2.597  14.506  0.3399 -0.4424 -0.1165
 3220TIP3    H131151   3.996   2.572  14.415  0.2333 -0.7661 -0.0540
 3220TIP3    H231152   3.888   2.632  14.504  0.7513  0.6146 -0.3275
 3221TIP3   OH231153   4.329   2.256   5.683  0.7312  0.0918 -0.1644
 3221TIP3    H131154   4.319   2.244   5.778  0.8974  1.9837  0.1374
 3221TIP3    H231155   4.287   2.179   5.645 -1.5816  0.4706  1.4064
 3222TIP3   OH231156   6.324   5.643   3.116  0.0972 -0.3336 -0.1219
 3222TIP3    H131157   6.264   5.583   3.070 -0.2760 -0.2472  0.2438
 3222TIP3    H231158   6.351   5.705   3.048 -1.1056  0.2969 -0.0664
 3223TIP3   OH231159   1.059   1.909  12.308 -0.8966  0.5917 -0.0756
 3223TIP3    H131160   1.069   1.899  12.214 -1.1775 -2.4806  0.1268
 3223TIP3    H231161   0.981   1.859  12.330  1.2668 -2.1279  2.1735
 3224TIP3   OH231162   4.232   3.404   3.124  1.0992 -0.3258  0.8742
 3224TIP3    H131163   4.216   3.408   3.029 -2.2309 -0.3099  1.3237
 3224TIP3    H231164   4.328   3.407   3.132  1.5079 -0.4024 -2.4659
 3225TIP3   OH231165   6.529   6.781  11.455 -0.4111 -0.0809 -0.0033
 3225TIP3    H131166   6.607   6.811  11.502  1.4022 -0.9929 -2.2473
 3225TIP3    H231167   6.513   6.849  11.389 -1.7920  0.2775  0.6580
 3226TIP3   OH231168   2.925   0.586   5.394  0.2739 -0.1871  0.0927
 3226TIP3    H131169   2.891   0.671   5.423  1.7962  0.8501 -1.0335
 3226TIP3    H231170   2.881   0.571   5.311 -0.7403 -1.0151  0.7556
 3227TIP3   OH231171   0.447   5.758  11.860  0.2620 -0.2210  0.4296
 3227TIP3    H131172   0.504   5.767  11.784 -1.1953 -1.0344 -0.7991
 3227TIP3    H231173   0.504   5.778  11.935  2.0541 -0.6767 -0.7585
 3228TIP3   OH231174   5.366   6.049  12.613  0.0252  0.1407  0.0924
 3228TIP3    H131175   5.419   5.989  12.665  2.6777  1.0086 -1.4086
 3228TIP3    H231176   5.352   6.003  12.530 -2.6491 -0.5180  0.8230
 3229TIP3   OH231177   6.298   4.622   4.866  0.1299  0.1069  0.2076
 3229TIP3    H131178   6.273   4.591   4.953  0.6027 -1.1072 -0.0642
 3229TIP3    H231179   6.356   4.554   4.832 -2.5034 -1.0759 -2.3420
 3230TIP3   OH231180   2.004   2.482  15.038  0.1791 -0.0828  0.0683
 3230TIP3    H131181   2.042   2.395  15.021 -0.8815 -0.8153  1.2786
 3230TIP3    H231182   2.036   2.505  15.126 -1.9368 -0.6365  1.0437
 3231TIP3   OH231183   1.790   4.175  15.174  0.1919 -0.2793 -0.4907
 3231TIP3    H131184   1.786   4.196  15.267 -0.5909  1.3142 -0.8397
 3231TIP3    H231185   1.711   4.125  15.156 -1.3065  2.0383 -0.8294
 3232TIP3   OH231186   5.434   1.785  14.991 -0.2321  0.0756 -0.0353
 3232TIP3    H131187   5.404   1.811  15.078  0.1695  1.6289 -0.3202
 3232TIP3    H231188   5.477   1.700  15.004 -0.5270  0.1035  1.2023
 3233TIP3   OH231189   4.611   2.297   5.311 -0.2675 -0.1862 -0.1434
 3233TIP3    H131190   4.530   2.295   5.259 -0.0344 -0.7134 -0.4980
 3233TIP3    H231191   4.582   2.291   5.402 -0.6488  0.1211 -0.2417
 3234TIP3   OH231192   2.277   5.243  15.662 -0.2186  0.1342  0.2596
 3234TIP3    H131193   2.248   5.311  15.723  0.1012 -0.8002  1.4695
 3234TIP3    H231194   2.298   5.291  15.582 -0.3084  1.4228  0.9811
 3235TIP3   OH231195   4.747   2.944  11.548  0.2043  0.3417 -0.1180
 3235TIP3    H131196   4.736   2.900  11.633 -1.2483  1.8627  0.5424
 3235TIP3    H231197   4.793   2.880  11.494  0.8481 -0.8111  1.7018
 3236TIP3   OH231198   5.145   6.122  14.665 -0.1007  0.2279 -0.6887
 3236TIP3    H131199   5.215   6.105  14.602 -1.3716 -0.7794 -1.8801
 3236TIP3    H231200   5.098   6.197  14.629 -0.2173  0.2862 -0.4136
 3237TIP3   OH231201   2.529   4.856  16.559  0.1068 -0.3957 -0.3792
 3237TIP3    H131202   2.438   4.880  16.577 -0.0218 -1.0026 -0.2013
 3237TIP3    H231203   2.580   4.932  16.588 -0.2073 -0.7532  1.2280
 3238TIP3   OH231204   2.127   1.269   6.052 -0.2885 -0.1825  0.1669
 3238TIP3    H131205   2.181   1.305   5.981  0.8353 -0.1093  1.0333
 3238TIP3    H231206   2.165   1.183   6.070  0.1029  0.2231  1.3684
 3239TIP3   OH231207   4.974   5.300  16.111 -0.0642  0.6449 -0.4707
 3239TIP3    H131208   4.944   5.347  16.189  0.1882  1.3647 -0.7919
 3239TIP3    H231209   5.010   5.369  16.055  1.9134 -0.1400 -0.2305
 3240TIP3   OH231210   6.708   0.915  15.651 -0.4801 -0.1286  0.3844
 3240TIP3    H131211   6.797   0.911  15.616 -0.0550  0.5952  1.3627
 3240TIP3    H231212   6.710   0.860  15.729 -0.6598  0.5467  0.8743
 3241TIP3   OH231213   2.537   3.973   6.450  0.5878  0.6521 -0.3836
 3241TIP3    H131214   2.449   3.963   6.487  1.6348  1.8905  2.7925
 3241TIP3    H231215   2.585   3.897   6.481  1.4133  1.5445  0.6182
 3242TIP3   OH231216   5.881   2.954   2.246  0.6229 -0.3344  0.1217
 3242TIP3    H131217   5.944   2.954   2.318 -1.0177 -0.9454  1.6213
 3242TIP3    H231218   5.844   3.042   2.246  0.9653 -0.1907 -0.2880
 3243TIP3   OH231219   3.515   0.721   6.013  0.4607 -0.1622 -0.0611
 3243TIP3    H131220   3.564   0.675   5.945 -1.6965 -1.6662 -0.7247
 3243TIP3    H231221   3.424   0.719   5.982 -0.6843 -1.1733  2.9337
 3244TIP3   OH231222   5.935   1.728  15.337 -0.6252  0.1454  0.0023
 3244TIP3    H131223   5.924   1.815  15.375  0.3021 -1.2480  3.8081
 3244TIP3    H231224   5.849   1.708  15.298 -1.7227  1.6605  1.5204
 3245TIP3   OH231225   2.026   5.341   5.722  0.2336  0.2538 -0.5699
 3245TIP3    H131226   2.002   5.350   5.814  1.7281  0.7278 -0.1949
 3245TIP3    H231227   2.113   5.301   5.723 -0.6392 -1.8321 -1.8672
 3246TIP3   OH231228   5.933   4.927   4.597  0.1856 -0.1181 -0.8810
 3246TIP3    H131229   5.976   5.011   4.583  0.7707 -0.5835 -1.9431
 3246TIP3    H231230   5.995   4.877   4.651  0.8047 -0.6305 -2.0450
 3247TIP3   OH231231   2.937   3.477  12.422  0.6729  0.0649  0.6925
 3247TIP3    H131232   2.925   3.564  12.385  1.0498  0.2591  1.0165
 3247TIP3    H231233   2.986   3.428  12.356  0.2276  0.0079  0.3939
 3248TIP3   OH231234   1.027   1.575  15.484 -0.0385 -0.3743 -0.3329
 3248TIP3    H131235   1.115   1.576  15.448 -0.4352 -0.2821 -1.3237
 3248TIP3    H231236   1.038   1.543  15.574  1.0097 -0.2193 -0.3978
 3249TIP3   OH231237   3.227   2.185  14.807  0.3699 -0.7098  0.4379
 3249TIP3    H131238   3.184   2.263  14.772  1.6961  0.0183  0.3628
 3249TIP3    H231239   3.186   2.171  14.892 -1.1766 -1.0449 -0.3446
 3250TIP3   OH231240   5.687   0.978   3.468 -0.4322  0.0053  0.0644
 3250TIP3    H131241   5.779   0.969   3.492 -0.4181  0.7179  0.2915
 3250TIP3    H231242   5.649   0.892   3.486  0.0601 -0.1181  0.5366
 3251TIP3   OH231243   0.221   5.853  15.021  0.2201 -0.3168  0.6012
 3251TIP3    H131244   0.183   5.921  14.966 -1.0535 -1.1122  0.4517
 3251TIP3    H231245   0.287   5.898  15.074  0.2045  0.7974 -0.2959
 3252TIP3   OH231246   1.978   3.489  15.204  0.2856 -0.3229  0.4110
 3252TIP3    H131247   2.055   3.545  15.197  1.6751 -2.1499  0.5714
 3252TIP3    H231248   1.938   3.515  15.288  1.2066  0.0556  0.7483
 3253TIP3   OH231249   3.777   6.186   3.186 -0.9603  0.0329  0.8284
 3253TIP3    H131250   3.777   6.239   3.266 -0.0300  0.2841  0.6708
 3253TIP3    H231251   3.781   6.095   3.218  1.0354  0.1552  1.0957
 3254TIP3   OH231252   4.519   4.962  14.594  0.0161  0.1910 -0.0102
 3254TIP3    H131253   4.446   4.988  14.538 -0.3045 -0.8093 -0.0670
 3254TIP3    H231254   4.516   4.867  14.596  0.1495  0.1889  1.5417
 3255TIP3   OH231255   1.932   1.398   6.200 -0.5308  0.6702 -0.0555
 3255TIP3    H131256   1.978   1.366   6.122 -0.0604  1.0743  0.0532
 3255TIP3    H231257   1.968   1.347   6.272  0.0508  1.2742  0.0852
 3256TIP3   OH231258   1.497   1.045   6.189  0.1733  0.3174 -0.1628
 3256TIP3    H131259   1.421   1.086   6.231  0.7323  0.3959  0.8117
 3256TIP3    H231260   1.562   1.115   6.184  0.9854 -0.2988  1.1249
 3257TIP3   OH231261   4.609   6.320  16.445 -0.3190 -0.6750 -0.0910
 3257TIP3    H131262   4.637   6.374  16.519 -0.7310  0.3731 -0.6917
 3257TIP3    H231263   4.525   6.356  16.419 -0.3164 -1.2284 -0.8990
 3258TIP3   OH231264   1.918   2.854   0.682  0.4881 -0.2972 -0.0569
 3258TIP3    H131265   1.974   2.790   0.640  0.7755  0.2333 -0.4938
 3258TIP3    H231266   1.950   2.859   0.772 -0.6047 -1.9849  0.4626
 3259TIP3   OH231267   3.689   0.687   0.097  0.0535  0.2215 -0.3960
 3259TIP3    H131268   3.670   0.689   0.191 -0.1940 -1.3880 -0.3838
 3259TIP3    H231269   3.671   0.776   0.068  2.8485  1.5662  1.5514
 3260TIP3   OH231270   1.238   1.159   0.467  0.3270  0.1946 -0.0720
 3260TIP3    H131271   1.289   1.179   0.389 -0.6347 -1.8816 -1.3375
 3260TIP3    H231272   1.159   1.212   0.458 -1.7450 -2.8960 -2.8699
 3261TIP3   OH231273   3.269   0.705  13.141  0.2581  0.3106 -0.5887
 3261TIP3    H131274   3.293   0.682  13.051  0.7103  0.9039 -0.6289
 3261TIP3    H231275   3.178   0.733  13.136  0.9329  2.5932 -1.3053
 3262TIP3   OH231276   3.015   1.075   0.171 -0.2082  0.3402  0.1554
 3262TIP3    H131277   2.960   1.145   0.136 -0.6860 -0.4277 -0.6643
 3262TIP3    H231278   3.101   1.092   0.134  0.0928  1.4168  1.2606
 3263TIP3   OH231279   6.269   6.306  13.866 -0.2690  0.0708  0.1776
 3263TIP3    H131280   6.347   6.330  13.916 -1.2527  0.3361  1.6643
 3263TIP3    H231281   6.262   6.373  13.798  0.5687  0.2848  0.2932
 3264TIP3   OH231282   3.654   2.539  14.165 -0.6129 -0.0755  0.7745
 3264TIP3    H131283   3.653   2.584  14.250  0.8115  1.6177 -0.0266
 3264TIP3    H231284   3.596   2.464  14.176 -0.4328  0.0815  3.2482
 3265TIP3   OH231285   6.121   6.749   5.468 -0.6638 -0.3256  0.0723
 3265TIP3    H131286   6.064   6.745   5.391  1.2737 -1.2381 -1.3925
 3265TIP3    H231287   6.103   6.835   5.507 -2.0043 -0.0281 -1.1314
 3266TIP3   OH231288   3.911   1.068  12.847 -0.5429 -0.2096 -0.4117
 3266TIP3    H131289   3.974   1.131  12.882 -2.0942  0.0169  2.2751
 3266TIP3    H231290   3.826   1.101  12.875 -1.7853 -1.1957 -2.8040
 3267TIP3   OH231291   2.095   1.354   1.878 -0.1923  0.2015 -0.4735
 3267TIP3    H131292   2.022   1.388   1.930  0.3508  0.0917  0.3602
 3267TIP3    H231293   2.053   1.293   1.816 -0.7341 -0.3628  0.4290
 3268TIP3   OH231294   1.372   2.713   2.263 -0.2089  0.1734 -0.2307
 3268TIP3    H131295   1.437   2.750   2.203  1.8840 -2.5917  0.1628
 3268TIP3    H231296   1.407   2.731   2.350  1.4451 -3.3765 -0.0202
 3269TIP3   OH231297   4.056   1.936  15.958 -0.2377 -0.9980  0.5120
 3269TIP3    H131298   4.130   1.888  15.995 -1.1831 -1.9987  1.1433
 3269TIP3    H231299   4.035   1.890  15.877 -1.4516 -1.9838  1.3593
 3270TIP3   OH231300   4.098   6.392  15.488  0.7776  0.0987  0.3584
 3270TIP3    H131301   4.174   6.360  15.439  0.2974  0.3472 -0.5840
 3270TIP3    H231302   4.025   6.339  15.456  0.6881 -0.8072  1.9541
 3271TIP3   OH231303   1.054   2.886  17.209  0.2708  0.2915  0.2566
 3271TIP3    H131304   0.983   2.827  17.182  1.0884  0.7194 -3.2404
 3271TIP3    H231305   1.014   2.973  17.209  0.1424  0.2418  1.0967
 3272TIP3   OH231306   1.716   2.582  14.188  0.0254  0.1576 -0.1785
 3272TIP3    H131307   1.753   2.664  14.220  0.0585  0.1896 -0.2978
 3272TIP3    H231308   1.736   2.518  14.256  1.5199 -0.1395 -0.8525
 3273TIP3   OH231309   1.667   1.518   6.308 -0.1291 -0.3293  0.1047
 3273TIP3    H131310   1.622   1.515   6.393 -1.8151 -2.1095 -0.7782
 3273TIP3    H231311   1.755   1.549   6.329 -0.6733 -0.1745  2.4250
 3274TIP3   OH231312   1.403   3.951  17.039  0.1243  0.3897 -0.1339
 3274TIP3    H131313   1.420   3.879  16.978  1.2405  0.1609  0.4104
 3274TIP3    H231314   1.337   4.005  16.996  1.0569  0.3604 -1.6515
 3275TIP3   OH231315   2.702   6.750   2.846  0.3640  0.0567 -0.2573
 3275TIP3    H131316   2.774   6.690   2.828 -0.0915 -0.0257 -1.9901
 3275TIP3    H231317   2.631   6.719   2.789 -0.9083  0.3978  1.0750
 3276TIP3   OH231318   6.135   5.838   0.216 -0.3774  0.1690  0.0005
 3276TIP3    H131319   6.127   5.933   0.211 -2.7057  0.0734  0.9763
 3276TIP3    H231320   6.046   5.807   0.230  0.6834 -1.9544  2.9240
 3277TIP3   OH231321   6.153   2.876  11.454 -0.1561 -0.2110 -0.2456
 3277TIP3    H131322   6.226   2.921  11.496  0.6148 -0.4831 -1.2629
 3277TIP3    H231323   6.154   2.788  11.491  1.4435 -0.9184 -1.8383
 3278TIP3   OH231324   4.754   3.748   2.842 -0.4642 -0.1855  0.2056
 3278TIP3    H131325   4.809   3.825   2.853 -2.1607  0.9616  1.1356
 3278TIP3    H231326   4.664   3.780   2.854 -1.1895 -2.4301  1.4620
 3279TIP3   OH231327   6.425   2.137  14.503 -1.1294  0.3367  0.0953
 3279TIP3    H131328   6.496   2.170  14.558 -0.6714 -0.7973  0.2118
 3279TIP3    H231329   6.350   2.193  14.525 -0.5211  0.9560  0.6473
 3280TIP3   OH231330   2.023   4.406   3.304 -0.0810  0.3805  0.7497
 3280TIP3    H131331   1.983   4.323   3.278  0.7274 -0.0463  0.8196
 3280TIP3    H231332   2.097   4.417   3.244 -0.0634  0.9531  0.8675
 3281TIP3   OH231333   2.181   4.044  10.699  0.2063 -0.4396 -0.4797
 3281TIP3    H131334   2.127   3.973  10.732 -1.2517  0.7327 -0.2261
 3281TIP3    H231335   2.244   4.002  10.640 -0.2207 -1.9823  0.1390
 3282TIP3   OH231336   1.560   3.355  16.928  0.1518  0.0444 -0.1248
 3282TIP3    H131337   1.615   3.424  16.889 -0.5174  1.0038  0.5678
 3282TIP3    H231338   1.505   3.325  16.856 -0.7966  1.5223 -0.0784
 3283TIP3   OH231339   2.791   0.906  16.183 -0.2445 -0.6331  0.5662
 3283TIP3    H131340   2.721   0.841  16.178  1.1783 -2.1932  0.0289
 3283TIP3    H231341   2.844   0.878  16.258  1.2500 -1.0324 -0.6047
 3284TIP3   OH231342   1.975   4.028  11.122  0.0876 -0.3698 -0.7527
 3284TIP3    H131343   2.064   4.029  11.157 -0.6112 -0.4600  1.1396
 3284TIP3    H231344   1.964   3.940  11.087  0.1367 -1.0219  0.7801
 3285TIP3   OH231345   4.618   4.098   5.254  0.0331  0.2450  0.4432
 3285TIP3    H131346   4.578   4.083   5.339  0.0141 -1.3203  0.1741
 3285TIP3    H231347   4.607   4.016   5.206 -0.0040  1.1007 -1.1032
 3286TIP3   OH231348   5.764   3.432   3.017  0.0434  0.1399  0.0944
 3286TIP3    H131349   5.804   3.375   3.082  1.5041  0.3428 -0.5864
 3286TIP3    H231350   5.778   3.521   3.050 -0.3178  0.1907  0.1121
 3287TIP3   OH231351   5.313   4.149   6.210 -0.1207 -0.1586  0.0233
 3287TIP3    H131352   5.395   4.140   6.259 -1.7646 -2.1993  2.6691
 3287TIP3    H231353   5.295   4.243   6.212  1.5748  0.2042  0.3102
 3288TIP3   OH231354   4.513   1.606   0.135 -0.3504  0.3511 -0.3512
 3288TIP3    H131355   4.549   1.667   0.200 -1.3223  0.9561 -0.3568
 3288TIP3    H231356   4.466   1.541   0.188 -0.0891  0.1229 -0.3950
 3289TIP3   OH231357   3.160   3.823   0.260  0.1195 -0.3189 -0.0274
 3289TIP3    H131358   3.229   3.833   0.326 -2.4024  2.3633  2.5196
 3289TIP3    H231359   3.169   3.733   0.229  3.1427 -0.8615  2.0196
 3290TIP3   OH231360   3.573   2.917  15.338  0.2972  0.1664  0.0630
 3290TIP3    H131361   3.600   2.909  15.430 -1.5079  0.5249  0.6693
 3290TIP3    H231362   3.499   2.978  15.341  0.3971  0.4097 -1.6844
 3291TIP3   OH231363   0.591   6.276   5.779 -0.0630 -0.1592  0.0697
 3291TIP3    H131364   0.500   6.256   5.799 -0.3456  1.0498  0.0677
 3291TIP3    H231365   0.593   6.289   5.684  0.2264 -0.7293 -0.0056
 3292TIP3   OH231366   6.240   1.005   1.142 -0.0052  0.3052 -0.2087
 3292TIP3    H131367   6.330   0.970   1.143 -0.2575 -0.6840 -2.8858
 3292TIP3    H231368   6.208   0.990   1.230  1.9417 -0.8406  0.3790
 3293TIP3   OH231369   5.086   6.425   4.584 -0.1618  0.5563 -0.3879
 3293TIP3    H131370   4.995   6.446   4.607  0.2735 -0.9952  3.4066
 3293TIP3    H231371   5.086   6.330   4.570  1.0896  0.2417  1.3788
 3294TIP3   OH231372   0.829   0.969  12.437 -0.1359 -0.2147 -0.7418
 3294TIP3    H131373   0.865   0.982  12.524  0.8769 -0.5195 -1.1083
 3294TIP3    H231374   0.882   1.025  12.380 -0.0521 -0.8860 -1.3280
 3295TIP3   OH231375   5.206   6.456  13.073  0.6324 -0.0435 -0.5778
 3295TIP3    H131376   5.170   6.467  13.161 -1.0714  0.5931 -1.3004
 3295TIP3    H231377   5.266   6.382  13.080  0.5674  0.0320  1.1185
 3296TIP3   OH231378   1.122   3.319   5.350  0.0112 -0.0720  0.9366
 3296TIP3    H131379   1.154   3.409   5.363  0.4448 -0.1519  0.4532
 3296TIP3    H231380   1.068   3.324   5.272 -0.2642 -0.1598  1.1218
 3297TIP3   OH231381   5.298   0.725  11.113  0.2192  0.3066 -0.1600
 3297TIP3    H131382   5.266   0.764  11.032 -0.9000 -0.3195 -0.0500
 3297TIP3    H231383   5.276   0.789  11.181 -1.6774 -0.4613  0.0307
 3298TIP3   OH231384   6.349   1.200  16.378 -0.4346  0.0025  0.0692
 3298TIP3    H131385   6.319   1.192  16.287 -0.2268 -1.4340  0.0958
 3298TIP3    H231386   6.426   1.142  16.382 -0.0888  0.5092  1.0148
 3299TIP3   OH231387   2.544   5.121  16.352 -0.0368  0.4458 -0.0033
 3299TIP3    H131388   2.546   5.028  16.333 -1.3167  0.1186  1.2651
 3299TIP3    H231389   2.567   5.163  16.270 -1.7172 -0.9499 -1.2547
 3300TIP3   OH231390   5.393   0.422   2.300  0.5148  0.2481 -0.2438
 3300TIP3    H131391   5.384   0.411   2.395  0.7847  0.8544 -0.1420
 3300TIP3    H231392   5.304   0.409   2.266  0.0952  1.6205  0.2683
 3301TIP3   OH231393   4.132   6.221  13.565 -0.2912  0.1603  0.4868
 3301TIP3    H131394   4.109   6.129  13.572  0.2067  0.0278  0.3980
 3301TIP3    H231395   4.056   6.268  13.600 -0.2032 -0.3051  1.3100
 3302TIP3   OH231396   0.447   1.823  14.225  0.0561 -0.3976  0.0182
 3302TIP3    H131397   0.368   1.796  14.178 -0.6173 -2.3838  2.0700
 3302TIP3    H231398   0.425   1.908  14.262 -0.7421 -0.4642 -0.2752
 3303TIP3   OH231399   1.163   2.867  14.048 -0.5688  0.5070 -0.1624
 3303TIP3    H131400   1.205   2.942  14.007 -0.8377  1.2506  0.8993
 3303TIP3    H231401   1.183   2.794  13.990 -0.1677  1.3613 -1.1256
 3304TIP3   OH231402   1.876   1.974   0.504  0.5267  0.3764 -0.2413
 3304TIP3    H131403   1.920   1.908   0.451  1.3496 -1.0907  2.1303
 3304TIP3    H231404   1.910   2.058   0.472  2.3285 -0.5363 -0.8295
 3305TIP3   OH231405   0.118   0.948  11.463 -0.1708  0.3887 -0.0429
 3305TIP3    H131406   0.061   0.872  11.454 -1.0900  1.0315  0.2602
 3305TIP3    H231407   0.175   0.927  11.537 -1.7347  0.7824  1.3367
 3306TIP3   OH231408   5.619   2.960   2.898 -0.0073  0.5597 -0.0917
 3306TIP3    H131409   5.622   2.959   2.803 -0.5890  1.2413 -0.1222
 3306TIP3    H231410   5.653   2.874   2.924 -0.1512  0.2445 -0.9189
 3307TIP3   OH231411   3.671   6.474   5.318 -0.2264 -0.2618  0.2633
 3307TIP3    H131412   3.654   6.380   5.312  2.4999 -0.9947  1.9451
 3307TIP3    H231413   3.758   6.480   5.357  1.2448  2.9345 -2.9041
 3308TIP3   OH231414   0.824   1.255   4.126  0.4103  0.7833 -0.7530
 3308TIP3    H131415   0.915   1.238   4.149 -0.3780 -1.8558  0.9847
 3308TIP3    H231416   0.781   1.270   4.211 -1.3155 -1.5918 -1.1031
 3309TIP3   OH231417   3.667   1.994   3.480 -0.2992 -0.0368  0.3356
 3309TIP3    H131418   3.735   1.929   3.465 -1.3861 -1.0263 -0.4180
 3309TIP3    H231419   3.588   1.943   3.494 -0.9605  1.1045  0.8680
 3310TIP3   OH231420   1.386   0.299  13.818 -0.7213  0.2310 -0.5827
 3310TIP3    H131421   1.378   0.391  13.791 -1.0994  0.2000 -0.5771
 3310TIP3    H231422   1.299   0.276  13.850 -1.4884 -1.0274 -3.3648
 3311TIP3   OH231423   5.375   0.530  14.948 -0.2596  0.2363 -0.1537
 3311TIP3    H131424   5.433   0.488  15.010  0.2138  1.4464  0.2625
 3311TIP3    H231425   5.315   0.581  15.003  0.8495  2.2024 -0.6512
 3312TIP3   OH231426   6.653   5.737  15.984 -0.8261  0.5748 -0.2173
 3312TIP3    H131427   6.605   5.676  15.928  1.3355 -0.4396 -1.0710
 3312TIP3    H231428   6.698   5.681  16.048  0.6783  1.2961 -0.6062
 3313TIP3   OH231429   2.558   6.781  10.622  0.0828 -0.1842 -0.5222
 3313TIP3    H131430   2.626   6.715  10.632  0.3743  0.0970 -0.6427
 3313TIP3    H231431   2.604   6.859  10.590  0.0742  0.6737  1.4164
 3314TIP3   OH231432   1.069   2.309  11.415 -0.4834  0.6855 -0.0980
 3314TIP3    H131433   0.984   2.266  11.411 -0.0617 -0.2417  0.5684
 3314TIP3    H231434   1.108   2.277  11.497  1.0425  0.0758 -1.0303
 3315TIP3   OH231435   1.450   6.373  13.511  0.6703  0.2425  0.4320
 3315TIP3    H131436   1.452   6.367  13.415  0.1320 -0.7435  0.4711
 3315TIP3    H231437   1.509   6.446  13.531 -0.4036  1.4962 -0.7234
 3316TIP3   OH231438   6.619   6.290  12.410 -0.6671 -0.2887 -0.3931
 3316TIP3    H131439   6.648   6.331  12.491 -0.0576 -0.1409 -0.6766
 3316TIP3    H231440   6.528   6.317  12.400 -0.8757 -0.6462  0.4473
 3317TIP3   OH231441   0.412   0.926  10.513  0.5663 -0.0662  0.0162
 3317TIP3    H131442   0.462   1.007  10.522 -0.2546  0.6744 -1.6729
 3317TIP3    H231443   0.457   0.863  10.571  3.0306  0.7367 -0.9154
 3318TIP3   OH231444   6.763   6.059  13.898 -0.2820 -0.2315 -0.4224
 3318TIP3    H131445   6.796   6.147  13.913  0.3299 -0.2508 -1.5627
 3318TIP3    H231446   6.675   6.072  13.862  0.6241  0.0407 -2.7326
 3319TIP3   OH231447   3.431   3.101   4.124 -0.2849  0.1125  0.2494
 3319TIP3    H131448   3.366   3.137   4.185  1.1218 -0.3025  2.0979
 3319TIP3    H231449   3.422   3.155   4.045 -1.8299  1.0212  0.9904
 3320TIP3   OH231450   0.539   6.538  14.966  0.2926  0.5600 -0.3942
 3320TIP3    H131451   0.585   6.455  14.975  2.1253  1.5990  0.4779
 3320TIP3    H231452   0.576   6.579  14.888 -0.6466  0.5556 -0.8642
 3321TIP3   OH231453   1.973   0.988   2.105 -0.3235 -0.7697  0.1106
 3321TIP3    H131454   1.922   0.910   2.083 -2.5659  0.8933 -0.9732
 3321TIP3    H231455   1.922   1.031   2.174 -0.2953  0.7820 -0.7849
 3322TIP3   OH231456   0.627   2.468  14.875 -0.5002 -0.1443  0.5563
 3322TIP3    H131457   0.617   2.472  14.780  1.0096 -2.0185  0.2420
 3322TIP3    H231458   0.717   2.495  14.891 -1.4298  2.5161  1.7577
 3323TIP3   OH231459   3.678   5.774  16.922 -0.0651  0.3566  0.1326
 3323TIP3    H131460   3.753   5.774  16.863 -0.5750  0.2901 -0.5254
 3323TIP3    H231461   3.707   5.825  16.998  0.4663  0.7610 -0.3349
 3324TIP3   OH231462   5.260   5.814   1.927  0.3782 -0.3239 -0.5373
 3324TIP3    H131463   5.220   5.813   2.014 -0.0498 -1.4350 -0.7222
 3324TIP3    H231464   5.187   5.796   1.868  0.7355  0.0630 -1.0983
 3325TIP3   OH231465   1.331   4.045   0.617  0.5821 -0.5639 -0.3932
 3325TIP3    H131466   1.426   4.057   0.618  0.5891 -0.3640  1.7075
 3325TIP3    H231467   1.311   4.020   0.527  2.6349 -0.7597 -0.8540
 3326TIP3   OH231468   0.640   6.284   4.842 -0.4749 -0.1507  1.1559
 3326TIP3    H131469   0.606   6.207   4.797  0.5721  0.8633 -1.6148
 3326TIP3    H231470   0.575   6.352   4.824  1.6514  1.2083 -2.2042
 3327TIP3   OH231471   1.889   5.398  14.741 -0.4617  0.4416  0.2965
 3327TIP3    H131472   1.878   5.353  14.658 -1.8633 -0.9185  1.1424
 3327TIP3    H231473   1.811   5.373  14.792  0.4576  1.0229  2.0926
 3328TIP3   OH231474   0.900   4.108  13.527  0.2726  0.3329  0.4454
 3328TIP3    H131475   0.868   4.036  13.472  2.7491 -0.0201 -0.6582
 3328TIP3    H231476   0.878   4.187  13.479 -0.1000  0.1659  0.3401
 3329TIP3   OH231477   3.611   3.683  15.349 -0.2029  0.3540  0.1131
 3329TIP3    H131478   3.579   3.698  15.260  0.7721  2.6648  0.0832
 3329TIP3    H231479   3.698   3.723  15.350  0.2292 -0.5541  1.8206
 3330TIP3   OH231480   3.786   0.342  16.993  0.7737  0.3552 -0.7580
 3330TIP3    H131481   3.796   0.289  17.072  0.1586 -1.0676 -1.6072
 3330TIP3    H231482   3.725   0.411  17.018  2.5777  1.4927  0.7390
 3331TIP3   OH231483   2.254   0.500  13.794 -0.3558  0.2595 -0.3194
 3331TIP3    H131484   2.169   0.521  13.833  0.0762  0.7217  0.4169
 3331TIP3    H231485   2.264   0.564  13.723 -1.8039 -1.5276 -2.2426
 3332TIP3   OH231486   3.817   3.947   3.918  0.2466  0.0540 -0.3617
 3332TIP3    H131487   3.741   3.909   3.873  0.3851  0.0284 -0.5761
 3332TIP3    H231488   3.791   4.037   3.938  0.2624  0.1338 -0.6880
 3333TIP3   OH231489   6.358   2.305   3.087 -0.3335  0.2093 -0.0021
 3333TIP3    H131490   6.380   2.394   3.115  1.5974 -0.0911 -0.4423
 3333TIP3    H231491   6.265   2.309   3.065  0.0867  2.5667 -1.6549
 3334TIP3   OH231492   5.998   2.104  16.935  0.6020 -0.2014 -0.0924
 3334TIP3    H131493   5.917   2.154  16.945 -0.3100 -1.7828  0.8024
 3334TIP3    H231494   6.015   2.069  17.023  0.0562 -3.1170 -1.0709
 3335TIP3   OH231495   2.473   5.173  12.805  0.3618  0.2094  0.3368
 3335TIP3    H131496   2.529   5.114  12.754 -0.6164  0.2172 -0.7632
 3335TIP3    H231497   2.415   5.114  12.854  0.2557  0.2367  0.2439
 3336TIP3   OH231498   6.712   5.541  14.257  0.0450  0.4078  0.2947
 3336TIP3    H131499   6.736   5.588  14.177 -0.6156  1.4608  0.6949
 3336TIP3    H231500   6.660   5.467  14.227 -0.1506  0.7673 -0.2608
 3337TIP3   OH231501   2.257   5.991   4.059  0.0382 -0.2308  1.0079
 3337TIP3    H131502   2.341   6.029   4.083 -0.6713  1.4394  0.9936
 3337TIP3    H231503   2.270   5.956   3.971  0.4200  1.0933  0.5139
 3338TIP3   OH231504   5.707   4.579  12.473  0.0941  0.2150 -0.4641
 3338TIP3    H131505   5.666   4.534  12.547  0.1021 -0.4476 -0.8547
 3338TIP3    H231506   5.727   4.509  12.411  0.2795  0.7417 -1.0010
 3339TIP3   OH231507   4.391   1.067  11.206 -0.2240  0.3375 -0.7300
 3339TIP3    H131508   4.474   1.044  11.247 -0.3202  0.9207 -0.1952
 3339TIP3    H231509   4.338   1.103  11.277  0.2414  3.0674 -1.6587
 3340TIP3   OH231510   2.525   2.747  15.699 -0.0169  0.5696 -0.6607
 3340TIP3    H131511   2.464   2.676  15.719 -0.2592  0.7570 -0.7311
 3340TIP3    H231512   2.493   2.783  15.616  0.9683 -0.1975 -1.3894
 3341TIP3   OH231513   3.257   0.819   3.775 -0.3284  0.3709  0.0467
 3341TIP3    H131514   3.307   0.818   3.856  0.9264  3.7085 -0.5235
 3341TIP3    H231515   3.323   0.803   3.707 -1.4693 -3.0992 -0.4417
 3342TIP3   OH231516   3.457   5.680  11.610  0.1724  0.3253  0.3408
 3342TIP3    H131517   3.383   5.695  11.551 -1.1489 -1.9831  1.2840
 3342TIP3    H231518   3.534   5.698  11.556 -1.0315  0.0702 -1.5583
 3343TIP3   OH231519   0.848   2.428   3.070  0.0924 -0.1167  0.1009
 3343TIP3    H131520   0.891   2.344   3.085  0.6692 -0.2344 -1.9353
 3343TIP3    H231521   0.819   2.424   2.979 -2.8994  0.5866  0.9072
 3344TIP3   OH231522   2.527   6.106  12.948 -0.5312 -0.2016 -0.2348
 3344TIP3    H131523   2.523   6.011  12.953  0.8391 -0.2260  1.2870
 3344TIP3    H231524   2.618   6.127  12.967 -0.9652  1.4467  0.1823
 3345TIP3   OH231525   6.244   3.808  13.139  0.0370 -0.6704  0.4132
 3345TIP3    H131526   6.338   3.807  13.152  0.1906  2.5551  0.1331
 3345TIP3    H231527   6.208   3.833  13.224 -0.4235  0.0731  0.0075
 3346TIP3   OH231528   3.793   1.953   5.058 -0.1955  0.0601 -0.5368
 3346TIP3    H131529   3.849   1.909   4.994  0.9238 -2.0002  1.6690
 3346TIP3    H231530   3.711   1.968   5.013  0.8038 -0.5565 -2.6785
 3347TIP3   OH231531   5.701   0.218   2.683 -0.6246  0.2377  0.8945
 3347TIP3    H131532   5.689   0.306   2.718 -1.7543  0.6680 -0.5066
 3347TIP3    H231533   5.691   0.227   2.588 -0.4849 -1.3529  0.6887
 3348TIP3   OH231534   6.382   6.461  10.894 -0.1324  0.2486 -0.3093
 3348TIP3    H131535   6.425   6.450  10.810 -0.9756 -0.1243 -0.7051
 3348TIP3    H231536   6.424   6.538  10.933  0.0929  0.5752 -1.1776
 3349TIP3   OH231537   3.799   0.717   1.463 -0.2285 -0.1076 -0.0225
 3349TIP3    H131538   3.765   0.805   1.444 -1.4312 -0.8371 -1.4765
 3349TIP3    H231539   3.748   0.659   1.406 -0.3149 -1.9047  1.7841
 3350TIP3   OH231540   4.395   5.666  14.757 -0.3597  0.2903 -0.5303
 3350TIP3    H131541   4.429   5.747  14.794  0.3561 -0.6839  1.0736
 3350TIP3    H231542   4.300   5.678  14.755 -0.2903  1.0062  0.1085
 3351TIP3   OH231543   0.532   0.037   3.944  0.0520 -0.2467 -1.0317
 3351TIP3    H131544   0.594   0.031   4.016 -0.0451  1.5660 -0.7566
 3351TIP3    H231545   0.585   0.065   3.869 -0.1946 -0.1209 -1.1593
 3352TIP3   OH231546   6.789   6.326  17.154 -0.0644 -0.3785  0.6462
 3352TIP3    H131547   6.733   6.288  17.087  2.6374 -0.0027 -2.0148
 3352TIP3    H231548   6.777   6.420  17.145  1.3823 -0.2605 -0.4151
 3353TIP3   OH231549   3.320   1.474   0.233 -0.0684 -0.4813 -0.1552
 3353TIP3    H131550   3.367   1.521   0.164 -0.7966 -1.0883 -1.0837
 3353TIP3    H231551   3.315   1.536   0.306 -0.1152  0.5136 -0.9928
 3354TIP3   OH231552   1.288   3.405   2.284 -0.0479 -0.0811  0.2530
 3354TIP3    H131553   1.245   3.490   2.273 -0.3670  0.0677  2.2437
 3354TIP3    H231554   1.242   3.347   2.224 -0.1768  1.0242 -0.7459
 3355TIP3   OH231555   3.942   4.288   1.340  0.3908  0.2580  0.0898
 3355TIP3    H131556   3.909   4.236   1.266  0.8605  0.4023 -0.2244
 3355TIP3    H231557   3.907   4.376   1.325 -1.3505 -0.1821  1.2215
 3356TIP3   OH231558   5.049   1.761  14.933 -0.1419  0.8553 -0.2012
 3356TIP3    H131559   5.022   1.722  14.850 -2.2528  0.7196  0.5016
 3356TIP3    H231560   4.988   1.833  14.947  0.3336  1.0356  1.1188
 3357TIP3   OH231561   5.811   0.479   5.059 -0.0483 -0.1336  0.4394
 3357TIP3    H131562   5.831   0.459   4.967 -1.3321  0.5929 -0.0257
 3357TIP3    H231563   5.833   0.571   5.069  0.3922 -0.2899  0.9609
 3358TIP3   OH231564   0.757   1.071   1.141  0.4178 -0.2207  0.2328
 3358TIP3    H131565   0.823   1.050   1.075  1.5460  1.1564  0.8867
 3358TIP3    H231566   0.725   0.985   1.170  1.0693 -0.8777 -0.9122
 3359TIP3   OH231567   0.225   6.820  16.030  0.1427 -0.8905 -0.6156
 3359TIP3    H131568   0.170   6.895  16.054 -0.5794 -2.0346  1.5833
 3359TIP3    H231569   0.300   6.825  16.089  0.1587 -1.8233 -0.5462
 3360TIP3   OH231570   5.415   6.010  12.116  0.2849  0.1121  0.0085
 3360TIP3    H131571   5.437   5.990  12.025 -1.7516 -1.0487 -0.2837
 3360TIP3    H231572   5.332   6.057  12.111  0.1862  0.1084  1.2569
 3361TIP3   OH231573   1.827   5.709   1.542  0.1701  0.0720  0.3409
 3361TIP3    H131574   1.768   5.760   1.598 -0.3091 -1.5364  1.3704
 3361TIP3    H231575   1.856   5.637   1.597  2.1550  0.1129 -0.5427
 3362TIP3   OH231576   4.631   5.616   2.827  0.3965 -0.1637 -0.4061
 3362TIP3    H131577   4.621   5.651   2.739  1.0909  1.6550  0.2069
 3362TIP3    H231578   4.578   5.673   2.882 -0.5086 -1.6221  0.3239
 3363TIP3   OH231579   0.244   5.259   1.372  0.5172  0.0424 -0.6310
 3363TIP3    H131580   0.293   5.299   1.301  1.0917 -1.7798 -1.3155
 3363TIP3    H231581   0.174   5.210   1.328  2.1179 -2.8751 -0.2277
 3364TIP3   OH231582   6.105   4.035  13.528 -0.0824 -0.4332  0.4747
 3364TIP3    H131583   6.163   4.079  13.465  0.1502 -1.7906 -0.2843
 3364TIP3    H231584   6.156   4.033  13.609  0.7065 -1.0782 -0.0234
 3365TIP3   OH231585   3.588   6.259   4.085  0.3631  0.1575  0.4252
 3365TIP3    H131586   3.555   6.169   4.089 -1.2520  0.7127  0.2612
 3365TIP3    H231587   3.585   6.281   3.992 -0.1874  0.6949  0.5606
 3366TIP3   OH231588   3.504   2.338   3.905 -0.1021 -0.1899 -0.1284
 3366TIP3    H131589   3.597   2.345   3.881 -0.8605  2.3260 -2.9352
 3366TIP3    H231590   3.488   2.413   3.962 -0.0427 -1.8710  2.2574
 3367TIP3   OH231591   4.985   3.243   5.365 -0.1179 -0.2343  0.3592
 3367TIP3    H131592   4.917   3.307   5.347  0.2238 -0.1635 -0.7316
 3367TIP3    H231593   4.947   3.159   5.339  0.3103 -0.1566 -0.5393
 3368TIP3   OH231594   1.632   4.223   3.649 -0.5122 -0.6025 -0.2288
 3368TIP3    H131595   1.669   4.238   3.562  0.6271 -1.2394  0.1307
 3368TIP3    H231596   1.590   4.306   3.672 -1.4437 -0.6379 -1.6672
 3369TIP3   OH231597   1.395   3.079   2.865 -0.2979  0.2314  0.3436
 3369TIP3    H131598   1.431   2.998   2.903  2.7783  0.3176 -1.9524
 3369TIP3    H231599   1.383   3.137   2.940  0.1237 -1.4046  1.7478
 3370TIP3   OH231600   2.451   6.600   3.065  0.5079 -0.4645  0.0101
 3370TIP3    H131601   2.403   6.517   3.060  0.5639 -0.4492 -3.3081
 3370TIP3    H231602   2.385   6.665   3.085 -0.2357 -0.9113 -0.8944
 3371TIP3   OH231603   0.592   4.326   1.133  0.6662  0.0323  0.3617
 3371TIP3    H131604   0.623   4.364   1.051 -0.0361 -0.2946 -0.0719
 3371TIP3    H231605   0.671   4.297   1.178  1.1827  1.5389  0.4853
 3372TIP3   OH231606   0.361   4.763   0.217 -0.7146 -0.7586 -0.2353
 3372TIP3    H131607   0.297   4.792   0.282 -0.7857  0.2234 -0.7258
 3372TIP3    H231608   0.415   4.840   0.200 -0.5839 -1.0441 -1.1945
 3373TIP3   OH231609   3.557   3.493  16.167  0.0899 -0.0961 -0.1563
 3373TIP3    H131610   3.580   3.539  16.086  1.0376  0.4294  0.4020
 3373TIP3    H231611   3.467   3.463  16.152 -0.6830  2.2116 -0.4262
 3374TIP3   OH231612   0.510   0.359   6.008  0.5049  0.1579 -0.0138
 3374TIP3    H131613   0.491   0.366   6.101  0.4869  1.4677 -0.1017
 3374TIP3    H231614   0.577   0.291   6.002  2.1002  1.5497  1.1962
 3375TIP3   OH231615   6.440   2.620  16.326 -0.1458  0.1448  0.3358
 3375TIP3    H131616   6.353   2.648  16.294  0.6671  2.5910  0.0498
 3375TIP3    H231617   6.463   2.547  16.269 -1.6262  0.0472 -0.2041
 3376TIP3   OH231618   1.669   1.773  14.783  0.1216 -0.5744  0.1896
 3376TIP3    H131619   1.592   1.726  14.815 -0.2224 -0.2146 -0.0891
 3376TIP3    H231620   1.722   1.707  14.740 -1.1419 -0.4811 -1.6753
 3377TIP3   OH231621   2.374   5.858  12.350  0.2349 -0.2166 -0.6707
 3377TIP3    H131622   2.318   5.789  12.385 -0.2392  1.6797  2.7273
 3377TIP3    H231623   2.321   5.903  12.285 -1.0897 -0.3538  0.2859
 3378TIP3   OH231624   3.167   0.776   2.059  0.1284 -0.3287  0.0221
 3378TIP3    H131625   3.082   0.785   2.016  0.6373  3.3946 -0.5484
 3378TIP3    H231626   3.161   0.833   2.136  1.6737 -1.0986  0.7643
 3379TIP3   OH231627   5.296   5.996   6.139 -0.4167 -0.0242 -0.4453
 3379TIP3    H131628   5.233   5.953   6.081 -1.2795 -0.6681  0.9161
 3379TIP3    H231629   5.338   5.925   6.187 -0.9562  0.5471  0.9397
 3380TIP3   OH231630   1.186   0.033  16.958  0.0644  0.2143 -0.2951
 3380TIP3    H131631   1.166  -0.007  16.873  0.8569 -0.3190 -0.2401
 3380TIP3    H231632   1.269  -0.006  16.984 -0.5062 -0.1593  1.0651
 3381TIP3   OH231633   3.462   3.276  13.436 -0.4849 -0.5619  0.3609
 3381TIP3    H131634   3.455   3.182  13.446 -0.4909 -0.6318 -0.2438
 3381TIP3    H231635   3.416   3.295  13.354  1.5792 -0.3499 -0.8246
 3382TIP3   OH231636   2.646   1.857  11.114  0.2615 -0.5664  0.0758
 3382TIP3    H131637   2.675   1.783  11.062 -1.5702 -1.0719 -0.3178
 3382TIP3    H231638   2.617   1.922  11.050 -1.0068 -0.7731  0.3987
 3383TIP3   OH231639   0.127   5.695  17.129 -0.8750 -0.2472  0.2695
 3383TIP3    H131640   0.129   5.791  17.135 -2.6401 -0.0292 -1.4460
 3383TIP3    H231641   0.218   5.670  17.116 -0.5117  1.2964 -0.3989
 3384TIP3   OH231642   4.979   1.933  12.473 -0.9769 -0.3904  0.2336
 3384TIP3    H131643   5.005   1.972  12.557  2.6121  0.4791 -1.0864
 3384TIP3    H231644   4.937   1.850  12.498  0.2461 -0.3306  2.9099
 3385TIP3   OH231645   6.474   5.726  11.057 -0.2184  0.1709  0.2733
 3385TIP3    H131646   6.552   5.744  11.005 -0.1539 -0.3549  0.1858
 3385TIP3    H231647   6.411   5.690  10.995  0.2456 -1.5271  0.7561
 3386TIP3   OH231648   3.653   1.824   4.851  0.2544  0.7550 -0.0813
 3386TIP3    H131649   3.689   1.835   4.763 -1.2593 -0.8169 -0.9772
 3386TIP3    H231650   3.667   1.732   4.871 -0.5166  0.8172  0.7921
 3387TIP3   OH231651   3.604   5.270   2.128  0.4906 -0.2490  0.0450
 3387TIP3    H131652   3.647   5.284   2.213 -0.6132 -0.4375  0.6558
 3387TIP3    H231653   3.667   5.302   2.064  1.0045  0.6936  0.9813
 3388TIP3   OH231654   1.549   2.512   3.479 -0.5169 -0.1406  1.0322
 3388TIP3    H131655   1.535   2.577   3.410 -0.8416 -2.0401 -0.7869
 3388TIP3    H231656   1.634   2.473   3.458 -1.6529 -2.3702  0.2030
 3389TIP3   OH231657   1.332   4.082  15.192 -0.0028 -1.0322  0.1376
 3389TIP3    H131658   1.323   4.164  15.240 -1.8516 -0.6208 -0.8178
 3389TIP3    H231659   1.426   4.074  15.176  0.3100  0.3996  1.0814
 3390TIP3   OH231660   1.691   4.138  10.792  0.3379  0.1446  0.2827
 3390TIP3    H131661   1.637   4.073  10.748 -0.7450 -0.2092  2.0435
 3390TIP3    H231662   1.776   4.132  10.749  0.1103 -2.0812  0.0547
 3391TIP3   OH231663   3.188   5.975   3.923 -0.1129  0.4892  0.0547
 3391TIP3    H131664   3.281   5.980   3.942  0.1623  1.4791 -1.4213
 3391TIP3    H231665   3.177   5.894   3.874 -0.6100 -1.3515  2.9572
 3392TIP3   OH231666   1.948   0.549   1.438  0.3150  0.0053 -0.3254
 3392TIP3    H131667   1.860   0.513   1.452  0.0333  0.6828 -0.3572
 3392TIP3    H231668   1.941   0.601   1.359  0.2664  1.5812  0.6730
 3393TIP3   OH231669   3.611   0.393   1.683 -0.0329  0.6256 -0.1017
 3393TIP3    H131670   3.556   0.435   1.750  1.1528  0.9319  0.7033
 3393TIP3    H231671   3.689   0.448   1.679  0.7544 -0.4827 -0.3479
 3394TIP3   OH231672   6.532   1.027   1.950  0.1152 -0.2933 -0.0392
 3394TIP3    H131673   6.516   0.933   1.938 -0.0181 -0.2226 -0.4255
 3394TIP3    H231674   6.627   1.034   1.959  0.3125 -0.2665 -1.8940
 3395TIP3   OH231675   2.856   4.856   4.190 -0.1296 -0.4691  0.1041
 3395TIP3    H131676   2.868   4.863   4.284 -0.7968 -0.4210  0.1909
 3395TIP3    H231677   2.804   4.933   4.166  1.5386  0.4935 -0.5936
 3396TIP3   OH231678   0.345   5.486  13.624  0.2540  0.4891  0.6577
 3396TIP3    H131679   0.287   5.452  13.556 -2.5129  1.7904  2.1938
 3396TIP3    H231680   0.335   5.424  13.696  0.3929  0.9890  1.1115
 3397TIP3   OH231681   1.093   5.144  14.799 -0.1588  0.2853  0.2614
 3397TIP3    H131682   1.131   5.218  14.752  1.1676 -0.7277 -0.3242
 3397TIP3    H231683   1.002   5.168  14.814 -0.0532  1.5094 -0.9905
 3398TIP3   OH231684   3.983   1.201   3.474 -0.1763 -0.0837  0.4182
 3398TIP3    H131685   3.917   1.227   3.410 -0.4029 -1.3612  0.1034
 3398TIP3    H231686   3.940   1.134   3.527 -0.2017  1.3753  2.3320
 3399TIP3   OH231687   4.964   4.561   5.987 -0.1410  0.0362  0.7982
 3399TIP3    H131688   5.004   4.484   6.028  1.0518  0.6676  0.8644
 3399TIP3    H231689   5.038   4.609   5.950 -1.0624  0.1255 -1.0175
 3400TIP3   OH231690   1.442   0.955   2.580 -0.1955 -0.0900 -0.1227
 3400TIP3    H131691   1.474   0.908   2.657  2.3434 -1.4951 -1.8839
 3400TIP3    H231692   1.369   0.902   2.548  0.0169 -0.5928  0.2161
 3401TIP3   OH231693   6.789   3.358  15.194  0.5998  0.3072  0.5153
 3401TIP3    H131694   6.816   3.370  15.285  2.9968 -1.0079  0.0680
 3401TIP3    H231695   6.769   3.265  15.187  1.8036  0.0980 -0.5778
 3402TIP3   OH231696   2.237   2.026   1.210  0.4204  0.0864 -0.8671
 3402TIP3    H131697   2.223   2.103   1.155 -1.6643  1.5891  1.5572
 3402TIP3    H231698   2.169   1.965   1.184 -0.5805  0.8056  0.0126
 3403TIP3   OH231699   5.970   6.046  15.988 -0.5532 -0.7499  0.1511
 3403TIP3    H131700   5.900   5.982  15.981 -1.9257  0.7370 -0.1574
 3403TIP3    H231701   6.044   5.997  16.024 -1.2243 -2.7218 -1.0315
 3404TIP3   OH231702   3.151   5.486  14.084 -0.3400  0.6934  0.2888
 3404TIP3    H131703   3.158   5.444  14.169  0.9487  1.3036  0.5123
 3404TIP3    H231704   3.213   5.438  14.028 -2.9363 -1.3320 -1.0565
 3405TIP3   OH231705   4.211   3.834   5.756 -0.6919 -0.7358  0.2523
 3405TIP3    H131706   4.209   3.922   5.720  0.8977  0.0569  1.8941
 3405TIP3    H231707   4.304   3.811   5.757 -0.7596 -1.2016  2.4959
 3406TIP3   OH231708   5.146   1.576  15.112 -0.7446  0.2535  0.7973
 3406TIP3    H131709   5.139   1.646  15.046 -1.3289  1.1568  1.7970
 3406TIP3    H231710   5.132   1.495  15.062 -0.2508  0.8513 -0.3506
 3407TIP3   OH231711   2.741   6.476  15.880  0.1968 -0.1798  0.5180
 3407TIP3    H131712   2.765   6.400  15.827 -0.4380  0.3662 -0.5913
 3407TIP3    H231713   2.783   6.461  15.965  1.6785 -0.8211 -0.3055
 3408TIP3   OH231714   6.429   0.614   2.658  0.0775 -0.0258 -0.0686
 3408TIP3    H131715   6.509   0.660   2.635  0.6113 -0.9352 -0.0994
 3408TIP3    H231716   6.458   0.524   2.675 -0.3309  0.3582  3.4677
 3409TIP3   OH231717   0.134   1.057  12.572  0.1547 -0.5278 -0.2408
 3409TIP3    H131718   0.221   1.031  12.545  0.3438  2.1332 -2.6382
 3409TIP3    H231719   0.145   1.145  12.609 -1.4324 -0.3680 -0.0506
 3410TIP3   OH231720   5.836   6.481  14.950 -0.1037  0.0605  0.2660
 3410TIP3    H131721   5.931   6.481  14.962 -0.1882  0.9342  1.0967
 3410TIP3    H231722   5.803   6.420  15.016 -0.0293 -1.5722 -1.1486
 3411TIP3   OH231723   4.466   3.623   1.010  0.3847  0.1061  0.0339
 3411TIP3    H131724   4.396   3.618   0.945 -0.8979  1.1752  1.2842
 3411TIP3    H231725   4.546   3.635   0.958 -0.2897 -1.4136 -1.4267
 3412TIP3   OH231726   4.003   3.492  16.557  0.4854 -0.6822  0.0248
 3412TIP3    H131727   3.908   3.492  16.561  0.4003 -2.6866 -1.0095
 3412TIP3    H231728   4.027   3.584  16.569 -1.6495  0.1140 -1.1983
 3413TIP3   OH231729   4.509   1.090   1.015  0.0009 -0.0471 -0.1052
 3413TIP3    H131730   4.452   1.082   0.939  0.7248  0.1378 -0.6753
 3413TIP3    H231731   4.499   1.007   1.062 -2.0460  0.6085  0.7500
 3414TIP3   OH231732   1.531   5.275  12.348  0.3513 -0.4610  0.3501
 3414TIP3    H131733   1.575   5.353  12.316 -0.6165  0.5813  1.4343
 3414TIP3    H231734   1.576   5.202  12.306  1.1069  0.6862 -0.8939
 3415TIP3   OH231735   5.804   0.908   4.672  0.6763  0.2898 -0.1915
 3415TIP3    H131736   5.862   0.885   4.600  0.0359  0.4276 -0.7646
 3415TIP3    H231737   5.730   0.847   4.664 -0.4714  1.7193 -1.0113
 3416TIP3   OH231738   5.111   0.464   0.270  0.4813  0.0232  0.5861
 3416TIP3    H131739   5.128   0.480   0.177  0.6011 -1.6521  0.2902
 3416TIP3    H231740   5.023   0.427   0.272 -0.1195  1.3999  1.3258
 3417TIP3   OH231741   4.379   3.043  11.879 -0.1672  0.7036  0.4284
 3417TIP3    H131742   4.287   3.019  11.881 -0.4464  1.7009  0.2356
 3417TIP3    H231743   4.393   3.077  11.791  0.9601 -1.5032 -0.3310
 3418TIP3   OH231744   6.523   2.282  13.797 -0.2887 -0.3091 -0.0366
 3418TIP3    H131745   6.544   2.375  13.792  0.6743 -0.5312 -0.3422
 3418TIP3    H231746   6.459   2.275  13.868  2.0427  0.1943  2.2796
 3419TIP3   OH231747   5.377   2.325  14.538  0.0679  0.3273 -0.3619
 3419TIP3    H131748   5.306   2.360  14.484  0.1959  1.9730  0.4767
 3419TIP3    H231749   5.443   2.395  14.540  0.4522 -0.0464  1.1804
 3420TIP3   OH231750   0.715   3.462  16.952 -0.4210  0.0790  0.6242
 3420TIP3    H131751   0.785   3.426  16.898 -1.3376 -1.9413  0.7037
 3420TIP3    H231752   0.676   3.531  16.898  1.6456  1.3322  0.6267
 3421TIP3   OH231753   2.838   2.340   0.241 -0.1806  0.9281 -0.0842
 3421TIP3    H131754   2.753   2.337   0.197  0.0299 -2.2364 -0.5354
 3421TIP3    H231755   2.819   2.311   0.330  0.0811  2.9088  0.6639
 3422TIP3   OH231756   5.226   5.201  11.917  0.2663 -0.0557 -0.6313
 3422TIP3    H131757   5.193   5.226  11.830  2.1105  2.2180 -0.7760
 3422TIP3    H231758   5.265   5.281  11.951  2.1264 -1.6174  1.1319
 3423TIP3   OH231759   4.952   5.286   6.062 -0.2284  0.2623 -0.4225
 3423TIP3    H131760   4.875   5.342   6.049 -0.7898 -0.6152 -0.9918
 3423TIP3    H231761   4.942   5.251   6.150  0.6127  1.7583  0.3020
 3424TIP3   OH231762   3.403   1.878   0.343 -0.4795  0.5428 -0.6959
 3424TIP3    H131763   3.427   1.786   0.334  0.5149  0.8422 -1.2327
 3424TIP3    H231764   3.379   1.887   0.435  0.8380  0.0587 -0.2857
 3425TIP3   OH231765   1.457   5.287   3.605  0.2663  0.2491  0.2520
 3425TIP3    H131766   1.398   5.252   3.538 -0.1525 -0.0075  0.7452
 3425TIP3    H231767   1.401   5.299   3.682  0.5006  1.6045  0.2252
 3426TIP3   OH231768   2.727   6.607   4.787 -0.6175 -0.0566 -0.2133
 3426TIP3    H131769   2.692   6.571   4.705 -1.6017 -1.5679  0.7983
 3426TIP3    H231770   2.652   6.651   4.828 -0.6705 -0.9579  0.7169
 3427TIP3   OH231771   4.609   6.206   0.257 -0.8361 -0.3429  0.1132
 3427TIP3    H131772   4.555   6.284   0.244 -0.8144 -0.3671 -0.1308
 3427TIP3    H231773   4.630   6.176   0.168 -1.5087 -1.0869  0.1936
 3428TIP3   OH231774   6.533   2.770   1.759  0.4285 -0.4663 -0.5615
 3428TIP3    H131775   6.557   2.801   1.672  1.2557  0.0221 -0.1684
 3428TIP3    H231776   6.515   2.849   1.809  4.3937 -0.3087  0.9933
 3429TIP3   OH231777   3.290   6.072   2.050  0.4377  0.2219 -0.7319
 3429TIP3    H131778   3.313   6.083   2.142 -0.2562  0.8408 -0.6226
 3429TIP3    H231779   3.374   6.070   2.004  0.8140 -0.8001 -0.0251
 3430TIP3   OH231780   6.082   0.608   0.172 -0.2147 -0.1486  0.9266
 3430TIP3    H131781   6.135   0.533   0.200  0.1903 -1.2437 -2.2917
 3430TIP3    H231782   6.001   0.568   0.140 -1.2017  1.1155  1.7530
 3431TIP3   OH231783   6.295   0.649   0.849 -0.1279 -0.2521 -0.2754
 3431TIP3    H131784   6.202   0.632   0.830 -0.2329 -0.2128  0.1982
 3431TIP3    H231785   6.312   0.734   0.809 -0.7125  0.4842  0.9685
 3432TIP3   OH231786   1.537   3.418  14.476  0.1571  0.3017  0.2460
 3432TIP3    H131787   1.443   3.419  14.458  0.1718 -0.2167  0.1190
 3432TIP3    H231788   1.544   3.425  14.571  0.0478  2.0781  0.1660
 3433TIP3   OH231789   3.947   3.478   4.632  0.0699 -0.1221  0.6897
 3433TIP3    H131790   3.948   3.450   4.540 -0.5496  1.1447  0.2690
 3433TIP3    H231791   4.014   3.547   4.637 -0.6617  0.5958  0.9018
 3434TIP3   OH231792   2.352   1.637  13.304  0.2889  0.5208 -0.6711
 3434TIP3    H131793   2.432   1.637  13.251  1.4196  1.2290  0.9528
 3434TIP3    H231794   2.359   1.715  13.359 -0.1704 -0.8085  1.4284
 3435TIP3   OH231795   5.554   2.974   4.069  0.1127  0.4392 -0.0708
 3435TIP3    H131796   5.485   3.026   4.109 -0.8163 -0.5746 -0.2841
 3435TIP3    H231797   5.597   3.033   4.007  0.4000  1.5020  1.0896
 3436TIP3   OH231798   3.621   6.485  13.868  0.4474  0.0086 -0.0045
 3436TIP3    H131799   3.647   6.516  13.781 -1.5546 -0.8686 -0.9780
 3436TIP3    H231800   3.553   6.420  13.851 -1.0744  0.8920  2.2675
 3437TIP3   OH231801   4.905   3.919  15.519 -0.4777  0.1157 -0.1495
 3437TIP3    H131802   4.834   3.907  15.456  0.1584  0.4804 -0.9615
 3437TIP3    H231803   4.974   3.964  15.469  0.3947 -0.3915  0.5703
 3438TIP3   OH231804   2.179   2.851   6.036 -0.5187  0.3087 -0.4561
 3438TIP3    H131805   2.108   2.902   5.998 -0.5906 -0.2098 -1.0308
 3438TIP3    H231806   2.256   2.873   5.982  0.7500  3.7456  2.3250
 3439TIP3   OH231807   4.803   1.725   3.569  0.0199 -0.0947  0.2265
 3439TIP3    H131808   4.845   1.640   3.581  1.5865  0.6359  0.1955
 3439TIP3    H231809   4.724   1.720   3.623  1.2524 -0.7888  2.0846
 3440TIP3   OH231810   5.414   6.235   0.806 -1.0738 -0.3716 -0.2741
 3440TIP3    H131811   5.474   6.229   0.731 -2.6676 -0.0170 -1.6362
 3440TIP3    H231812   5.328   6.217   0.769 -1.9665  0.2264  1.4092
 3441TIP3   OH231813   1.423   0.663  15.002  0.2034 -0.6826  0.3879
 3441TIP3    H131814   1.449   0.611  15.077  0.9671  0.0193  0.6257
 3441TIP3    H231815   1.424   0.602  14.928  0.6421 -1.0958  0.7354
 3442TIP3   OH231816   1.087   4.112   5.028  0.2186  0.0695  0.0185
 3442TIP3    H131817   1.045   4.198   5.026 -0.1274 -0.1085 -0.5906
 3442TIP3    H231818   1.176   4.128   4.997 -0.5897 -0.1765 -2.6687
 3443TIP3   OH231819   3.630   1.511   3.043 -0.0883  0.5826  0.0125
 3443TIP3    H131820   3.719   1.545   3.029  0.2419 -0.8267 -1.9340
 3443TIP3    H231821   3.628   1.485   3.135  2.4335 -1.5616 -0.4101
 3444TIP3   OH231822   6.378   4.575   0.747  0.2503  0.4897 -0.1797
 3444TIP3    H131823   6.421   4.559   0.831 -1.9051 -0.2696  0.8589
 3444TIP3    H231824   6.285   4.581   0.769 -0.2248  2.0140 -2.3084
 3445TIP3   OH231825   1.999   4.302   2.883  0.3912  0.1259 -0.2642
 3445TIP3    H131826   2.061   4.258   2.825  1.9373  2.7088 -0.7053
 3445TIP3    H231827   2.039   4.386   2.903 -1.3600  0.4652  2.3997
 3446TIP3   OH231828   0.595   6.733  12.469 -0.5384 -0.1661  0.4139
 3446TIP3    H131829   0.603   6.741  12.374 -0.2336 -3.8959 -0.0472
 3446TIP3    H231830   0.670   6.678  12.495  0.8942  2.8056  3.3115
 3447TIP3   OH231831   6.054   1.402   5.779 -0.0041 -0.6488  0.3675
 3447TIP3    H131832   5.983   1.461   5.754  0.0810  0.0677  1.7064
 3447TIP3    H231833   6.090   1.441   5.859  4.5189  1.3320 -2.2387
 3448TIP3   OH231834   0.321   5.486  14.826  0.0446  0.0877 -0.5175
 3448TIP3    H131835   0.348   5.501  14.916  1.1175 -2.3912 -0.3373
 3448TIP3    H231836   0.263   5.559  14.805  0.0649  0.9153  2.0401
 3449TIP3   OH231837   6.056   6.637  12.901 -0.5647 -0.0270  0.3516
 3449TIP3    H131838   6.087   6.674  12.819  1.3723  1.1641  1.5463
 3449TIP3    H231839   5.966   6.667  12.909 -0.1684  1.4374 -0.4456
 3450TIP3   OH231840   4.705   3.051  16.455 -0.0034 -0.6936  0.6176
 3450TIP3    H131841   4.724   2.966  16.497 -1.6727 -1.2485  0.3261
 3450TIP3    H231842   4.788   3.098  16.458  1.2129 -2.6753  0.0000
 3451TIP3   OH231843   5.367   0.181  15.187 -0.7846  0.6167  0.3848
 3451TIP3    H131844   5.309   0.257  15.191 -2.3678 -0.4136 -1.2467
 3451TIP3    H231845   5.371   0.159  15.094 -2.1738 -2.5458  0.9288
 3452TIP3   OH231846   5.121   1.223   1.259 -0.2684 -0.1345  0.1742
 3452TIP3    H131847   5.117   1.128   1.270 -0.8598 -0.1044  0.2465
 3452TIP3    H231848   5.177   1.253   1.331 -0.1309 -0.4204  0.1883
 3453TIP3   OH231849   5.479   4.965  16.137 -0.0781 -0.0742 -0.3272
 3453TIP3    H131850   5.466   4.986  16.230 -0.1800  0.3682 -0.4401
 3453TIP3    H231851   5.524   5.041  16.102 -0.0288 -0.2478 -0.6405
 3454TIP3   OH231852   3.893   2.845   0.782 -0.1870 -0.0557 -0.5996
 3454TIP3    H131853   3.856   2.818   0.866  0.9787 -0.8042 -0.3044
 3454TIP3    H231854   3.899   2.941   0.788 -0.1937 -0.0965  0.1325
 3455TIP3   OH231855   4.328   3.658  13.948  0.1403  0.7615 -0.6013
 3455TIP3    H131856   4.397   3.655  14.014 -2.9800 -2.7039  3.0210
 3455TIP3    H231857   4.366   3.613  13.872  2.1917 -0.1346  0.8416
 3456TIP3   OH231858   4.079   0.451  12.293  0.2776  0.1243 -0.6166
 3456TIP3    H131859   4.053   0.404  12.214 -0.7379  0.6445 -0.6050
 3456TIP3    H231860   4.107   0.537  12.262 -1.2066  0.7325 -0.3182
 3457TIP3   OH231861   2.195   2.565  10.836 -0.1506  0.2692  0.2168
 3457TIP3    H131862   2.187   2.525  10.923  1.6727 -1.0935 -0.2106
 3457TIP3    H231863   2.156   2.652  10.847 -0.7349 -0.1913  2.1675
 3458TIP3   OH231864   4.603   0.523   4.091  0.3056  0.2168  0.8148
 3458TIP3    H131865   4.528   0.504   4.148 -0.7603 -0.2763 -0.6911
 3458TIP3    H231866   4.565   0.569   4.016  1.7987  1.5777  0.8544
 3459TIP3   OH231867   3.382   2.582  16.900  0.1983  0.1569  0.4436
 3459TIP3    H131868   3.374   2.489  16.879 -0.5068  0.4385 -0.6365
 3459TIP3    H231869   3.424   2.621  16.823  1.3252  0.6126  1.2466
 3460TIP3   OH231870   3.320   4.291  11.606  0.4059  0.0084 -0.0688
 3460TIP3    H131871   3.393   4.347  11.632 -1.0155  1.8409  0.1936
 3460TIP3    H231872   3.303   4.236  11.683  0.5059  0.6708  0.4284
 3461TIP3   OH231873   3.351   6.388  13.748 -0.2129  0.4655  0.1431
 3461TIP3    H131874   3.402   6.323  13.700  0.7060  1.4154 -0.2029
 3461TIP3    H231875   3.261   6.355  13.745  0.2788 -1.0181  0.3745
 3462TIP3   OH231876   2.255   2.484   1.862 -0.1797 -0.0392  0.0371
 3462TIP3    H131877   2.347   2.458   1.866 -0.1424 -0.2317 -1.5045
 3462TIP3    H231878   2.255   2.578   1.877  0.5700  0.4123 -2.3744
 3463TIP3   OH231879   3.064   0.577  12.593 -0.6790 -0.5510 -0.1399
 3463TIP3    H131880   3.030   0.625  12.517 -0.4594  0.2759  0.2681
 3463TIP3    H231881   3.114   0.505  12.556 -2.2514 -1.3613 -0.7650
 3464TIP3   OH231882   4.065   5.827   0.757  0.8219  0.2267 -0.3201
 3464TIP3    H131883   3.985   5.853   0.711  0.8130  0.9470  0.0928
 3464TIP3    H231884   4.120   5.905   0.756  1.7279 -0.3918 -1.0051
 3465TIP3   OH231885   1.669   4.068  11.475 -0.3452 -0.9195  0.2672
 3465TIP3    H131886   1.577   4.052  11.498 -0.4359 -1.8414 -0.6389
 3465TIP3    H231887   1.718   4.032  11.549 -0.6823 -1.7297  0.1105
 3466TIP3   OH231888   2.918   5.692   5.664 -0.1157  0.5182  0.1114
 3466TIP3    H131889   2.897   5.736   5.581 -1.1653  0.7237  0.4749
 3466TIP3    H231890   2.845   5.633   5.679  1.2841 -1.4779 -0.3991
 3467TIP3   OH231891   4.103   6.709  17.070 -0.2209 -0.1726  0.0712
 3467TIP3    H131892   4.188   6.739  17.037 -0.2406 -0.8612 -0.6254
 3467TIP3    H231893   4.038   6.758  17.019 -0.2606  0.9466  1.1526
 3468TIP3   OH231894   6.463   6.632   5.355  0.1787  0.3495 -0.6207
 3468TIP3    H131895   6.516   6.710   5.334 -1.8492  1.8962 -0.3126
 3468TIP3    H231896   6.422   6.609   5.272 -0.4114  0.5672 -0.3914
 3469TIP3   OH231897   5.319   6.018  14.461  0.1396 -0.0708 -0.0856
 3469TIP3    H131898   5.284   5.930  14.476 -0.0671 -0.1750 -1.0912
 3469TIP3    H231899   5.329   6.024  14.366  2.0938  0.2692  0.1055
 3470TIP3   OH231900   0.541   0.640   2.630  0.3336 -0.0730  0.1422
 3470TIP3    H131901   0.550   0.713   2.692  0.2177  0.7738 -0.8152
 3470TIP3    H231902   0.472   0.585   2.667  0.3643  0.3470  0.8368
 3471TIP3   OH231903   5.562   5.630  16.784 -0.0156  0.1472  0.3148
 3471TIP3    H131904   5.639   5.687  16.784  1.2369 -1.4645  0.4736
 3471TIP3    H231905   5.503   5.670  16.721  0.6366  1.8328  0.7198
 3472TIP3   OH231906   0.293   0.313   5.117  0.1686  0.0709 -0.0594
 3472TIP3    H131907   0.220   0.256   5.140  0.2484 -0.3054 -0.7228
 3472TIP3    H231908   0.268   0.399   5.152 -0.1294 -0.2811  0.5924
 3473TIP3   OH231909   2.541   2.403  15.241 -0.0015  0.3269 -0.0607
 3473TIP3    H131910   2.523   2.420  15.149  1.2895 -0.5037 -0.4803
 3473TIP3    H231911   2.551   2.490  15.280 -0.4447  0.6762 -0.7060
 3474TIP3   OH231912   4.484   5.320   1.467 -0.1892 -0.1666 -0.1846
 3474TIP3    H131913   4.436   5.287   1.391  1.0346 -0.6817 -0.7472
 3474TIP3    H231914   4.427   5.388   1.503 -1.6623 -1.2164 -0.4199
 3475TIP3   OH231915   5.547   5.202   5.990 -0.3424 -0.3191  0.0878
 3475TIP3    H131916   5.588   5.117   6.004 -0.6765 -0.8230 -1.7073
 3475TIP3    H231917   5.619   5.261   5.967 -0.3983 -0.7889 -1.3543
 3476TIP3   OH231918   5.707   2.004   5.664 -0.3826 -0.1322  0.1646
 3476TIP3    H131919   5.756   1.963   5.736 -0.2516  0.5327  0.4543
 3476TIP3    H231920   5.692   1.932   5.602 -1.2156 -0.9231  1.2301
 3477TIP3   OH231921   5.518   6.436   1.632 -0.2638  0.1380  0.1044
 3477TIP3    H131922   5.471   6.512   1.597  0.5519  0.2682 -0.7587
 3477TIP3    H231923   5.540   6.460   1.722 -0.9481  0.4895  0.1782
 3478TIP3   OH231924   2.992   6.489  13.339  0.0491  0.2842  0.0685
 3478TIP3    H131925   2.957   6.442  13.263 -0.6978  0.8924  0.0199
 3478TIP3    H231926   2.931   6.469  13.410  0.2350  0.4516  0.2766
 3479TIP3   OH231927   1.415   0.628   0.799 -0.3317 -0.0249 -0.1432
 3479TIP3    H131928   1.393   0.695   0.863 -1.7237 -0.7362  0.1597
 3479TIP3    H231929   1.340   0.568   0.799  0.4293 -1.0390 -1.1226
 3480TIP3   OH231930   6.657   2.403  17.146 -0.3938 -0.6576 -0.3905
 3480TIP3    H131931   6.658   2.482  17.201  0.3169 -1.6858  1.1563
 3480TIP3    H231932   6.623   2.433  17.062  0.7960  1.5237 -0.1786
 3481TIP3   OH231933   0.200   1.571  16.333  0.2402 -0.4503 -0.2288
 3481TIP3    H131934   0.127   1.531  16.285  1.1315 -2.4808 -0.0017
 3481TIP3    H231935   0.160   1.607  16.412 -0.5611 -1.4662 -0.1441
 3482TIP3   OH231936   4.895   1.807   5.072 -0.4203 -0.4092  0.1239
 3482TIP3    H131937   4.981   1.813   5.029 -0.0530 -1.4689  0.6895
 3482TIP3    H231938   4.862   1.897   5.069  0.0167 -0.2661 -1.4932
 3483TIP3   OH231939   1.710   0.715  16.361  0.0088 -0.3125  0.1104
 3483TIP3    H131940   1.701   0.620  16.365  0.8749 -0.3827  3.7945
 3483TIP3    H231941   1.792   0.733  16.408 -0.7900  2.2989  0.6299
 3484TIP3   OH231942   3.010   3.763  13.163  0.7835  0.3409  0.4797
 3484TIP3    H131943   3.101   3.790  13.154  1.1833 -1.5565 -2.3672
 3484TIP3    H231944   2.960   3.831  13.118  0.6212  1.6571  2.4837
 3485TIP3   OH231945   4.309   1.575  16.379 -0.0032 -0.0300 -0.0317
 3485TIP3    H131946   4.343   1.521  16.308  0.1283 -1.3188  0.9608
 3485TIP3    H231947   4.316   1.665  16.347  0.2851 -0.5548 -1.5280
 3486TIP3   OH231948   4.202   2.385   0.313 -0.6063 -0.9735  0.6446
 3486TIP3    H131949   4.230   2.334   0.237 -0.4016 -0.0037  0.0499
 3486TIP3    H231950   4.192   2.320   0.383 -3.1825 -2.2763 -0.7808
 3487TIP3   OH231951   5.331   0.570   4.710  0.0216 -0.4053  0.0017
 3487TIP3    H131952   5.419   0.571   4.748  0.0935 -0.8664 -0.1513
 3487TIP3    H231953   5.281   0.509   4.765 -0.4834  0.5864  0.6935
 3488TIP3   OH231954   0.978   5.884  16.259 -0.2716  0.5775  0.2009
 3488TIP3    H131955   0.895   5.837  16.251 -1.9829  3.2748  0.8382
 3488TIP3    H231956   0.962   5.969  16.218  2.6475  0.7222 -0.8928
 3489TIP3   OH231957   6.328   1.761  14.132 -0.6078 -0.2077 -0.8388
 3489TIP3    H131958   6.256   1.733  14.075 -0.2989 -1.8760 -0.4382
 3489TIP3    H231959   6.402   1.706  14.107  0.4227  1.1406 -0.8857
 3490TIP3   OH231960   1.975   2.397   2.812  0.3209 -0.3754 -0.3891
 3490TIP3    H131961   1.992   2.442   2.729  2.6197  0.9926  0.7085
 3490TIP3    H231962   1.974   2.304   2.789  1.6522 -0.0845 -1.8810
 3491TIP3   OH231963   4.487   3.133  10.727  0.2457  0.2281  0.6865
 3491TIP3    H131964   4.484   3.096  10.815  3.2190 -2.1731 -0.0153
 3491TIP3    H231965   4.581   3.135  10.706 -0.3783 -0.0783 -2.6989
 3492TIP3   OH231966   0.902   3.367  16.426  0.0262  0.3994 -0.0861
 3492TIP3    H131967   0.826   3.424  16.418  1.2559  2.0710 -0.1946
 3492TIP3    H231968   0.972   3.423  16.459  1.5784 -0.7907 -1.1755
 3493TIP3   OH231969   2.428   4.963   3.507  0.9375 -0.2606  0.1584
 3493TIP3    H131970   2.488   4.993   3.438  0.5308 -1.3244 -0.6944
 3493TIP3    H231971   2.439   4.868   3.508 -0.0854 -0.3856  0.6093
 3494TIP3   OH231972   6.546   5.927  15.228  0.1787  0.2774 -0.1626
 3494TIP3    H131973   6.453   5.904  15.238 -0.1017 -0.1667 -3.0230
 3494TIP3    H231974   6.546   6.020  15.206  0.4270  0.3175  0.0020
 3495TIP3   OH231975   0.220   4.299  14.217  0.6062  0.9417  0.0269
 3495TIP3    H131976   0.184   4.385  14.241 -0.5450  0.2325  0.9358
 3495TIP3    H231977   0.237   4.256  14.300 -0.8381 -0.5133 -0.3793
 3496TIP3   OH231978   1.932   1.815  12.640  0.0944  0.3540 -0.0871
 3496TIP3    H131979   1.841   1.790  12.627  0.4176 -0.6612 -0.4987
 3496TIP3    H231980   1.949   1.882  12.574 -0.3740  0.6274  0.0629
 3497TIP3   OH231981   6.369   1.145   2.146 -0.5165 -0.1409  0.5631
 3497TIP3    H131982   6.415   1.107   2.071  0.0054  0.1972  0.7063
 3497TIP3    H231983   6.363   1.074   2.210 -0.0218 -0.1342  0.6186
 3498TIP3   OH231984   5.893   2.227   4.866  0.1711 -0.3532 -0.6310
 3498TIP3    H131985   5.822   2.266   4.916  0.4390  0.6838 -1.0275
 3498TIP3    H231986   5.850   2.168   4.805 -0.1356 -1.9792  1.0682
 3499TIP3   OH231987   0.289   4.260  16.877 -0.2733  0.1373 -0.0322
 3499TIP3    H131988   0.301   4.174  16.834  0.2934 -0.1075  0.6046
 3499TIP3    H231989   0.342   4.255  16.956 -1.5265  0.4868  0.8558
 3500TIP3   OH231990   3.425   0.029  16.823 -0.3736 -0.0518 -0.6004
 3500TIP3    H131991   3.488   0.008  16.754 -0.9387 -0.7071 -0.9267
 3500TIP3    H231992   3.356   0.078  16.778 -1.0122 -0.9440 -0.6292
 3501TIP3   OH231993   5.200   2.897  16.300 -0.2769 -0.3668 -0.0450
 3501TIP3    H131994   5.250   2.820  16.273  0.3130 -0.1556  0.4171
 3501TIP3    H231995   5.115   2.888  16.256 -1.5404 -3.0557  2.5971
 3502TIP3   OH231996   3.191   4.972   0.984 -0.7105 -0.1370  0.4140
 3502TIP3    H131997   3.204   4.950   1.076 -1.7471 -1.4959  0.2810
 3502TIP3    H231998   3.104   5.011   0.980  0.5713  2.9913  0.4276
 3503TIP3   OH231999   2.202   1.324   2.956 -0.2984 -0.1414 -0.0256
 3503TIP3    H132000   2.187   1.416   2.978  1.5529  0.4531 -1.0909
 3503TIP3    H232001   2.224   1.283   3.039 -1.8241  0.1933  0.5793
 3504TIP3   OH232002   6.737   2.443   1.385 -0.8010 -0.3383  0.1554
 3504TIP3    H132003   6.696   2.507   1.326 -2.1797 -0.5387  0.8576
 3504TIP3    H232004   6.816   2.487   1.416 -0.6586  0.2195 -0.9301
 3505TIP3   OH232005   5.736   0.509  15.715 -0.0097  0.1323 -0.3568
 3505TIP3    H132006   5.781   0.471  15.640 -0.0103 -2.8225  1.0152
 3505TIP3    H232007   5.643   0.508  15.690  0.1879  1.8793 -1.3571
 3506TIP3   OH232008   0.321   6.096   0.934 -0.5207  0.7750 -0.1825
 3506TIP3    H132009   0.378   6.127   1.004  1.3196  0.3428 -1.4187
 3506TIP3    H232010   0.314   6.171   0.874  0.1807  0.2967 -0.8868
 3507TIP3   OH232011   3.973   5.285   1.128  0.3120  0.1950 -0.2568
 3507TIP3    H132012   4.006   5.198   1.152 -1.6999  0.0258  2.4486
 3507TIP3    H232013   3.884   5.287   1.164  0.4182  3.4937  0.1055
 3508TIP3   OH232014   5.096   5.725   2.485  0.3462  0.3288 -0.7043
 3508TIP3    H132015   5.188   5.749   2.471  0.2977  0.6128 -0.5302
 3508TIP3    H232016   5.090   5.709   2.579  0.3286 -0.1573 -0.7867
 3509TIP3   OH232017   2.500   2.137   0.154 -0.3637 -0.5745 -0.2248
 3509TIP3    H132018   2.509   2.163   0.062  1.7285  0.2877  0.1510
 3509TIP3    H232019   2.590   2.115   0.181 -0.5227  1.3420  2.1997
 3510TIP3   OH232020   3.108   2.299   1.835 -0.2180  0.1330  0.1164
 3510TIP3    H132021   3.089   2.213   1.871 -1.3139  1.3436  2.6624
 3510TIP3    H232022   3.114   2.285   1.741  0.3197 -2.8161  0.4982
 3511TIP3   OH232023   2.877   2.677  16.366  0.3463 -0.0548  0.1980
 3511TIP3    H132024   2.946   2.626  16.322 -0.2971 -0.1377 -0.7357
 3511TIP3    H232025   2.798   2.625  16.354 -0.2845  1.0577 -0.5899
 3512TIP3   OH232026   0.469   4.807   3.043 -0.1129  0.4631 -0.3463
 3512TIP3    H132027   0.555   4.818   3.003 -0.6023  1.6336 -1.1078
 3512TIP3    H232028   0.425   4.891   3.029 -0.7708  0.4770  1.5284
 3513TIP3   OH232029   2.932   1.878   0.005  0.8755 -0.0071 -0.4174
 3513TIP3    H132030   3.005   1.818  -0.003  1.3833  0.5190  0.0947
 3513TIP3    H232031   2.963   1.959  -0.037  1.1024  0.6348  0.9166
 3514TIP3   OH232032   3.899   1.541   1.405  0.3280 -0.1043 -0.5548
 3514TIP3    H132033   3.908   1.469   1.342  0.0849  1.2853 -2.2396
 3514TIP3    H232034   3.986   1.550   1.444  0.0312 -2.2238  0.8103
 3515TIP3   OH232035   4.980   6.108   3.460 -0.0786  0.1382 -0.4149
 3515TIP3    H132036   4.954   6.028   3.414  0.1308  0.3756 -0.9543
 3515TIP3    H232037   5.072   6.094   3.482 -0.4777 -0.4654  0.9963
 3516TIP3   OH232038   5.759   6.266   1.808 -0.6607  0.1722 -0.5302
 3516TIP3    H132039   5.844   6.306   1.789 -0.3342 -1.2008 -2.2153
 3516TIP3    H232040   5.704   6.339   1.838  0.5746  1.4211 -1.2048
 3517TIP3   OH232041   0.483   3.778   5.707  0.3538 -0.1321  0.2569
 3517TIP3    H132042   0.455   3.742   5.791 -1.2292  0.1251 -0.1453
 3517TIP3    H232043   0.408   3.826   5.674  1.2808  0.6251 -0.8565
 3518TIP3   OH232044   4.782   1.327  16.802  0.2145  0.2232  0.0006
 3518TIP3    H132045   4.728   1.274  16.744  0.2766  1.7141 -1.4962
 3518TIP3    H232046   4.842   1.265  16.843  0.9356 -0.7879 -2.4031
 3519TIP3   OH232047   2.252   4.636  13.077 -0.1667  0.6068 -0.5806
 3519TIP3    H132048   2.203   4.649  12.996 -1.0059  0.3859 -0.1229
 3519TIP3    H232049   2.343   4.625  13.049 -0.5836 -0.4598 -1.5785
 3520TIP3   OH232050   2.140   3.315  16.164 -0.3015 -0.7713  0.3135
 3520TIP3    H132051   2.206   3.375  16.199 -0.5699 -0.0481 -0.3939
 3520TIP3    H232052   2.058   3.363  16.167 -0.9215 -1.8496  1.6503
 3521TIP3   OH232053   5.871   1.761  12.730 -0.8565 -0.1206 -0.6093
 3521TIP3    H132054   5.940   1.695  12.725 -0.7983  0.0016 -1.6931
 3521TIP3    H232055   5.918   1.844  12.740 -0.7594  0.0648 -2.2272
 3522TIP3   OH232056   0.250   4.831  16.504  0.0994 -0.3178 -0.7920
 3522TIP3    H132057   0.289   4.918  16.496 -1.7133  0.6443  0.1674
 3522TIP3    H232058   0.209   4.815  16.420 -1.1453  0.5982 -0.3792
 3523TIP3   OH232059   3.317   5.705  13.160 -0.0175 -0.7394 -0.3331
 3523TIP3    H132060   3.328   5.778  13.099 -1.4263 -0.2174 -0.0077
 3523TIP3    H232061   3.283   5.746  13.240 -1.1472 -1.7972 -0.2542
 3524TIP3   OH232062   1.459   3.208  12.477  0.0236 -0.0601 -0.0927
 3524TIP3    H132063   1.466   3.297  12.513  1.6772  0.3126 -1.2419
 3524TIP3    H232064   1.398   3.163  12.537 -2.2317  2.2880 -0.4509
 3525TIP3   OH232065   5.337   5.161  15.271  0.1879 -0.0370 -0.3532
 3525TIP3    H132066   5.339   5.192  15.180  0.9970  0.1344 -0.2828
 3525TIP3    H232067   5.428   5.144  15.292 -0.1379 -1.7052 -0.1298
 3526TIP3   OH232068   0.848   1.009   4.657 -0.5245 -0.2161 -0.2123
 3526TIP3    H132069   0.898   1.089   4.638  0.5273 -0.6631  0.5562
 3526TIP3    H232070   0.796   1.031   4.734 -0.7209 -0.0758 -0.3842
 3527TIP3   OH232071   2.268   5.964  14.656  0.5728 -0.2872 -0.4455
 3527TIP3    H132072   2.321   6.043  14.666 -1.4255  1.3609 -1.8699
 3527TIP3    H232073   2.211   5.963  14.733  2.0736 -1.6499  0.7089
 3528TIP3   OH232074   0.049   4.646  16.241  0.2328 -0.1163 -0.2161
 3528TIP3    H132075   0.043   4.696  16.159 -2.6432 -0.4201 -0.3147
 3528TIP3    H232076  -0.003   4.697  16.303  0.8139 -0.8421  0.8805
 3529TIP3   OH232077   0.307   5.089  13.036  0.4400  0.2803  0.1626
 3529TIP3    H132078   0.267   5.076  13.122 -2.5074 -2.6253 -1.4079
 3529TIP3    H232079   0.270   5.172  13.005  0.7429  0.8401  1.2450
 3530TIP3   OH232080   2.487   4.944   3.112 -0.1728 -0.2654 -0.4578
 3530TIP3    H132081   2.406   4.892   3.107 -0.7626  0.6740 -0.9325
 3530TIP3    H232082   2.511   4.959   3.020  0.0228  0.2335 -0.3267
 3531TIP3   OH232083   2.186   5.139   4.643  0.3221 -0.4878  0.1795
 3531TIP3    H132084   2.263   5.110   4.594  2.1713  2.3658  1.1367
 3531TIP3    H232085   2.112   5.096   4.599  2.1668 -1.0547 -2.6659
 3532TIP3   OH232086   4.686   1.242   5.014 -0.3608 -0.0958 -0.5693
 3532TIP3    H132087   4.618   1.191   5.058 -0.2356  1.1774  1.2565
 3532TIP3    H232088   4.727   1.181   4.954 -1.8940 -1.4024 -0.3759
 3533TIP3   OH232089   2.941   0.675   1.689 -0.1398 -0.3443  0.1382
 3533TIP3    H132090   2.937   0.710   1.778  2.5318  2.8402 -0.7775
 3533TIP3    H232091   3.034   0.654   1.676 -0.6297 -1.6708 -1.6179
 3534TIP3   OH232092   0.699   0.563  12.575 -0.0730  0.3568 -0.1986
 3534TIP3    H132093   0.652   0.551  12.658 -0.6000 -0.7013 -0.6309
 3534TIP3    H232094   0.787   0.528  12.591 -0.7059 -1.5394 -0.5723
 3535TIP3   OH232095   5.576   2.573  15.356 -0.0248  0.8014  0.2716
 3535TIP3    H132096   5.659   2.553  15.313 -0.5772  0.5215 -0.7075
 3535TIP3    H232097   5.527   2.491  15.353 -0.4514  1.0400  0.5759
 3536TIP3   OH232098   1.301   0.411   1.846  0.4969 -0.5465  0.4474
 3536TIP3    H132099   1.386   0.438   1.811 -0.0784 -1.4269 -1.7721
 3536TIP3    H232100   1.303   0.315   1.843 -0.3853 -0.5846  0.8842
 3537TIP3   OH232101   6.308   0.602  12.848 -0.2116 -0.2889  0.4233
 3537TIP3    H132102   6.237   0.567  12.795 -0.8271  1.2358  0.2205
 3537TIP3    H232103   6.371   0.636  12.785 -0.4749  0.6112  0.6315
 3538TIP3   OH232104   5.005   1.158  11.282 -0.3635  0.2619  0.2537
 3538TIP3    H132105   5.076   1.222  11.276 -0.8566  0.7032 -1.2823
 3538TIP3    H232106   4.946   1.181  11.210 -2.0686 -0.0976  1.4698
 3539TIP3   OH232107   3.926   6.118   2.599  0.6150  0.5135  0.0005
 3539TIP3    H132108   3.936   6.212   2.581  1.9151  0.6321  1.1900
 3539TIP3    H232109   4.009   6.079   2.570  0.7050 -0.0339  0.9678
 3540TIP3   OH232110   6.219   5.398  15.074 -0.5581  0.3884 -0.0766
 3540TIP3    H132111   6.197   5.358  14.989  1.3220  0.3780 -0.6000
 3540TIP3    H232112   6.249   5.486  15.052 -0.0156  0.3704  0.5579
 3541TIP3   OH232113   6.346   1.819   5.213  0.7556  0.2089  0.0321
 3541TIP3    H132114   6.267   1.842   5.261 -0.4717  0.6079 -2.0474
 3541TIP3    H232115   6.352   1.885   5.144  2.4485 -0.3002 -0.3577
 3542TIP3   OH232116   1.967   1.453  13.186 -0.5201 -0.0907 -0.1487
 3542TIP3    H132117   2.022   1.500  13.123  0.2694 -0.1830  0.4748
 3542TIP3    H232118   1.883   1.442  13.140 -0.0224  0.0310 -1.1028
 3543TIP3   OH232119   5.496   1.497   0.003  0.0207  0.4933  0.0717
 3543TIP3    H132120   5.591   1.495  -0.006  0.1164  1.7269  0.6391
 3543TIP3    H232121   5.465   1.543  -0.076 -0.2847 -1.4815 -1.0378
 3544TIP3   OH232122   1.397   2.553  10.894 -0.3818  0.2061 -0.3365
 3544TIP3    H132123   1.329   2.495  10.858 -0.9584  0.1349  0.8160
 3544TIP3    H232124   1.438   2.592  10.817 -1.1309 -0.4325 -1.0865
 3545TIP3   OH232125   0.122   2.173   2.871 -0.4494  0.4203  0.1593
 3545TIP3    H132126   0.160   2.261   2.868 -0.4413  0.4685  1.2788
 3545TIP3    H232127   0.127   2.142   2.780  2.8495  0.1869  0.2725
 3546TIP3   OH232128   1.485   5.766   4.804 -0.2469  0.1769  0.7659
 3546TIP3    H132129   1.502   5.770   4.710  0.4618 -2.4054  0.6985
 3546TIP3    H232130   1.414   5.828   4.819 -0.5668  0.4271 -1.5325
 3547TIP3   OH232131   3.410   1.777   3.215 -0.2051  0.5011 -0.8824
 3547TIP3    H132132   3.365   1.810   3.293 -0.3163 -0.2355 -0.6238
 3547TIP3    H232133   3.499   1.811   3.223  0.0318 -0.2845  0.0391
 3548TIP3   OH232134   3.867   1.641   3.111  0.1339  0.4324  0.4054
 3548TIP3    H132135   3.890   1.630   3.203 -0.6139 -0.9664  0.4420
 3548TIP3    H232136   3.949   1.668   3.069  0.9228 -0.6781  1.1695
 3549TIP3   OH232137   0.281   5.622   0.801 -0.3565  0.3810  0.2663
 3549TIP3    H132138   0.327   5.697   0.762  0.6191 -1.3257 -2.0601
 3549TIP3    H232139   0.342   5.589   0.868  1.1206 -0.7768 -1.5610
 3550TIP3   OH232140   3.771   6.358  17.102 -0.1679  0.0022 -0.3619
 3550TIP3    H132141   3.838   6.371  17.035 -0.4252  1.3220 -0.3861
 3550TIP3    H232142   3.820   6.327  17.178  0.4779  0.8200 -0.4202
 3551TIP3   OH232143   0.490   1.459   4.875  0.4556 -0.4988 -0.0038
 3551TIP3    H132144   0.460   1.536   4.924  0.9463 -0.6485  0.5436
 3551TIP3    H232145   0.523   1.496   4.793 -0.2375 -0.2317 -0.1770
 3552TIP3   OH232146   6.104   1.836  11.836  0.0640 -0.0082 -0.5922
 3552TIP3    H132147   6.111   1.929  11.816 -0.5519  0.3591  0.8249
 3552TIP3    H232148   6.032   1.830  11.899 -1.0002 -1.6416 -1.8883
 3553TIP3   OH232149   4.908   1.656  16.027 -0.4135 -0.9691  0.4946
 3553TIP3    H132150   4.976   1.698  16.079 -2.5118  1.6836  1.3286
 3553TIP3    H232151   4.843   1.628  16.090 -0.9798 -1.7297 -0.4034
 3554TIP3   OH232152   2.824   3.320  14.674 -0.2622  0.0432 -0.3861
 3554TIP3    H132153   2.901   3.263  14.671  0.0832  0.5288 -0.7994
 3554TIP3    H232154   2.775   3.299  14.594 -0.3886 -0.0150 -0.2956
 3555TIP3   OH232155   6.067   3.008   2.459 -0.1020 -0.0262  0.1505
 3555TIP3    H132156   6.055   3.101   2.482 -0.1707  0.0171 -0.0547
 3555TIP3    H232157   6.159   3.001   2.434 -0.5106  0.3967 -1.6382
 3556TIP3   OH232158   5.199   4.463   0.354 -1.2120 -0.4709  0.5346
 3556TIP3    H132159   5.227   4.455   0.263  0.9957  1.2591  0.9746
 3556TIP3    H232160   5.115   4.508   0.350  0.0709  1.9908 -0.6299
 3557TIP3   OH232161   6.274   4.434  12.008  0.0481  0.5522  0.1394
 3557TIP3    H132162   6.291   4.465  12.096  1.0529 -0.1443  0.2081
 3557TIP3    H232163   6.189   4.472  11.985  0.6511  2.3001  0.6664
 3558TIP3   OH232164   1.902   5.093   3.627 -0.0644 -0.5311 -0.3386
 3558TIP3    H132165   1.866   5.119   3.712  1.1227 -1.7497  0.5882
 3558TIP3    H232166   1.903   5.174   3.576  0.9843  0.7059  1.4863
 3559TIP3   OH232167   4.043   1.360  12.143 -0.0889 -0.0130 -0.0436
 3559TIP3    H132168   4.118   1.387  12.196  0.2727  0.3761 -0.7351
 3559TIP3    H232169   3.974   1.341  12.206  0.3470  0.3985  0.5665
 3560TIP3   OH232170   3.079   1.061  13.473  0.0310 -0.2488 -0.2305
 3560TIP3    H132171   3.015   1.046  13.403 -0.9102  1.1473  0.2772
 3560TIP3    H232172   3.152   1.106  13.431  0.6496 -1.7007 -0.7824
 3561TIP3   OH232173   4.934   2.935   4.421 -0.5823 -0.5172  0.0690
 3561TIP3    H132174   4.868   2.881   4.464 -1.2707  0.0833 -0.2174
 3561TIP3    H232175   4.974   2.876   4.357  0.2497 -1.3316  1.3006
 3562TIP3   OH232176   1.364   6.583   3.640 -0.5465 -0.0777 -0.0955
 3562TIP3    H132177   1.431   6.625   3.586  0.1932 -0.4496  0.5089
 3562TIP3    H232178   1.282   6.622   3.611  0.0097  0.9935 -0.2957
 3563TIP3   OH232179   1.377   4.679   0.640  0.2488  0.0552  0.3009
 3563TIP3    H132180   1.421   4.643   0.562  0.1608  0.9153 -0.1589
 3563TIP3    H232181   1.448   4.691   0.703  0.7947  1.8131 -0.5761
 3564TIP3   OH232182   1.043   2.984   3.381 -0.4353  0.1067 -0.4201
 3564TIP3    H132183   1.048   3.062   3.436  0.6605  0.8624 -1.5499
 3564TIP3    H232184   0.961   2.995   3.332  0.0521  0.9499 -1.0972
 3565TIP3   OH232185   3.279   4.918  12.070  0.0438  0.5670  0.7068
 3565TIP3    H132186   3.222   4.874  12.134  0.6502 -1.4423 -0.0437
 3565TIP3    H232187   3.363   4.873  12.079  0.3658  0.8112 -0.9116
 3566TIP3   OH232188   4.788   0.072   2.859  0.2025  0.2296 -0.4590
 3566TIP3    H132189   4.781   0.024   2.941  0.7260 -0.7716 -0.9867
 3566TIP3    H232190   4.698   0.080   2.828 -0.0461  0.9867  0.3993
 3567TIP3   OH232191   3.188   4.980  11.635  0.1461  0.0945 -0.0319
 3567TIP3    H132192   3.255   5.003  11.571  0.0632  1.9969  0.5100
 3567TIP3    H232193   3.115   4.948  11.582 -0.1849  2.2668 -1.0104
 3568TIP3   OH232194   1.071   0.057   4.656  0.5267 -0.1439  0.4302
 3568TIP3    H132195   1.128  -0.020   4.660  0.1593 -0.4488 -0.0142
 3568TIP3    H232196   1.071   0.082   4.563  0.2243  0.0690  0.4863
 3569TIP3   OH232197   3.995   6.646   3.776 -0.1394  0.1508  0.1357
 3569TIP3    H132198   3.964   6.713   3.715  0.4183 -1.4331 -2.0120
 3569TIP3    H232199   3.916   6.600   3.804 -0.3776  0.7140  0.3850
 3570TIP3   OH232200   0.735   1.258   5.625 -0.6893 -0.0713 -0.3304
 3570TIP3    H132201   0.661   1.299   5.671 -0.2495  0.1713  0.1760
 3570TIP3    H232202   0.799   1.242   5.694  1.0634  2.6679 -1.1872
 3571TIP3   OH232203   1.510   4.866   4.704  0.0357 -0.2149 -0.0060
 3571TIP3    H132204   1.503   4.791   4.764  4.1755 -0.8607 -0.0402
 3571TIP3    H232205   1.531   4.940   4.761  1.7764 -0.3781 -0.3736
 3572TIP3   OH232206   5.542   5.227   0.241 -0.0684 -0.1409  0.4446
 3572TIP3    H132207   5.466   5.206   0.187 -0.6180  0.1525  1.0934
 3572TIP3    H232208   5.544   5.158   0.307  1.8114 -1.7148 -1.0959
 3573TIP3   OH232209   6.646   5.199   3.327  0.4315 -0.2796  0.6947
 3573TIP3    H132210   6.718   5.137   3.314 -0.1539 -1.1997  1.6807
 3573TIP3    H232211   6.636   5.204   3.422  1.9465  3.1211  0.8302
 3574TIP3   OH232212   0.947   5.505  11.692  0.4027  0.2258 -0.0431
 3574TIP3    H132213   1.012   5.452  11.738  0.4278  0.6584  0.4164
 3574TIP3    H232214   0.874   5.445  11.677  0.8591 -0.2362 -0.4812
 3575TIP3   OH232215   5.124   3.029  13.864  0.2995  0.3044 -0.1862
 3575TIP3    H132216   5.093   2.939  13.873 -0.2733  0.5226  0.0650
 3575TIP3    H232217   5.154   3.035  13.774 -0.9965  0.2680 -0.6357
 3576TIP3   OH232218   4.439   6.120   2.784 -0.3517  0.1398  0.2653
 3576TIP3    H132219   4.423   6.212   2.804 -0.4056 -0.0786  1.2958
 3576TIP3    H232220   4.420   6.074   2.866  0.4679 -0.7024  0.0005
 3577TIP3   OH232221   5.261   0.811  14.394 -0.1832  0.2267 -0.0109
 3577TIP3    H132222   5.206   0.735  14.410  0.6395 -0.4721 -0.4289
 3577TIP3    H232223   5.262   0.858  14.477  0.2985 -0.8797  0.6323
 3578TIP3   OH232224   1.492   1.716   1.916 -0.1398  0.0615  0.2338
 3578TIP3    H132225   1.517   1.791   1.862 -0.5333  1.2836  1.6827
 3578TIP3    H232226   1.405   1.691   1.885  1.4302 -2.3866 -2.8875
 3579TIP3   OH232227   5.642   0.391   1.717 -0.1194  0.5390  0.1714
 3579TIP3    H132228   5.644   0.480   1.683 -2.9592  1.0311  0.9993
 3579TIP3    H232229   5.576   0.394   1.787 -1.7733 -2.5921 -1.0481
 3580TIP3   OH232230   0.118   5.122  13.317  0.1085 -0.5594 -0.3175
 3580TIP3    H132231   0.028   5.104  13.344  0.3257  0.1757  0.9503
 3580TIP3    H232232   0.113   5.205  13.270 -0.2560 -1.7970 -2.5996
 3581TIP3   OH232233   4.518   1.842   2.153  0.4817 -0.4491 -0.0505
 3581TIP3    H132234   4.606   1.866   2.182 -0.0953  1.0572  0.5596
 3581TIP3    H232235   4.472   1.925   2.142 -0.8161 -1.1926 -0.5459
 3582TIP3   OH232236   6.734   2.319   5.363  0.0662  0.2176 -0.5445
 3582TIP3    H132237   6.656   2.277   5.325 -0.8167  2.0044 -0.8147
 3582TIP3    H232238   6.799   2.317   5.293 -0.4076  0.4383 -0.9977
 3583TIP3   OH232239   1.205   3.064   6.080 -0.2300  0.4073  0.3449
 3583TIP3    H132240   1.173   3.019   6.159  2.3876 -1.4118  0.5283
 3583TIP3    H232241   1.161   3.020   6.008  0.9637 -1.3766  0.6284
 3584TIP3   OH232242   1.483   5.139  13.718 -0.3413 -0.4402 -0.0259
 3584TIP3    H132243   1.459   5.201  13.787  1.4184  0.5373 -0.2106
 3584TIP3    H232244   1.473   5.053  13.758 -1.1992  0.0257  0.7996
 3585TIP3   OH232245   6.550   5.850   2.969  0.7417 -0.8194  0.4265
 3585TIP3    H132246   6.624   5.872   3.026  1.3951 -1.6034 -0.1115
 3585TIP3    H232247   6.590   5.811   2.892 -0.2114 -0.7642 -0.1033
 3586TIP3   OH232248   3.786   3.925  11.075  0.0819 -0.1574  0.3394
 3586TIP3    H132249   3.756   3.925  10.984 -1.5352  1.3820  0.8093
 3586TIP3    H232250   3.774   4.015  11.104  0.5153 -0.6341  2.0939
 3587TIP3   OH232251   5.663   2.485   5.907 -0.2665 -0.2178  0.1403
 3587TIP3    H132252   5.708   2.536   5.839 -0.6532 -0.5572 -0.3868
 3587TIP3    H232253   5.636   2.550   5.972 -0.7298  0.2585 -0.5097
 3588TIP3   OH232254   3.387   4.364   5.655  0.1943  0.0453  0.2115
 3588TIP3    H132255   3.324   4.292   5.650 -0.6512  0.5136  2.7704
 3588TIP3    H232256   3.346   4.435   5.606 -0.5938 -0.1391  0.5872
 3589TIP3   OH232257   5.000   0.012   6.665 -0.0983 -0.1186  0.1333
 3589TIP3    H132258   4.915  -0.002   6.622  1.3332 -1.6961 -2.4701
 3589TIP3    H232259   5.023   0.102   6.644 -0.6391 -0.0353 -0.1336
 3590TIP3   OH232260   3.983   5.489   3.066 -0.6026 -0.2758 -0.2820
 3590TIP3    H132261   3.961   5.581   3.052 -1.1866 -0.3750 -0.0365
 3590TIP3    H232262   4.003   5.484   3.159  0.5971 -0.1644 -0.5213
 3591TIP3   OH232263   3.219   3.146   3.112  0.0910 -0.5961  0.4124
 3591TIP3    H132264   3.262   3.063   3.092  1.7605  0.2500  0.2851
 3591TIP3    H232265   3.168   3.129   3.191 -1.9286 -2.4561 -1.1440
 3592TIP3   OH232266   2.358   5.282  11.218  0.4243  0.8326 -0.6587
 3592TIP3    H132267   2.440   5.324  11.191  0.5955  0.9431  0.0164
 3592TIP3    H232268   2.332   5.329  11.297 -0.1617  0.6310 -0.7285
 3593TIP3   OH232269   0.399   0.996   5.658  0.3399 -0.0369  0.1330
 3593TIP3    H132270   0.492   0.980   5.673  0.4617 -1.8065 -1.9537
 3593TIP3    H232271   0.392   1.091   5.647  1.5839  0.3047  1.9216
 3594TIP3   OH232272   0.777   2.572   1.291  0.2996  0.4508 -0.0811
 3594TIP3    H132273   0.776   2.548   1.384  0.4938  2.0633  0.3735
 3594TIP3    H232274   0.759   2.666   1.291 -0.0169  0.4065 -1.7103
 3595TIP3   OH232275   4.222   4.433  16.186 -0.0660 -0.9380  0.4603
 3595TIP3    H132276   4.140   4.397  16.150 -1.4845 -0.4144  2.9336
 3595TIP3    H232277   4.209   4.528  16.186  0.6602 -0.8316  0.6172
 3596TIP3   OH232278   1.618   3.515   6.302  0.2789 -0.2468  0.0025
 3596TIP3    H132279   1.551   3.571   6.341  0.4987 -0.5242  0.8071
 3596TIP3    H232280   1.612   3.434   6.351  0.5961 -0.5957 -0.5327
 3597TIP3   OH232281   3.963   6.066  14.050 -0.0299  0.4810 -0.0020
 3597TIP3    H132282   4.016   6.005  14.001 -1.7089 -1.5577  0.5641
 3597TIP3    H232283   3.914   6.114  13.984  0.4297  0.3792 -0.4200
 3598TIP3   OH232284   6.514   1.621   3.481  0.9847  0.0775 -0.0503
 3598TIP3    H132285   6.473   1.619   3.568  2.0922  0.8426  0.5119
 3598TIP3    H232286   6.543   1.712   3.471  1.1285 -0.0773 -1.1016
 3599TIP3   OH232287   4.821   1.075   2.252 -0.0303 -0.4181  0.5910
 3599TIP3    H132288   4.820   1.025   2.171 -0.8484 -0.4671  0.6239
 3599TIP3    H232289   4.853   1.162   2.226 -1.9751  0.1317 -0.1471
 3600TIP3   OH232290   0.121   2.612   3.005  0.1476  1.0834 -0.3839
 3600TIP3    H132291   0.041   2.561   2.994  0.5511  0.4317 -0.3048
 3600TIP3    H232292   0.124   2.667   2.927 -1.2509  2.3517  0.3971
 3601TIP3   OH232293   5.570   4.377   1.849  0.0435 -0.0671 -0.0582
 3601TIP3    H132294   5.584   4.411   1.938 -1.6887  1.0104 -0.1470
 3601TIP3    H232295   5.501   4.432   1.813  0.9087 -0.2745 -2.2183
 3602TIP3   OH232296   3.333   5.766   4.128 -0.0601  0.4542 -0.5980
 3602TIP3    H132297   3.295   5.754   4.041  0.8338  0.5651 -1.0213
 3602TIP3    H232298   3.281   5.710   4.185 -0.1720 -0.2241 -1.3413
 3603TIP3   OH232299   1.603   6.743  14.436  0.4553  1.0527  0.1023
 3603TIP3    H132300   1.640   6.780  14.356  0.1400  2.7021  0.6988
 3603TIP3    H232301   1.678   6.725  14.492  0.9100 -2.1653 -1.3004
 3604TIP3   OH232302   0.145   0.205   6.038  0.0620  0.2797  0.2891
 3604TIP3    H132303   0.161   0.220   6.131 -1.2767  0.6527  0.4765
 3604TIP3    H232304   0.135   0.293   6.001  1.8286  0.2024 -0.4720
 3605TIP3   OH232305   0.622   6.627   1.342  0.4971  0.1374 -0.5787
 3605TIP3    H132306   0.578   6.550   1.377 -0.9104  0.5284 -1.3920
 3605TIP3    H232307   0.689   6.593   1.283  2.3878 -0.5083  1.7879
 3606TIP3   OH232308   1.808   1.528  12.778 -0.2652 -0.0644  0.2470
 3606TIP3    H132309   1.763   1.595  12.728  0.3909  0.0455 -0.2104
 3606TIP3    H232310   1.804   1.449  12.724  0.7423  0.1416 -0.1598
 3607TIP3   OH232311   5.106   6.704   0.432 -0.3158 -0.0218  0.5655
 3607TIP3    H132312   5.192   6.744   0.415  0.2395 -1.5103 -0.3171
 3607TIP3    H232313   5.127   6.617   0.467 -1.4035 -1.1817 -1.4951
 3608TIP3   OH232314   5.764   0.914  11.545 -1.0153  0.0347  0.2804
 3608TIP3    H132315   5.832   0.968  11.586 -0.9608  0.2717 -0.1170
 3608TIP3    H232316   5.811   0.836  11.516 -1.1140 -0.2854  0.9510
 3609TIP3   OH232317   0.500   4.957   1.773  0.1215 -0.0439 -0.1597
 3609TIP3    H132318   0.489   4.867   1.742  2.3462 -0.7304  0.8060
 3609TIP3    H232319   0.554   4.999   1.707  0.8516 -0.0784  0.4001
 3610TIP3   OH232320   4.163   0.804  11.658 -0.0767 -0.1764  0.1374
 3610TIP3    H132321   4.244   0.823  11.705 -0.5601  2.0875  0.1519
 3610TIP3    H232322   4.179   0.720  11.616  2.4875  0.4504 -0.3024
 3611TIP3   OH232323   1.351   6.197  12.630  0.1922  0.0133 -0.4984
 3611TIP3    H132324   1.292   6.124  12.615  0.7395 -0.6905  0.6625
 3611TIP3    H232325   1.403   6.203  12.550  0.3019 -1.0111 -0.5089
 3612TIP3   OH232326   4.093   1.282   2.080  0.3531  0.0704 -0.5256
 3612TIP3    H132327   4.149   1.262   2.155  0.6123 -0.2513 -0.8020
 3612TIP3    H232328   4.005   1.257   2.109  0.6148 -1.1621 -0.7318
 3613TIP3   OH232329   1.540   4.909  10.667 -0.0475  0.6950 -0.4225
 3613TIP3    H132330   1.558   4.905  10.573  0.8476  1.3247 -0.2842
 3613TIP3    H232331   1.616   4.953  10.704 -0.9499  1.5619  0.4507
 3614TIP3   OH232332   2.511   5.579  12.561 -0.1604 -0.0396 -0.1690
 3614TIP3    H132333   2.547   5.513  12.620 -0.7214  0.3636  0.6389
 3614TIP3    H232334   2.519   5.661  12.609 -0.4291  0.3221 -0.7398
 3615TIP3   OH232335   2.810   2.239  17.024  0.4754 -0.3867  0.2430
 3615TIP3    H132336   2.742   2.200  17.079 -1.3366  0.8426 -1.0179
 3615TIP3    H232337   2.856   2.300  17.082 -1.3967  0.8936  0.4526
 3616TIP3   OH232338   4.857   4.110  15.727 -0.3368  0.4827 -0.0432
 3616TIP3    H132339   4.764   4.121  15.745 -0.3401  0.4302 -0.0262
 3616TIP3    H232340   4.861   4.038  15.664 -0.2214 -0.4579  1.0029
 3617TIP3   OH232341   1.656   2.714  14.891  0.5369  0.1617  0.1404
 3617TIP3    H132342   1.719   2.739  14.959  0.6280 -1.5170  0.7136
 3617TIP3    H232343   1.663   2.784  14.826  2.1369  0.6277  0.7546
 3618TIP3   OH232344   6.511   2.746   3.611 -0.3365  0.7808  0.2302
 3618TIP3    H132345   6.510   2.696   3.529  0.5945 -0.0088  0.6765
 3618TIP3    H232346   6.425   2.788   3.615 -0.0577  1.6517 -1.6369
 3619TIP3   OH232347   6.091   3.506  12.266 -0.6091  0.4147  0.2412
 3619TIP3    H132348   6.051   3.424  12.296  0.6564 -0.4400 -0.3372
 3619TIP3    H232349   6.102   3.495  12.172  0.3309  0.9140  0.2807
 3620TIP3   OH232350   5.959   2.230  15.866  0.2155 -0.3060 -0.3150
 3620TIP3    H132351   6.014   2.154  15.881  0.7280 -0.0481 -0.8480
 3620TIP3    H232352   5.881   2.195  15.822  1.3891 -0.2859 -2.5649
 3621TIP3   OH232353   6.700   1.800  11.708  0.1228  0.6809  0.3029
 3621TIP3    H132354   6.785   1.842  11.695 -0.1167  1.1685  0.2604
 3621TIP3    H232355   6.686   1.750  11.627 -0.8456  2.7942 -0.9273
 3622TIP3   OH232356   6.822   4.316   2.434 -0.5327  0.4054 -0.4485
 3622TIP3    H132357   6.819   4.261   2.356  1.4010  0.2614 -0.4540
 3622TIP3    H232358   6.736   4.359   2.436 -1.5411 -1.4728 -1.2525
 3623TIP3   OH232359   0.308   2.771   0.322 -0.3345  0.2816  0.1167
 3623TIP3    H132360   0.238   2.827   0.357  0.5494  1.0058  0.7810
 3623TIP3    H232361   0.377   2.774   0.389  1.2014  1.2595 -1.4194
 3624TIP3   OH232362   0.809   0.665   5.360 -0.0354  0.5178  0.3321
 3624TIP3    H132363   0.777   0.624   5.440 -1.5914 -1.1916 -1.0911
 3624TIP3    H232364   0.734   0.662   5.300  1.6575 -0.0655 -1.8523
 3625TIP3   OH232365   6.824   3.558   1.402  1.2403 -0.2828 -0.3144
 3625TIP3    H132366   6.872   3.638   1.423  1.3258 -0.2949 -0.4674
 3625TIP3    H232367   6.792   3.572   1.313 -1.8840  1.1615  0.8932
 3626TIP3   OH232368   1.817   2.790   4.345  0.0641 -0.2291 -0.0850
 3626TIP3    H132369   1.849   2.837   4.422 -0.8513  0.0546  0.1355
 3626TIP3    H232370   1.858   2.703   4.351  0.0995 -0.1646  0.6490
 3627TIP3   OH232371   4.735   4.454  14.151  0.7112  0.7885  0.5291
 3627TIP3    H132372   4.756   4.492  14.236 -1.2839 -0.8283  1.8431
 3627TIP3    H232373   4.722   4.361  14.168  2.1714  0.0213 -1.9456
 3628TIP3   OH232374   1.317   5.988  13.643  0.0859  0.0797 -0.0899
 3628TIP3    H132375   1.384   6.026  13.700  0.0497  2.1647 -1.3394
 3628TIP3    H232376   1.357   5.909  13.608 -0.3316 -1.9927  3.6529
 3629TIP3   OH232377   5.498   6.519   0.759 -0.0250 -0.9969  0.4671
 3629TIP3    H132378   5.447   6.439   0.748  1.3880 -1.9609  0.7315
 3629TIP3    H232379   5.589   6.493   0.747  0.4822  0.5674  0.5806
 3630TIP3   OH232380   3.240   1.049   1.059 -0.0862 -0.4843 -0.4137
 3630TIP3    H132381   3.296   1.064   1.135  0.9020 -0.7258 -1.0725
 3630TIP3    H232382   3.246   1.130   1.008 -1.4715  0.0268  0.1974
 3631TIP3   OH232383   1.762   2.901   6.251  0.3057  0.1473  0.3561
 3631TIP3    H132384   1.739   2.861   6.335  1.9378  0.1348  0.8204
 3631TIP3    H232385   1.815   2.835   6.207  1.2081  0.9483  0.2110
 3632TIP3   OH232386   3.616   4.417  13.339 -0.0497  0.0712  0.2691
 3632TIP3    H132387   3.550   4.484  13.320  1.3292  1.5919  0.6579
 3632TIP3    H232388   3.602   4.394  13.431 -0.3839 -0.0367  0.1938
 3633TIP3   OH232389   3.336   2.758  11.258  0.1178 -0.3038 -0.1379
 3633TIP3    H132390   3.269   2.823  11.278  3.4557  3.5413 -0.1319
 3633TIP3    H232391   3.361   2.722  11.344  1.1632  1.7722  0.4903
 3634TIP3   OH232392   0.702   4.566  13.188  0.5114  0.3505 -0.1184
 3634TIP3    H132393   0.614   4.559  13.152  0.9707  0.9752 -1.4237
 3634TIP3    H232394   0.743   4.481  13.169 -0.0545 -0.2695  1.2709
 3635TIP3   OH232395   1.013   4.819  11.990  0.4023  0.2299 -0.6000
 3635TIP3    H132396   0.941   4.760  11.967 -1.0666  1.3321  0.9256
 3635TIP3    H232397   1.092   4.765  11.981 -0.5447 -0.9529 -2.5510
 3636TIP3   OH232398   0.372   4.130   0.994 -0.3976 -0.0401 -0.6832
 3636TIP3    H132399   0.442   4.190   1.020  2.2783 -2.2959 -2.1218
 3636TIP3    H232400   0.360   4.147   0.901 -0.3433 -0.9805 -0.8729
 3637TIP3   OH232401   2.425   0.889  11.209  0.3191 -0.1466 -0.4754
 3637TIP3    H132402   2.463   0.947  11.144  0.8246 -0.3295 -0.3453
 3637TIP3    H232403   2.410   0.807  11.163  0.4446 -0.1980 -0.4239
 3638TIP3   OH232404   6.191   6.021  14.551 -0.0323  0.8012 -0.1931
 3638TIP3    H132405   6.203   6.074  14.630 -0.3293  1.6386 -0.7022
 3638TIP3    H232406   6.099   5.998  14.552  0.1808 -0.0827  0.2484
 3639TIP3   OH232407   0.724   4.313  14.054  0.1438  0.5441 -0.0289
 3639TIP3    H132408   0.633   4.316  14.025  0.4247  0.8278 -0.8935
 3639TIP3    H232409   0.736   4.393  14.104  0.0656  0.7692 -0.3684
 3640TIP3   OH232410   0.326   3.194  13.325 -0.0524  0.0511  0.1671
 3640TIP3    H132411   0.235   3.167  13.332 -0.1168 -0.1351 -1.1624
 3640TIP3    H232412   0.332   3.273  13.378 -1.0769  0.2568 -0.0103
 3641TIP3   OH232413   6.592   0.847   1.002 -0.3216 -0.1864  0.2933
 3641TIP3    H132414   6.629   0.887   1.080  0.6678  0.4377 -0.4775
 3641TIP3    H232415   6.630   0.759   1.000  0.3150  0.0885  0.0686
 3642TIP3   OH232416   3.868   4.658  16.229 -0.3387  0.0251  0.0634
 3642TIP3    H132417   3.920   4.710  16.292 -0.7178 -3.3582  3.5199
 3642TIP3    H232418   3.799   4.718  16.201  0.1542  1.9633  2.5318
 3643TIP3   OH232419   1.440   0.594   1.491  0.2888  0.7655 -0.0997
 3643TIP3    H132420   1.434   0.641   1.574  1.9301 -0.6247  0.8718
 3643TIP3    H232421   1.349   0.583   1.462 -0.2531  2.0027  1.0788
 3644TIP3   OH232422   5.079   6.020  13.960  0.3653 -0.5093  0.4896
 3644TIP3    H132423   5.164   6.054  13.932 -1.0366  0.3090 -3.4521
 3644TIP3    H232424   5.029   6.097  13.986 -0.3872 -0.3709 -1.1967
 3645TIP3   OH232425   6.060   6.817  14.692  0.0601  0.1530  0.3178
 3645TIP3    H132426   6.045   6.822  14.597 -1.9521  0.9526  0.6179
 3645TIP3    H232427   6.083   6.726  14.707 -2.4725 -0.7347 -0.6391
 3646TIP3   OH232428   0.849   0.527  13.309  0.3470 -0.2123  0.0916
 3646TIP3    H132429   0.937   0.506  13.275  0.2527  1.0579 -0.9984
 3646TIP3    H232430   0.791   0.467  13.262  0.2667  1.2518 -1.7910
 3647TIP3   OH232431   1.016   6.463   2.596  0.0379  0.1387  0.2507
 3647TIP3    H132432   1.003   6.550   2.633  0.6608 -0.0336  0.8950
 3647TIP3    H232433   1.055   6.479   2.510  2.0389  0.4782  1.1650
 3648TIP3   OH232434   0.373   2.278  17.112  0.3560  0.2121 -0.8499
 3648TIP3    H132435   0.387   2.322  17.028 -0.3908  1.6136 -0.2882
 3648TIP3    H232436   0.278   2.278  17.124  0.3820 -1.0132 -0.5218
 3649TIP3   OH232437   4.180   1.773  14.005  0.5211 -0.3690 -0.9301
 3649TIP3    H132438   4.179   1.688  14.051 -0.2453  0.2138  0.1837
 3649TIP3    H232439   4.098   1.814  14.030  2.5850  2.4665  1.9665
 3650TIP3   OH232440   3.866   0.313  14.117  0.2289  0.0885  0.1466
 3650TIP3    H132441   3.798   0.290  14.054  1.0357  1.7729 -1.4623
 3650TIP3    H232442   3.929   0.241  14.111  0.8942  0.7478 -2.0036
 3651TIP3   OH232443   1.893   5.607  13.390 -0.6067 -0.1820 -0.4488
 3651TIP3    H132444   1.956   5.612  13.318 -0.2641 -0.2579 -0.1575
 3651TIP3    H232445   1.936   5.550  13.454 -0.9626 -0.2104 -0.2370
 3652TIP3   OH232446   5.748   3.490  11.965 -0.0059 -0.0885  0.0558
 3652TIP3    H132447   5.684   3.466  12.032 -0.3031  0.1619 -0.1387
 3652TIP3    H232448   5.780   3.576  11.992 -2.4286  1.5034 -1.7745
 3653TIP3   OH232449   6.585   2.463  16.850  0.1723 -0.3092 -0.2794
 3653TIP3    H132450   6.568   2.375  16.817  0.6666 -0.3346 -0.4808
 3653TIP3    H232451   6.540   2.521  16.789  0.5337 -0.3870 -0.6222
 3654TIP3   OH232452   3.489   0.245  10.663  0.3427 -0.4378  0.2755
 3654TIP3    H132453   3.421   0.232  10.729  0.3626  0.7784  0.5565
 3654TIP3    H232454   3.451   0.308  10.602  0.9469 -0.3078  0.0258
 3655TIP3   OH232455   6.517   5.892   3.368 -0.5029 -0.7594 -0.1146
 3655TIP3    H132456   6.593   5.931   3.410 -2.0969  0.6847  1.6203
 3655TIP3    H232457   6.536   5.798   3.365  0.5238 -0.6938  2.1366
 3656TIP3   OH232458   3.294   3.305   2.834 -0.2590 -0.4454 -0.3386
 3656TIP3    H132459   3.252   3.297   2.920 -0.5178  1.3312 -0.2719
 3656TIP3    H232460   3.235   3.261   2.774 -0.6363 -0.7137  0.2241
 3657TIP3   OH232461   6.706   2.240   1.767  0.0403  0.7669  0.0520
 3657TIP3    H132462   6.693   2.333   1.748 -1.0227  0.3791 -1.2972
 3657TIP3    H232463   6.618   2.202   1.760  0.8066 -0.7722 -2.0521
 3658TIP3   OH232464   3.037   6.170   6.297  0.1293 -0.3855 -0.2527
 3658TIP3    H132465   3.087   6.090   6.279  1.4648  0.7024 -1.6095
 3658TIP3    H232466   3.098   6.241   6.277 -0.9763  0.9938  1.0554
 3659TIP3   OH232467   4.649   0.687   2.797  0.2028  0.2839 -0.2666
 3659TIP3    H132468   4.576   0.639   2.759 -0.2842  0.4760  0.4077
 3659TIP3    H232469   4.660   0.763   2.740 -0.2604  0.3591 -0.2587
 3660TIP3   OH232470   2.635   3.486   3.579  0.3669  0.0721 -1.2082
 3660TIP3    H132471   2.636   3.580   3.600 -0.2603  0.1714 -1.5803
 3660TIP3    H232472   2.559   3.452   3.627  0.8710 -0.3405 -0.6948
 3661TIP3   OH232473   6.762   2.145   4.354 -0.1564  0.3224  0.0804
 3661TIP3    H132474   6.834   2.114   4.299  0.9567 -1.5264  2.4158
 3661TIP3    H232475   6.694   2.079   4.344 -1.3047  1.6688 -1.5165
 3662TIP3   OH232476   5.520   0.462  10.878  0.0532 -0.5191  0.2802
 3662TIP3    H132477   5.570   0.426  10.805 -2.5126 -0.3375 -1.7105
 3662TIP3    H232478   5.479   0.541  10.842  0.7297  1.0533  2.7275
 3663TIP3   OH232479   5.194   3.667  15.925  0.4888 -0.0581 -0.1122
 3663TIP3    H132480   5.109   3.639  15.890  0.8605 -1.7775  0.2676
 3663TIP3    H232481   5.173   3.709  16.008  0.0080 -0.4958 -0.0057
 3664TIP3   OH232482   2.076   0.165  11.849 -0.7991 -0.2737 -0.3809
 3664TIP3    H132483   2.096   0.071  11.852  2.4190  0.3253  0.4062
 3664TIP3    H232484   2.045   0.180  11.760  1.9016 -1.5891 -1.6504
 3665TIP3   OH232485   4.846   5.832   2.405 -0.2605 -0.3471 -0.0302
 3665TIP3    H132486   4.862   5.869   2.319  1.6663 -0.7800  0.0909
 3665TIP3    H232487   4.932   5.804   2.436 -1.0475 -1.1548  1.6027
 3666TIP3   OH232488   6.560   3.174  13.048 -0.4546  0.3447  0.7056
 3666TIP3    H132489   6.507   3.109  13.000  0.1994 -1.7547  2.6407
 3666TIP3    H232490   6.580   3.131  13.131  2.7419  1.7564  0.7979
 3667TIP3   OH232491   2.776   2.021  15.521  0.3533  0.2185 -0.8562
 3667TIP3    H132492   2.779   1.935  15.563  0.5249  1.4884  1.9798
 3667TIP3    H232493   2.867   2.041  15.500  0.7933  0.9724  1.4773
 3668TIP3   OH232494   3.294   5.848   3.509  0.0106  0.4593  0.3784
 3668TIP3    H132495   3.251   5.838   3.593  0.4693  0.5958  0.6370
 3668TIP3    H232496   3.366   5.909   3.526  1.9485 -1.7445  0.5852
 3669TIP3   OH232497   0.116   4.527   3.693 -0.0467  0.2485 -0.0609
 3669TIP3    H132498   0.044   4.513   3.755  1.4443 -1.8393  1.2909
 3669TIP3    H232499   0.091   4.476   3.616 -0.8249  0.9943 -0.3195
 3670TIP3   OH232500   1.783   0.204   3.394 -0.3925 -0.5260  0.2911
 3670TIP3    H132501   1.758   0.275   3.452  0.7540  1.1709 -1.1974
 3670TIP3    H232502   1.700   0.171   3.359 -0.8925  1.5897 -0.6762
 3671TIP3   OH232503   5.127   2.514  11.469  0.4406 -0.0991  0.9610
 3671TIP3    H132504   5.130   2.549  11.559 -3.4744  0.8760  0.9071
 3671TIP3    H232505   5.068   2.439  11.475  1.0575 -0.7523 -0.6472
 3672TIP3   OH232506   3.439   5.495   6.581  0.7059 -0.2672 -0.3907
 3672TIP3    H132507   3.529   5.526   6.581  0.7355 -0.1082  2.2077
 3672TIP3    H232508   3.401   5.533   6.660 -0.8682 -2.4303 -0.0221
 3673TIP3   OH232509   3.807   6.343   2.742 -0.2549 -0.5496  0.0799
 3673TIP3    H132510   3.810   6.251   2.714 -1.4188 -0.9507  1.1932
 3673TIP3    H232511   3.815   6.393   2.661 -2.5441 -1.6669 -0.9209
 3674TIP3   OH232512   5.442   4.637   4.677  0.9757 -0.4477 -0.2081
 3674TIP3    H132513   5.376   4.695   4.714  0.9728 -0.1671 -0.6513
 3674TIP3    H232514   5.504   4.623   4.749 -1.0135 -3.0213  1.1862
 3675TIP3   OH232515   2.236   5.441   6.690  0.6379  0.2469  0.2542
 3675TIP3    H132516   2.279   5.356   6.694 -0.7667 -0.5203 -0.0663
 3675TIP3    H232517   2.218   5.454   6.597  0.2207  0.5559  0.3759
 3676TIP3   OH232518   0.714   6.413   2.811  0.5374  0.2242  0.0472
 3676TIP3    H132519   0.689   6.496   2.770  0.1505  0.5718  0.9535
 3676TIP3    H232520   0.630   6.373   2.834  0.7314 -0.3281 -0.2132
 3677TIP3   OH232521   1.765   6.125   3.711 -0.2482  0.6774  0.3288
 3677TIP3    H132522   1.780   6.217   3.733  1.3891  0.3801  0.5312
 3677TIP3    H232523   1.832   6.105   3.646 -2.7871  0.5684 -2.5185
 3678TIP3   OH232524   6.339   5.798   0.528  0.0739  0.0206  0.1082
 3678TIP3    H132525   6.290   5.726   0.568 -1.7920  1.3204  0.3246
 3678TIP3    H232526   6.334   5.869   0.592 -0.4981  1.2112 -1.1905
 3679TIP3   OH232527   1.325   0.085  15.829  0.1261 -0.3592  0.3562
 3679TIP3    H132528   1.382   0.025  15.780  0.8734  0.8699 -0.3280
 3679TIP3    H232529   1.259   0.112  15.766  0.7904  0.8373  0.1520
 3680TIP3   OH232530   6.645   5.374   3.811  0.2695 -0.3862  0.8311
 3680TIP3    H132531   6.685   5.458   3.790 -0.6843  0.1022  0.8747
 3680TIP3    H232532   6.648   5.324   3.730  2.1737 -0.8996  1.1759
 3681TIP3   OH232533   3.633   1.689  14.926  0.5791 -0.0187 -0.3670
 3681TIP3    H132534   3.708   1.705  14.869 -0.9280  1.7083 -2.0505
 3681TIP3    H232535   3.617   1.595  14.920  1.4988 -0.1264 -1.4531
 3682TIP3   OH232536   5.734   1.234  16.109 -0.1803 -1.4921  0.2762
 3682TIP3    H132537   5.683   1.273  16.038 -1.0213  1.8761  2.4742
 3682TIP3    H232538   5.670   1.217  16.178  0.7737 -3.6363  0.7312
 3683TIP3   OH232539   2.055   1.143  14.888 -0.0759 -0.0731  0.0930
 3683TIP3    H132540   1.963   1.153  14.913 -0.7694 -1.3727 -1.7741
 3683TIP3    H232541   2.063   1.191  14.806  0.8345 -0.2554  0.0650
 3684TIP3   OH232542   5.981   4.695   2.002  0.4687 -0.1346  0.2977
 3684TIP3    H132543   5.927   4.729   2.074  0.5222  0.6304 -0.0066
 3684TIP3    H232544   6.001   4.605   2.027 -0.2247 -0.1518  0.8311
 3685TIP3   OH232545   4.064   5.503   1.679  0.6153  0.1170  0.2186
 3685TIP3    H132546   4.058   5.548   1.763  0.6694  1.3802 -0.4289
 3685TIP3    H232547   4.151   5.527   1.646 -0.2025  1.4237 -1.1453
 3686TIP3   OH232548   6.284   1.423   2.904 -0.0067  0.6423  0.4198
 3686TIP3    H132549   6.330   1.489   2.852  0.7825 -1.3955 -1.6000
 3686TIP3    H232550   6.353   1.366   2.938 -0.7790 -0.1379  0.7221
 3687TIP3   OH232551   5.388   2.590   5.765 -0.1765  0.8556  0.9565
 3687TIP3    H132552   5.483   2.602   5.767 -0.1316  0.8193 -0.2527
 3687TIP3    H232553   5.367   2.574   5.673 -1.2050 -0.4538  1.3840
 3688TIP3   OH232554   5.414   0.406   0.952  0.5083  0.0918  0.2391
 3688TIP3    H132555   5.352   0.442   1.016  1.5168  1.3888  0.5341
 3688TIP3    H232556   5.465   0.482   0.923  2.6283 -1.0577  0.7506
 3689TIP3   OH232557   1.777   3.195  17.021 -0.0759 -0.2464 -0.3924
 3689TIP3    H132558   1.706   3.251  16.988  0.9019  0.7737 -0.8662
 3689TIP3    H232559   1.771   3.202  17.116  0.2964  1.0797 -0.4383
 3690TIP3   OH232560   1.763   4.372  11.808  0.7093 -0.1347 -0.1363
 3690TIP3    H132561   1.852   4.404  11.794  0.6224  0.3478  0.3801
 3690TIP3    H232562   1.721   4.440  11.860  0.2948 -0.7632  0.3578
 3691TIP3   OH232563   4.246   3.601  14.685  0.6117  0.2125 -0.4684
 3691TIP3    H132564   4.328   3.568  14.648  0.9909  0.4788  0.1295
 3691TIP3    H232565   4.260   3.603  14.779 -0.3911 -0.5624 -0.2812
 3692TIP3   OH232566   3.818   5.529   6.851  0.0999  0.0873 -0.2416
 3692TIP3    H132567   3.756   5.600   6.869  0.3275 -0.0954  1.4438
 3692TIP3    H232568   3.770   5.449   6.872  1.1054 -0.0189  1.9314
 3693TIP3   OH232569   1.429   3.263   1.006  0.4030  0.4915  0.5032
 3693TIP3    H132570   1.464   3.259   0.917 -0.0540 -1.5741  0.3759
 3693TIP3    H232571   1.423   3.172   1.034 -0.5373  1.0405  2.2435
 3694TIP3   OH232572   3.081   1.344  16.389 -0.3769  0.2425  0.2191
 3694TIP3    H132573   3.034   1.330  16.307 -1.1243 -0.7406  0.8007
 3694TIP3    H232574   3.158   1.288  16.383  0.2175  1.0848 -0.3030
 3695TIP3   OH232575   0.210   2.106   6.357  0.4060  0.1929  0.7754
 3695TIP3    H132576   0.293   2.130   6.316 -0.7907  1.7455 -0.8574
 3695TIP3    H232577   0.156   2.073   6.285 -0.6402 -0.1663  1.6933
 3696TIP3   OH232578   3.634   6.631  14.113  0.2206  0.9755 -0.2930
 3696TIP3    H132579   3.632   6.569  14.041 -1.8675 -0.1782  0.6898
 3696TIP3    H232580   3.727   6.656  14.121  0.9111 -0.9980 -1.5521
 3697TIP3   OH232581   0.443   3.262   5.094  0.4168 -0.4380 -0.3776
 3697TIP3    H132582   0.426   3.169   5.076  0.2063 -0.1880 -1.5732
 3697TIP3    H232583   0.370   3.308   5.053 -0.9018  0.1592  2.4070
 3698TIP3   OH232584   4.465   5.527   4.715 -0.2999  0.1150  0.1170
 3698TIP3    H132585   4.408   5.510   4.790 -0.2787 -1.0323 -0.1163
 3698TIP3    H232586   4.529   5.590   4.748 -0.9337  0.4452  0.7471
 3699TIP3   OH232587   1.067   0.524   2.899 -0.1312 -0.5223 -0.8775
 3699TIP3    H132588   1.059   0.432   2.871 -0.0602 -0.3168 -1.5863
 3699TIP3    H232589   1.085   0.572   2.818 -0.4520  0.1552 -0.5512
 3700TIP3   OH232590   2.827   0.612  11.761 -0.2298 -0.2353  0.3847
 3700TIP3    H132591   2.786   0.694  11.732  0.7018  0.2782  0.4888
 3700TIP3    H232592   2.843   0.625  11.854 -0.7603 -0.8388  0.5687
 3701TIP3   OH232593   0.134   3.123  11.356  0.4582 -0.4908  0.0224
 3701TIP3    H132594   0.115   3.111  11.263  1.1779 -1.6810  0.0132
 3701TIP3    H232595   0.094   3.048  11.399 -0.0190  0.1419  0.7064
 3702TIP3   OH232596   2.382   6.354   4.657 -0.3100  0.1605  0.4981
 3702TIP3    H132597   2.408   6.388   4.742  1.1201  0.8909 -0.2005
 3702TIP3    H232598   2.406   6.262   4.659  0.0297  0.2555  0.7543
 3703TIP3   OH232599   3.416   1.838  16.248  0.4484  0.3946 -0.1525
 3703TIP3    H132600   3.439   1.904  16.181 -0.2150 -0.0032 -0.7794
 3703TIP3    H232601   3.331   1.805  16.221 -0.6783  1.4792  1.8693
 3704TIP3   OH232602   2.767   6.358   0.708  0.2461  0.1897  0.5916
 3704TIP3    H132603   2.802   6.400   0.629  1.0369 -2.0074 -0.2992
 3704TIP3    H232604   2.837   6.366   0.773  1.3896 -1.7418 -0.3193
 3705TIP3   OH232605   5.666   0.158  12.782  0.6051 -0.3517  0.5605
 3705TIP3    H132606   5.690   0.195  12.696  1.3288 -1.6087  0.2000
 3705TIP3    H232607   5.585   0.109  12.765  0.3937 -0.0697  0.7459
 3706TIP3   OH232608   1.136   3.658  17.178 -0.3566  0.2078  0.3219
 3706TIP3    H132609   1.092   3.740  17.197  0.4291  1.3948 -2.4701
 3706TIP3    H232610   1.065   3.596  17.160 -0.9361  0.5993  1.2252
 3707TIP3   OH232611   5.556   1.021  11.368 -0.5794  0.0005 -0.0022
 3707TIP3    H132612   5.568   0.932  11.335 -0.4618  0.4691 -1.2654
 3707TIP3    H232613   5.619   1.028  11.440 -0.9080 -1.0813  0.4092
 3708TIP3   OH232614   0.938   0.937   2.452  0.3314 -0.3442  0.0585
 3708TIP3    H132615   0.928   1.018   2.502 -0.3037 -1.1986  1.3533
 3708TIP3    H232616   1.029   0.938   2.424  0.0141  1.4723 -1.1575
 3709TIP3   OH232617   5.182   0.074   6.232  0.1977  0.1220  0.1778
 3709TIP3    H132618   5.163   0.149   6.175  2.8426  1.2495  0.6660
 3709TIP3    H232619   5.242   0.020   6.181  0.0599 -0.5331  0.6944
 3710TIP3   OH232620   4.698   0.762   4.348 -0.0796 -0.3197  0.0749
 3710TIP3    H132621   4.786   0.787   4.319 -0.2471  1.5501  0.9778
 3710TIP3    H232622   4.648   0.844   4.342 -1.6615 -1.2639 -0.0345
 3711TIP3   OH232623   1.667   1.726   2.213 -0.1228 -0.0204  0.3200
 3711TIP3    H132624   1.578   1.728   2.249  0.1677  2.5729  1.0705
 3711TIP3    H232625   1.724   1.713   2.290  0.2232 -0.7960 -0.0504
 3712TIP3   OH232626   2.644   4.058   4.814 -0.5537  0.2731 -0.2749
 3712TIP3    H132627   2.623   4.126   4.751 -0.4419 -0.9225 -1.6473
 3712TIP3    H232628   2.711   4.005   4.771  1.9165  1.2265  2.1042
 3713TIP3   OH232629   4.848   3.401  15.455  0.5569  0.6569  0.0055
 3713TIP3    H132630   4.776   3.349  15.490 -0.5088  1.2878 -1.1628
 3713TIP3    H232631   4.810   3.487  15.438  1.8469  1.3165  0.2884
 3714TIP3   OH232632   6.661   3.554  16.527 -0.6110  0.4859  0.3065
 3714TIP3    H132633   6.669   3.598  16.443  2.3581 -0.0918  0.1747
 3714TIP3    H232634   6.745   3.572  16.571 -0.3925 -2.6169  1.4007
 3715TIP3   OH232635   0.111   1.679   4.041 -0.5728 -0.3585  0.1529
 3715TIP3    H132636   0.177   1.650   3.979  0.1400 -0.1462  0.7942
 3715TIP3    H232637   0.117   1.775   4.040  1.6093 -0.3633  2.7646
 3716TIP3   OH232638   4.486   3.762  15.769  0.4375  0.7141 -0.0185
 3716TIP3    H132639   4.566   3.759  15.821  2.0858  0.4969 -2.3803
 3716TIP3    H232640   4.484   3.678  15.723 -0.4966  1.1910 -0.8965
 3717TIP3   OH232641   3.578   4.577   1.494  0.1460  0.1851 -0.0189
 3717TIP3    H132642   3.671   4.589   1.511  0.3452 -1.3238  0.1136
 3717TIP3    H232643   3.570   4.486   1.467 -1.0082  0.8336 -2.1409
 3718TIP3   OH232644   4.321   6.427   5.703  0.1751 -0.3609 -0.4000
 3718TIP3    H132645   4.252   6.384   5.652  0.1240  0.3708 -0.9714
 3718TIP3    H232646   4.400   6.417   5.650  0.5544 -1.3629  0.3443
 3719TIP3   OH232647   0.160   3.173   5.773 -0.3127  0.2724  0.1649
 3719TIP3    H132648   0.088   3.110   5.771  0.2971 -0.4262 -0.3190
 3719TIP3    H232649   0.150   3.218   5.857 -1.5873  0.5155 -0.1037
 3720TIP3   OH232650   0.997   5.510   1.221  0.2071 -0.3146  0.8558
 3720TIP3    H132651   1.050   5.490   1.298  1.1868  0.6466  0.4608
 3720TIP3    H232652   1.030   5.452   1.152  2.4302  1.8207 -0.0385
 3721TIP3   OH232653   4.581   0.125  16.760  0.4730 -0.1992 -0.1489
 3721TIP3    H132654   4.561   0.039  16.723  0.1070 -0.2808  0.2400
 3721TIP3    H232655   4.598   0.180  16.683 -0.2211 -0.3880 -0.4487
 3722TIP3   OH232656   5.065   4.899   1.779 -0.3134 -0.6981 -0.3744
 3722TIP3    H132657   4.983   4.864   1.744 -0.9284  0.4315 -0.1213
 3722TIP3    H232658   5.105   4.946   1.706  0.1866 -1.3624 -0.5356
 3723TIP3   OH232659   6.183   3.858   1.341  0.3385  0.1719 -0.1471
 3723TIP3    H132660   6.273   3.850   1.308  1.0881  1.0625  1.5343
 3723TIP3    H232661   6.139   3.780   1.309  2.7667 -2.3210  2.0734
 3724TIP3   OH232662   1.002   4.068  15.456 -0.2654 -0.3888 -0.0403
 3724TIP3    H132663   0.945   4.043  15.383  0.8286 -0.1717 -1.0001
 3724TIP3    H232664   1.084   4.020  15.439  1.1230  2.0770 -0.7214
 3725TIP3   OH232665   2.794   0.841  15.320  0.0015  0.2553 -0.0107
 3725TIP3    H132666   2.759   0.786  15.250 -0.8079  0.9682 -0.1926
 3725TIP3    H232667   2.781   0.931  15.288  1.2319  0.5630  0.3029
 3726TIP3   OH232668   2.987   1.881  12.037 -0.4743 -0.8215 -0.0270
 3726TIP3    H132669   2.899   1.896  12.001 -0.3986 -1.8024 -0.6637
 3726TIP3    H232670   3.046   1.902  11.965 -0.1299  0.4559  0.5969
 3727TIP3   OH232671   2.978   3.707  16.318 -0.1285  0.0792 -0.5651
 3727TIP3    H132672   2.926   3.724  16.240 -2.3320  0.9764  0.9999
 3727TIP3    H232673   2.961   3.782  16.376  3.6247  0.8816 -0.2281
 3728TIP3   OH232674   2.493   2.959   1.835  0.2881  0.8817 -0.2726
 3728TIP3    H132675   2.497   2.887   1.772 -1.3641 -1.4093  2.0717
 3728TIP3    H232676   2.581   2.963   1.872  0.0297 -1.0870  0.6795
 3729TIP3   OH232677   2.175   6.150   3.693  0.3732  0.6009  0.0657
 3729TIP3    H132678   2.124   6.197   3.627 -0.1579  0.2612  0.2230
 3729TIP3    H232679   2.137   6.062   3.694 -1.8026  1.4052  3.0048
 3730TIP3   OH232680   1.361   1.257   2.639 -0.8055 -0.1136  0.0518
 3730TIP3    H132681   1.331   1.167   2.647  0.8491 -0.8793 -1.5853
 3730TIP3    H232682   1.335   1.299   2.721 -1.4958 -2.0920  0.8989
 3731TIP3   OH232683   2.579   1.460  16.002 -0.0906 -0.0629 -0.3531
 3731TIP3    H132684   2.672   1.480  16.010 -0.0543  0.3017 -1.4910
 3731TIP3    H232685   2.548   1.452  16.092  0.1729  3.8311  0.2403
 3732TIP3   OH232686   5.432   1.593  10.807 -0.5347 -0.7977 -0.1954
 3732TIP3    H132687   5.337   1.583  10.802 -0.8194  1.5956 -0.6393
 3732TIP3    H232688   5.465   1.543  10.732 -1.5866 -0.2101 -1.0673
 3733TIP3   OH232689   3.682   0.688  11.862  0.7006  0.4205  0.8217
 3733TIP3    H132690   3.609   0.741  11.895 -0.1942 -0.1234 -0.2195
 3733TIP3    H232691   3.754   0.750  11.853  0.2704  1.0466  1.5121
 3734TIP3   OH232692   6.084   1.316  16.816 -0.2108  0.6022 -0.5535
 3734TIP3    H132693   6.018   1.246  16.823 -0.7731  1.2554  1.2379
 3734TIP3    H232694   6.128   1.299  16.733 -0.9704 -1.3212 -0.6147
 3735TIP3   OH232695   6.742   2.199  16.466  0.1884 -0.3509 -0.0638
 3735TIP3    H132696   6.760   2.278  16.415 -0.0039 -1.0624 -1.2727
 3735TIP3    H232697   6.828   2.158  16.478  0.4357  0.5411  1.4638
 3736TIP3   OH232698   0.306   3.724   1.229 -0.0238  0.2439  0.5023
 3736TIP3    H132699   0.293   3.811   1.268 -0.8860 -0.3685  1.6481
 3736TIP3    H232700   0.311   3.741   1.135  1.6297  1.7218  0.8032
 3737TIP3   OH232701   4.568   3.587   6.136 -0.3424 -0.0611 -0.4074
 3737TIP3    H132702   4.615   3.668   6.119 -1.2211  0.8772  1.4015
 3737TIP3    H232703   4.618   3.520   6.089  0.5583  1.4609 -1.7118
 3738TIP3   OH232704   1.050   6.456   1.932  0.5630 -0.4176  0.1353
 3738TIP3    H132705   0.968   6.453   1.981 -0.1738 -0.0600 -1.0309
 3738TIP3    H232706   1.090   6.540   1.957  0.9470 -0.9206  1.2584
 3739TIP3   OH232707   0.980   0.289   5.509  0.1126 -0.1427  0.6362
 3739TIP3    H132708   0.886   0.298   5.527  0.1636 -1.3058  1.6456
 3739TIP3    H232709   1.019   0.278   5.595  0.9809 -1.3158  0.1067
 3740TIP3   OH232710   4.165   1.454  13.570 -0.3042  0.2771 -0.4144
 3740TIP3    H132711   4.149   1.369  13.528  1.2152 -0.1679 -0.1566
 3740TIP3    H232712   4.183   1.433  13.661 -0.8709  0.9823 -0.1311
 3741TIP3   OH232713   5.120   2.771  12.463  0.2080  0.4864 -0.0462
 3741TIP3    H132714   5.028   2.792  12.444  0.3433 -0.4506 -1.9633
 3741TIP3    H232715   5.163   2.856  12.473 -0.8130  0.9385  0.6942
 3742TIP3   OH232716   4.614   1.844   3.180  0.0368 -0.2256 -0.2613
 3742TIP3    H132717   4.561   1.768   3.154  0.0613  0.1093 -1.3755
 3742TIP3    H232718   4.698   1.807   3.206 -1.1349 -0.9031  2.9391
 3743TIP3   OH232719   5.699   3.016  12.883  0.2875 -0.4186 -0.0584
 3743TIP3    H132720   5.746   2.988  12.962  0.0891  1.3172  0.7218
 3743TIP3    H232721   5.612   3.040  12.915 -0.3038 -1.1604 -1.0729
 3744TIP3   OH232722   3.152   3.863   2.046 -0.2987 -0.2121  0.1012
 3744TIP3    H132723   3.094   3.813   2.104 -0.1315 -0.3323  0.1641
 3744TIP3    H232724   3.201   3.921   2.104  0.9007 -1.3441  0.2464
 3745TIP3   OH232725   0.869   0.282  12.517 -0.9637 -0.1042  0.3634
 3745TIP3    H132726   0.795   0.242  12.563  0.3660 -1.9394  1.0746
 3745TIP3    H232727   0.890   0.219  12.448 -0.6670  0.8723 -0.4511
 3746TIP3   OH232728   5.419   5.886  15.342 -0.0701 -0.3809 -0.1403
 3746TIP3    H132729   5.462   5.834  15.409 -0.9867 -0.5095  0.3668
 3746TIP3    H232730   5.378   5.958  15.390 -1.6666 -1.0816 -0.4092
 3747TIP3   OH232731   4.455   6.143   1.619 -0.2148  0.1075 -0.0733
 3747TIP3    H132732   4.522   6.086   1.583 -1.0548 -1.2345  0.4238
 3747TIP3    H232733   4.372   6.096   1.607 -0.9950  1.3979 -0.0255
 3748TIP3   OH232734   3.818   3.125   1.666  0.0327  0.6246  0.3724
 3748TIP3    H132735   3.764   3.180   1.723 -0.4741  0.4664  0.0483
 3748TIP3    H232736   3.758   3.095   1.598  0.3770 -0.1016  0.3892
 3749TIP3   OH232737   6.772   3.348  12.999 -0.0596 -0.4772  0.1721
 3749TIP3    H132738   6.849   3.314  12.952  0.2803 -0.8578  0.9993
 3749TIP3    H232739   6.716   3.272  13.012  0.5018 -0.6703  1.6320
 3750TIP3   OH232740   1.301   1.078  11.159 -0.5732  0.8883 -0.0120
 3750TIP3    H132741   1.295   1.055  11.252  0.4828  1.1259  0.1333
 3750TIP3    H232742   1.308   0.994  11.114 -0.5068  0.7885  0.1820
 3751TIP3   OH232743   4.190   2.613   2.527 -0.5519  0.2870 -0.0282
 3751TIP3    H132744   4.265   2.666   2.555  1.2065 -2.4784  0.8726
 3751TIP3    H232745   4.196   2.611   2.432 -0.7329  1.7027 -0.1000
 3752TIP3   OH232746   1.638   0.477   2.490  0.3292 -0.0261  0.6039
 3752TIP3    H132747   1.715   0.514   2.446  0.6808 -2.4571 -1.0390
 3752TIP3    H232748   1.672   0.440   2.571  0.7091 -0.1218  0.4042
 3753TIP3   OH232749   0.084   2.601  16.055  0.0860 -0.1218  0.0296
 3753TIP3    H132750   0.173   2.566  16.048  0.9887  1.7121  1.3962
 3753TIP3    H232751   0.079   2.668  15.987  1.1300  2.3270  2.1963
 3754TIP3   OH232752   6.543   3.043  10.393  0.5766 -0.4692 -0.5808
 3754TIP3    H132753   6.608   3.106  10.363  1.4112 -0.8947  0.2881
 3754TIP3    H232754   6.594   2.969  10.425 -0.3874 -1.6061 -1.5622
 3755TIP3   OH232755   5.584   3.219   4.298 -0.4263 -0.3834  0.0551
 3755TIP3    H132756   5.501   3.206   4.252  0.2136 -1.2227 -0.8964
 3755TIP3    H232757   5.632   3.282   4.244  0.1353 -0.9999 -0.1685
 3756TIP3   OH232758   3.366   5.072  16.935  0.1647 -0.8567  0.1801
 3756TIP3    H132759   3.299   5.008  16.962 -0.1226 -1.0752 -0.9982
 3756TIP3    H232760   3.361   5.141  17.001  1.0641 -2.4244  1.9789
 3757TIP3   OH232761   1.082   6.322  14.305 -0.3362 -0.3695  0.0204
 3757TIP3    H132762   1.019   6.290  14.370 -0.7119 -1.1782 -0.7103
 3757TIP3    H232763   1.062   6.414  14.294  0.2290 -0.0290  1.5951
 3758TIP3   OH232764   5.721   5.546   1.543 -0.2473  0.3863  0.4119
 3758TIP3    H132765   5.776   5.601   1.598 -0.6615  0.3497  0.8680
 3758TIP3    H232766   5.743   5.573   1.454 -0.3548  1.2076  0.6202
 3759TIP3   OH232767   5.558   0.750  14.414 -0.4292 -0.1041  0.2702
 3759TIP3    H132768   5.499   0.813  14.374  0.6561 -0.5762 -2.2463
 3759TIP3    H232769   5.537   0.667  14.371  1.6549 -0.3827 -0.2949
 3760TIP3   OH232770   1.303   6.391   0.429  0.1532 -0.2217  0.1216
 3760TIP3    H132771   1.364   6.403   0.357  0.0971  2.2150  0.3967
 3760TIP3    H232772   1.354   6.350   0.499  0.6387 -1.0475 -0.7119
 3761TIP3   OH232773   3.732   3.469  14.662 -0.0564  0.2669 -0.1851
 3761TIP3    H132774   3.674   3.409  14.709  1.2834  0.2021  1.5156
 3761TIP3    H232775   3.754   3.537  14.726  1.6460  0.3350 -0.7782
 3762TIP3   OH232776   1.902   6.278  13.419  0.2103 -0.0026 -0.3687
 3762TIP3    H132777   1.906   6.285  13.323  0.8986  0.9992 -0.2754
 3762TIP3    H232778   1.912   6.184  13.436  2.5759  0.0224 -1.1958
 3763TIP3   OH232779   2.264   3.230  16.738 -0.1881 -1.0185  0.7328
 3763TIP3    H132780   2.281   3.142  16.769 -1.5467 -0.5277  3.1236
 3763TIP3    H232781   2.170   3.231  16.720 -0.0507 -0.2556 -0.0147
 3764TIP3   OH232782   4.985   5.466   2.519  0.6136 -0.0881 -0.0321
 3764TIP3    H132783   4.926   5.396   2.491 -0.0906 -0.1709  1.5752
 3764TIP3    H232784   4.942   5.546   2.489  1.6507 -0.2933 -2.2905
 3765TIP3   OH232785   2.627   3.560   5.843  0.6999  0.1363 -0.5997
 3765TIP3    H132786   2.550   3.557   5.900 -0.3259  1.2808 -1.8474
 3765TIP3    H232787   2.591   3.562   5.754  2.0592  2.5158 -1.1824
 3766TIP3   OH232788   6.727   6.715   4.543 -0.9131  0.0195 -0.4780
 3766TIP3    H132789   6.646   6.666   4.560 -1.3016  0.8331  0.0963
 3766TIP3    H232790   6.752   6.689   4.455 -1.0304 -1.3068 -0.1356
 3767TIP3   OH232791   2.871   1.106  12.172 -0.9904  0.2388 -0.0847
 3767TIP3    H132792   2.866   1.196  12.202 -0.4682  0.0417  0.6077
 3767TIP3    H232793   2.857   1.111  12.077 -0.8192  1.0586 -0.0682
 3768TIP3   OH232794   2.170   4.373   3.684  0.4568 -0.4339 -0.3416
 3768TIP3    H132795   2.079   4.346   3.672  0.2682  0.1903 -0.3913
 3768TIP3    H232796   2.177   4.455   3.635  0.9457 -0.2844 -0.0332
 3769TIP3   OH232797   1.223   1.534  14.860 -0.3552 -0.0073  0.4245
 3769TIP3    H132798   1.139   1.578  14.868  0.6952  2.4576 -1.0468
 3769TIP3    H232799   1.212   1.475  14.785 -0.6606  0.6060 -0.0181
 3770TIP3   OH232800   5.035   3.551  16.243  0.1688 -0.3348 -0.3849
 3770TIP3    H132801   5.015   3.645  16.243  0.8107 -0.1904  0.3585
 3770TIP3    H232802   5.128   3.546  16.267  0.0834 -1.1774 -0.1881
 3771TIP3   OH232803   3.633   5.523  10.831 -0.1952  0.1938  0.3051
 3771TIP3    H132804   3.667   5.499  10.917  0.9505 -1.4193 -0.5372
 3771TIP3    H232805   3.654   5.448  10.775 -0.6519  1.3088 -1.4566
 3772TIP3   OH232806   4.259   2.444  14.533 -0.3068  0.3832 -0.3608
 3772TIP3    H132807   4.278   2.421  14.624 -2.5546  0.5197  0.2144
 3772TIP3    H232808   4.200   2.375  14.503 -1.7520  1.7409 -0.7938
 3773TIP3   OH232809   0.264   2.522  11.572 -0.4309  0.5288 -0.3480
 3773TIP3    H132810   0.286   2.518  11.665 -2.1467  0.9538  0.1022
 3773TIP3    H232811   0.336   2.571  11.532  1.2879 -1.2682  0.4024
 3774TIP3   OH232812   4.408   3.954   2.424 -0.4225 -0.2191  0.5283
 3774TIP3    H132813   4.424   4.042   2.459 -1.1880 -0.0452  0.4566
 3774TIP3    H232814   4.354   3.912   2.490 -0.1468 -0.6012  0.5102
 3775TIP3   OH232815   1.566   2.450  13.687  0.0774 -0.2971  0.3325
 3775TIP3    H132816   1.511   2.515  13.643  1.9726  2.0003  1.1020
 3775TIP3    H232817   1.524   2.436  13.771  0.3084  1.0146  0.6946
 3776TIP3   OH232818   0.931   2.512   0.459  0.3620  0.2431 -0.0487
 3776TIP3    H132819   0.902   2.586   0.512  0.1448  0.2464 -0.1706
 3776TIP3    H232820   0.960   2.551   0.377  0.9422  0.2634  0.1609
 3777TIP3   OH232821   0.752   2.820   1.783  0.4663 -0.4718  0.4169
 3777TIP3    H132822   0.705   2.753   1.834  2.3513 -1.1615  1.3541
 3777TIP3    H232823   0.787   2.880   1.849 -0.9713  1.3513 -0.3980
 3778TIP3   OH232824   4.565   5.244   0.125  0.3445  0.2039 -0.7606
 3778TIP3    H132825   4.651   5.271   0.095 -0.5133  0.9078 -2.7788
 3778TIP3    H232826   4.509   5.320   0.110 -0.7949 -0.5116 -0.2984
 3779TIP3   OH232827   5.340   1.920  13.155  0.4479  0.0939  0.6727
 3779TIP3    H132828   5.266   1.863  13.137  0.8966 -0.7061  1.2977
 3779TIP3    H232829   5.367   1.952  13.069  1.1021 -1.8111  0.1298
 3780TIP3   OH232830   5.252   0.455  16.498 -0.0033  0.2155  0.9289
 3780TIP3    H132831   5.313   0.492  16.435 -0.3264 -0.6732  0.0440
 3780TIP3    H232832   5.221   0.529  16.550  0.8697  0.8486  0.5565
 3781TIP3   OH232833   2.042   6.617   2.305  0.1773  0.0660 -0.0872
 3781TIP3    H132834   2.136   6.609   2.293  0.0990 -0.8050 -0.1920
 3781TIP3    H232835   2.007   6.531   2.281 -0.6258  0.3272  0.1051
 3782TIP3   OH232836   3.715   4.847   1.901  0.1318  0.8728 -0.2199
 3782TIP3    H132837   3.797   4.799   1.904 -0.6738 -0.5616 -0.0779
 3782TIP3    H232838   3.740   4.938   1.888  1.7749  0.6245  0.9671
 3783TIP3   OH232839   6.739   1.175   0.441  0.4089  0.2540  0.4500
 3783TIP3    H132840   6.712   1.085   0.460  0.5653  0.2939  0.8823
 3783TIP3    H232841   6.664   1.213   0.395  0.6202 -0.2991 -0.3678
 3784TIP3   OH232842   2.080   3.192   4.188  0.5025 -0.4141 -0.0749
 3784TIP3    H132843   2.169   3.157   4.189  0.9479  0.5069  3.1262
 3784TIP3    H232844   2.025   3.118   4.214  0.4941 -0.6298 -0.6974
 3785TIP3   OH232845   1.117   5.796   4.170  0.3241  0.5306 -0.0029
 3785TIP3    H132846   1.079   5.716   4.135  0.2775  0.8200 -0.6334
 3785TIP3    H232847   1.118   5.783   4.264  1.2632 -0.6360 -0.1550
 3786TIP3   OH232848   4.795   5.508   4.393  0.0953  0.2066  0.2941
 3786TIP3    H132849   4.783   5.599   4.422 -0.2374  0.0227  0.7532
 3786TIP3    H232850   4.737   5.458   4.450 -2.1328  0.0096 -2.0019
 3787TIP3   OH232851   4.727   5.405  15.920  0.0099 -0.0378 -0.4753
 3787TIP3    H132852   4.752   5.315  15.941 -0.6503 -0.2254 -0.4739
 3787TIP3    H232853   4.717   5.405  15.824  0.1600  0.0767 -0.4925
 3788TIP3   OH232854   1.899   5.411   6.103 -0.3564  0.3631 -0.2111
 3788TIP3    H132855   1.906   5.329   6.151 -0.1692 -0.7367 -2.0304
 3788TIP3    H232856   1.977   5.461   6.128 -0.2701 -0.1569  0.5978
 3789TIP3   OH232857   3.556   3.316  14.789  0.1559 -0.1102 -0.1954
 3789TIP3    H132858   3.578   3.225  14.809 -1.2922 -1.3073 -3.3572
 3789TIP3    H232859   3.513   3.349  14.867 -0.9806 -2.7827  0.3930
 3790TIP3   OH232860   6.009   0.294  11.574  0.7558  0.1390  0.0599
 3790TIP3    H132861   5.960   0.331  11.500  1.3522 -1.7160 -1.3389
 3790TIP3    H232862   5.973   0.338  11.651 -0.6390  1.3659 -1.2259
 3791TIP3   OH232863   2.677   6.356   6.772  0.3127 -0.1598 -0.1340
 3791TIP3    H132864   2.608   6.330   6.711 -0.1355 -0.1858  0.3824
 3791TIP3    H232865   2.744   6.396   6.716 -1.0202  1.7748 -0.4468
 3792TIP3   OH232866   3.160   1.079   2.595 -0.4184  0.4348  0.8733
 3792TIP3    H132867   3.092   1.065   2.529 -1.7207 -0.1549  2.2677
 3792TIP3    H232868   3.165   0.995   2.641  1.3419  0.4446  0.7545
 3793TIP3   OH232869   4.517   6.433  15.244 -0.2908  0.3819  0.2830
 3793TIP3    H132870   4.597   6.430  15.191 -0.3672 -1.2639  0.2071
 3793TIP3    H232871   4.533   6.503  15.307 -0.5604  3.0557 -2.4027
 3794TIP3   OH232872   1.156   5.263  16.970 -0.3124 -0.0086 -0.1141
 3794TIP3    H132873   1.164   5.246  16.876  1.8883  0.3908 -0.0544
 3794TIP3    H232874   1.132   5.178  17.008  1.5337 -0.8810 -0.7863
 3795TIP3   OH232875   2.677   5.925   2.600  0.1754  0.6090  0.3278
 3795TIP3    H132876   2.638   5.999   2.647 -0.0182  1.4321 -1.0686
 3795TIP3    H232877   2.762   5.912   2.641  0.5706  2.1640  0.0785
 3796TIP3   OH232878   0.806   2.348   6.470  0.6433  0.3910  0.1546
 3796TIP3    H132879   0.894   2.384   6.472 -0.3019  2.8370  0.5998
 3796TIP3    H232880   0.782   2.345   6.378  0.4818  1.6201  0.1472
 3797TIP3   OH232881   0.609   0.997   3.146 -0.3090 -0.2834  0.5109
 3797TIP3    H132882   0.673   0.926   3.154  1.1626  0.9032 -0.3247
 3797TIP3    H232883   0.644   1.067   3.201 -3.0339 -0.9732  3.4576
 3798TIP3   OH232884   1.325   0.718   5.717  0.4362  0.0439 -0.6331
 3798TIP3    H132885   1.274   0.654   5.669 -2.2448  1.4595  0.1362
 3798TIP3    H232886   1.314   0.800   5.669  1.1431  0.6113  0.1252
 3799TIP3   OH232887   5.515   2.065   4.710 -0.0477 -0.2038 -0.3235
 3799TIP3    H132888   5.581   2.047   4.643  0.1953 -0.7584  0.0534
 3799TIP3    H232889   5.440   2.100   4.661 -0.0247 -0.9810 -0.9393
 3800TIP3   OH232890   3.851   0.295   6.453  0.0968 -0.1164 -0.2005
 3800TIP3    H132891   3.816   0.227   6.510 -0.6390 -0.6915 -1.3082
 3800TIP3    H232892   3.790   0.368   6.461  0.1939 -0.0558  0.0090
 3801TIP3   OH232893   2.309   0.254   5.385 -0.5051 -0.0781 -0.0212
 3801TIP3    H132894   2.308   0.246   5.480 -2.1642  0.9762  0.0952
 3801TIP3    H232895   2.387   0.306   5.366 -0.8494  0.7894  0.8821
 3802TIP3   OH232896   2.923   4.672   2.878  0.4082 -0.3754  0.2833
 3802TIP3    H132897   2.829   4.658   2.876  0.2874 -0.3778  2.8677
 3802TIP3    H232898   2.937   4.749   2.822 -0.9499 -0.9952 -0.9623
 3803TIP3   OH232899   0.792   4.544   2.026  0.0206 -0.0368 -0.0340
 3803TIP3    H132900   0.742   4.587   2.095  0.2322  1.2786 -0.6708
 3803TIP3    H232901   0.881   4.538   2.060 -0.0256 -0.0326  0.0862
 3804TIP3   OH232902   3.970   3.612  14.328  0.2226  0.1724 -0.2017
 3804TIP3    H132903   4.034   3.642  14.263 -0.1874  1.7450  0.0628
 3804TIP3    H232904   3.971   3.681  14.394 -1.7095  0.2087 -0.1771
 3805TIP3   OH232905   5.068   1.559   1.640 -0.1937 -0.0974 -0.2651
 3805TIP3    H132906   5.006   1.487   1.651 -1.2375  0.8476  0.3289
 3805TIP3    H232907   5.018   1.627   1.595  0.0670  1.0732  1.1207
 3806TIP3   OH232908   6.168   2.692  15.685 -0.9892 -0.0571  0.5584
 3806TIP3    H132909   6.146   2.626  15.751 -1.4990  0.5103  0.9631
 3806TIP3    H232910   6.148   2.651  15.601 -2.4924  0.0225  0.8581
 3807TIP3   OH232911   3.833   1.278   3.250 -0.6846 -0.1952  0.0757
 3807TIP3    H132912   3.833   1.281   3.154 -2.5019 -2.2458 -0.0617
 3807TIP3    H232913   3.760   1.334   3.276  0.7243  1.5823  0.4071
 3808TIP3   OH232914   3.020   4.571  16.281  0.5061 -0.8217  0.0886
 3808TIP3    H132915   3.100   4.529  16.251  1.1671  0.8535 -0.6120
 3808TIP3    H232916   2.982   4.509  16.343  2.2550 -1.7076  0.3275
 3809TIP3   OH232917   2.311   5.349   5.283 -0.0622 -0.0252  0.2549
 3809TIP3    H132918   2.232   5.402   5.284  0.6323  1.0490  0.5448
 3809TIP3    H232919   2.297   5.285   5.213 -1.0136  0.4030  0.0427
 3810TIP3   OH232920   0.639   1.628   3.175  0.5515 -0.6766 -0.1001
 3810TIP3    H132921   0.559   1.575   3.167  0.4060 -0.3790 -0.6739
 3810TIP3    H232922   0.610   1.707   3.220  0.3395 -0.2209 -0.9964
 3811TIP3   OH232923   3.318   6.543  12.456  0.0169 -0.1462  0.1088
 3811TIP3    H132924   3.266   6.479  12.408 -0.0447  1.7332 -2.5510
 3811TIP3    H232925   3.264   6.622  12.458  1.4437  0.8720  0.1366
 3812TIP3   OH232926   3.156   2.280  11.312  0.1952  0.1372 -0.4345
 3812TIP3    H132927   3.196   2.197  11.288 -0.2132  0.0218 -0.7208
 3812TIP3    H232928   3.216   2.346  11.277  0.4206 -0.0347 -0.3753
 3813TIP3   OH232929   1.160   1.141   3.446 -0.1103  0.1357 -0.3266
 3813TIP3    H132930   1.145   1.174   3.358  0.0160 -0.7129 -0.6769
 3813TIP3    H232931   1.089   1.078   3.461  0.4187 -0.4406 -0.1985
 3814TIP3   OH232932   1.773   4.611   0.338 -0.1963  0.1863 -0.9612
 3814TIP3    H132933   1.808   4.568   0.260  0.1515  1.8708 -1.7664
 3814TIP3    H232934   1.809   4.700   0.335  0.7264 -0.0213  1.7291
 3815TIP3   OH232935   5.143   3.353  13.519 -0.3340 -0.1173 -0.1479
 3815TIP3    H132936   5.131   3.448  13.525 -0.6193 -0.1289 -0.5011
 3815TIP3    H232937   5.103   3.329  13.436  2.4285 -0.1124 -1.5953
 3816TIP3   OH232938   4.852   4.688   5.753  0.4542 -0.4672  0.2496
 3816TIP3    H132939   4.932   4.686   5.702  1.2765 -3.1050  1.4497
 3816TIP3    H232940   4.881   4.702   5.843 -0.3083 -2.0485  0.7850
 3817TIP3   OH232941   6.806   3.354  14.007 -0.5416 -0.1197  0.3349
 3817TIP3    H132942   6.856   3.432  13.984 -1.7370  0.2568 -1.0869
 3817TIP3    H232943   6.775   3.371  14.096 -0.5932  0.9192  0.1300
 3818TIP3   OH232944   0.566   6.350  15.834  0.4398 -0.3230 -0.3945
 3818TIP3    H132945   0.505   6.391  15.895  0.3301 -0.0962 -0.6597
 3818TIP3    H232946   0.512   6.292  15.781  0.6025 -0.8668  0.0202
 3819TIP3   OH232947   0.703   2.835   1.272 -0.4542  0.2497  0.2671
 3819TIP3    H132948   0.619   2.878   1.262 -0.7517 -0.1861  0.7955
 3819TIP3    H232949   0.759   2.874   1.205 -1.6424 -0.8635 -1.4526
 3820TIP3   OH232950   2.988   3.878  10.748 -0.2270  0.2084 -0.0696
 3820TIP3    H132951   2.957   3.804  10.695 -2.6596 -0.0289  1.5113
 3820TIP3    H232952   2.945   3.866  10.833  0.8970  2.3844  0.8889
 3821TIP3   OH232953   6.580   6.734   0.429  0.0865 -0.3977  0.3150
 3821TIP3    H132954   6.564   6.644   0.457 -1.6420 -0.3236 -0.3118
 3821TIP3    H232955   6.586   6.729   0.333 -0.2078  0.1794  0.2619
 3822TIP3   OH232956   3.823   5.516  13.812  0.6041  0.3701  0.0431
 3822TIP3    H132957   3.808   5.511  13.907  0.7040 -0.4972  0.0145
 3822TIP3    H232958   3.905   5.565  13.804  2.0483 -1.8159  0.5463
 3823TIP3   OH232959   3.961   0.292  10.422  0.2984  0.2563  0.0350
 3823TIP3    H132960   3.867   0.293  10.401 -0.0387 -0.0880  1.3968
 3823TIP3    H232961   3.968   0.345  10.501  0.8225 -1.8574  1.4865
 3824TIP3   OH232962   4.536   1.144  14.185 -0.5723  0.0318  0.1236
 3824TIP3    H132963   4.518   1.090  14.262 -0.9832 -1.2729 -0.8412
 3824TIP3    H232964   4.631   1.142  14.176 -0.4989  0.3937  0.7106
 3825TIP3   OH232965   5.679   5.057  10.764  0.8643 -0.3742  0.7390
 3825TIP3    H132966   5.720   4.974  10.741  0.6745  0.3796 -2.9064
 3825TIP3    H232967   5.586   5.043  10.747  0.5763  0.0785  1.8778
 3826TIP3   OH232968   0.225   0.868   4.856  0.5060  0.5391 -0.1923
 3826TIP3    H132969   0.189   0.956   4.843  0.9168  0.6247 -0.8311
 3826TIP3    H232970   0.149   0.812   4.869  0.2739  1.1252  1.1208
 3827TIP3   OH232971   5.819   6.224   3.369 -0.0954 -0.3292  0.1333
 3827TIP3    H132972   5.832   6.236   3.275 -1.6436 -0.4378 -0.1287
 3827TIP3    H232973   5.848   6.135   3.386  2.8938  0.5866  0.3476
 3828TIP3   OH232974   5.740   3.892  11.821 -0.1207 -0.1482  0.4267
 3828TIP3    H132975   5.659   3.893  11.873  0.0920  0.6747  0.7473
 3828TIP3    H232976   5.715   3.930  11.737 -0.4397 -1.3840 -0.0660
 3829TIP3   OH232977   4.058   5.867  16.988 -0.0948 -0.1073 -0.0898
 3829TIP3    H132978   4.137   5.853  16.937  0.2360  0.7393  0.1762
 3829TIP3    H232979   4.031   5.780  17.016  0.2042 -0.4938 -0.9769
 3830TIP3   OH232980   2.479   6.535  13.386 -0.5117  0.0735 -0.1090
 3830TIP3    H132981   2.520   6.477  13.321  2.3119  0.1535  1.4685
 3830TIP3    H232982   2.408   6.577  13.338  0.3393 -1.1671 -2.6599
 3831TIP3   OH232983   4.952   4.854  14.918 -0.7414 -0.0821 -0.4011
 3831TIP3    H132984   5.001   4.925  14.878 -0.2086  0.5129  1.2563
 3831TIP3    H232985   4.869   4.853  14.870 -0.4308  1.1094 -1.0015
 3832TIP3   OH232986   0.179   1.287   3.973  0.5644 -0.1252  0.6516
 3832TIP3    H132987   0.247   1.317   3.913 -0.2230 -1.6746 -1.1210
 3832TIP3    H232988   0.201   1.196   3.991 -0.9988 -0.6637  0.0307
 3833TIP3   OH232989   4.482   4.448  12.311  0.5409 -0.3679  0.8104
 3833TIP3    H132990   4.493   4.426  12.218 -0.5633  0.8959  0.3468
 3833TIP3    H232991   4.500   4.366  12.357 -0.0596 -1.3419 -0.6011
 3834TIP3   OH232992   1.287   5.848  16.011  0.1937  0.7892 -0.1989
 3834TIP3    H132993   1.294   5.860  16.106  1.8650 -0.4270 -0.1119
 3834TIP3    H232994   1.257   5.758  16.001  2.2947  0.1042 -0.7866
 3835TIP3   OH232995   4.366   1.545   3.531 -0.1118 -0.3255 -0.1985
 3835TIP3    H132996   4.342   1.530   3.440 -0.7365  0.4692 -0.1676
 3835TIP3    H232997   4.297   1.502   3.582  0.1111 -0.5682 -0.0987
 3836TIP3   OH232998   6.506   4.495  10.577  0.0531 -0.0340 -0.6283
 3836TIP3    H132999   6.595   4.487  10.541  1.1510  0.2438  1.8215
 3836TIP3    H233000   6.516   4.556  10.650 -2.5464  1.4199 -1.3811
 3837TIP3   OH233001   3.924   4.450   1.013 -0.3714  0.2590  0.1972
 3837TIP3    H133002   4.007   4.409   1.036 -1.1746 -1.6271 -0.0681
 3837TIP3    H233003   3.948   4.539   0.986  1.5484 -0.2355  0.1002
 3838TIP3   OH233004   0.312   0.282  10.701  1.1380 -0.5434  0.1995
 3838TIP3    H133005   0.405   0.259  10.695  1.2079  0.0753 -2.3779
 3838TIP3    H233006   0.302   0.322  10.788  3.0680 -1.4494  0.8750
 3839TIP3   OH233007   3.306   5.284  13.291  0.5297 -0.1096  0.3508
 3839TIP3    H133008   3.348   5.342  13.227  0.9008  0.1198  0.7983
 3839TIP3    H233009   3.246   5.340  13.339  1.2632  0.0339  1.1326
 3840TIP3   OH233010   2.233   0.843  14.428  0.5710 -0.2962  0.6216
 3840TIP3    H133011   2.294   0.826  14.500  0.8894 -1.3567  0.1308
 3840TIP3    H233012   2.289   0.864  14.353  0.2826  0.0072  0.4887
 3841TIP3   OH233013   5.354   2.408  12.853  0.4275 -0.0962 -0.1488
 3841TIP3    H133014   5.441   2.432  12.820  0.0550  2.5244  0.5719
 3841TIP3    H233015   5.293   2.454  12.795 -0.4152 -0.2201  0.6115
 3842TIP3   OH233016   0.150   5.539   3.113 -0.2777  0.2490  0.2957
 3842TIP3    H133017   0.122   5.511   3.200  0.5614  2.8779  1.5087
 3842TIP3    H233018   0.068   5.553   3.064 -0.7479 -1.4336  0.5518
 3843TIP3   OH233019   0.511   2.946  14.801  0.3689 -0.0919 -0.3415
 3843TIP3    H133020   0.534   2.879  14.865  0.0440  0.6368  0.5719
 3843TIP3    H233021   0.464   2.900  14.732  1.2807 -0.9953 -0.3755
 3844TIP3   OH233022   5.443   3.723  11.583  1.0593 -0.4542 -0.0641
 3844TIP3    H133023   5.504   3.767  11.523 -1.7442 -0.5893 -3.3203
 3844TIP3    H233024   5.383   3.792  11.611  0.2307 -1.0761 -0.2945
 3845TIP3   OH233025   3.853   1.537  13.297  0.1530 -0.0585  0.8567
 3845TIP3    H133026   3.829   1.621  13.258  1.3481 -0.4665 -0.8962
 3845TIP3    H233027   3.788   1.476  13.263 -0.2484  0.0084  1.4948
 3846TIP3   OH233028   1.031   3.867  16.179  0.3089 -0.4799  0.6712
 3846TIP3    H133029   1.114   3.854  16.133  0.2750 -2.6706  1.0803
 3846TIP3    H233030   1.010   3.959  16.167  2.5108 -0.0045  0.0714
 3847TIP3   OH233031   6.656   1.930   0.314 -0.6935  0.2234  0.5651
 3847TIP3    H133032   6.671   1.845   0.272  0.8581  0.1484  1.1783
 3847TIP3    H233033   6.668   1.994   0.244 -1.5213 -0.0312  0.1759
 3848TIP3   OH233034   6.556   5.533  15.808  0.2042 -0.0898  0.2328
 3848TIP3    H133035   6.646   5.516  15.778 -0.1730  1.2429 -1.9048
 3848TIP3    H233036   6.515   5.447  15.810  0.8746 -0.4792 -1.1713
 3849TIP3   OH233037   0.095   2.204   2.151  0.1176 -0.0457  0.3229
 3849TIP3    H133038   0.030   2.274   2.143 -0.0890 -0.2211  0.4681
 3849TIP3    H233039   0.088   2.155   2.070 -1.0071 -0.9872  0.9565
 3850TIP3   OH233040   6.039   3.998   0.880  0.5775  0.1486  0.5880
 3850TIP3    H133041   6.035   4.029   0.971 -0.7661  2.8132 -0.2561
 3850TIP3    H233042   6.127   4.022   0.852  0.0290  2.1451  0.3832
 3851TIP3   OH233043   1.695   4.538  13.233  0.3205 -0.2510  0.2699
 3851TIP3    H133044   1.786   4.509  13.240  0.8587  1.4439  0.7513
 3851TIP3    H233045   1.692   4.592  13.154 -0.1874 -0.0249  0.4364
 3852TIP3   OH233046   6.210   3.460   5.090 -0.1626  0.3488 -0.5029
 3852TIP3    H133047   6.179   3.444   5.001  1.3946  0.5602 -1.0989
 3852TIP3    H233048   6.263   3.540   5.084  2.4471 -1.2263 -0.0393
 3853TIP3   OH233049   3.828   5.839   0.547  0.3383 -0.5188  0.0093
 3853TIP3    H133050   3.751   5.841   0.604 -0.0111 -1.5012 -0.4060
 3853TIP3    H233051   3.826   5.922   0.500 -1.3636 -1.1606 -1.1488
 3854TIP3   OH233052   5.625   4.768   0.321 -0.4369 -0.2073 -0.1000
 3854TIP3    H133053   5.614   4.673   0.309 -0.2463 -0.6065  2.3208
 3854TIP3    H233054   5.717   4.783   0.304 -0.7580 -0.1546 -1.9742
 3855TIP3   OH233055   5.009   6.755   2.554  0.3323  0.3981 -0.3632
 3855TIP3    H133056   5.068   6.694   2.510 -0.5932 -0.7266 -0.0920
 3855TIP3    H233057   5.030   6.747   2.647 -1.2056 -1.1539 -0.0922
 3856TIP3   OH233058   4.053   1.825   3.957  0.2828  0.2833  0.1486
 3856TIP3    H133059   4.095   1.755   3.906  0.0712 -0.7200  1.2965
 3856TIP3    H233060   4.118   1.896   3.958  1.1558 -0.4922  0.2479
 3857TIP3   OH233061   4.149   2.370   0.879  0.6200  0.3580  0.2916
 3857TIP3    H133062   4.081   2.418   0.926 -0.0466 -0.5976  0.3427
 3857TIP3    H233063   4.127   2.382   0.786  0.2232 -0.1348  0.3119
 3858TIP3   OH233064   3.695   1.826  14.310  0.1529  0.1940 -0.1205
 3858TIP3    H133065   3.695   1.772  14.389 -1.0480  0.9383  0.4249
 3858TIP3    H233066   3.657   1.909  14.339 -0.3089  0.4788 -1.4909
 3859TIP3   OH233067   5.619   4.888  16.838 -0.4932 -0.2596  0.1336
 3859TIP3    H133068   5.551   4.866  16.901 -0.4665  1.6319  0.8860
 3859TIP3    H233069   5.665   4.962  16.876 -0.1520  0.6488 -1.8787
 3860TIP3   OH233070   0.297   1.281   5.729 -0.2585 -0.1969 -0.2844
 3860TIP3    H133071   0.365   1.341   5.757 -0.0953  0.6231 -2.2837
 3860TIP3    H233072   0.218   1.335   5.723 -1.1536 -1.1318  2.0014
 3861TIP3   OH233073   6.013   0.797   2.603  0.0432  0.2312  0.1900
 3861TIP3    H133074   6.027   0.885   2.566  0.6516 -0.3196 -0.9297
 3861TIP3    H233075   6.080   0.790   2.672  0.1012  0.5825  0.1742
 3862TIP3   OH233076   5.218   3.879  13.763 -0.3130 -0.4028 -0.1058
 3862TIP3    H133077   5.282   3.887  13.834 -1.2399  0.8280  0.6309
 3862TIP3    H233078   5.270   3.880  13.683  0.9216 -3.5292  0.4950
 3863TIP3   OH233079   6.035   1.557  14.581  0.3998  0.2471  0.2113
 3863TIP3    H133080   6.113   1.519  14.539 -0.1561 -0.2226 -0.4237
 3863TIP3    H233081   6.013   1.633  14.527 -0.5015 -0.5386 -0.5732
 3864TIP3   OH233082   4.040   3.069   5.081 -0.2034 -0.6189  0.5538
 3864TIP3    H133083   4.079   3.151   5.112 -0.4172 -0.2986 -0.0016
 3864TIP3    H233084   3.957   3.062   5.128 -0.8458  0.2112 -0.4143
 3865TIP3   OH233085   5.901   2.020  13.677  0.5236 -0.1906 -0.0879
 3865TIP3    H133086   5.914   2.013  13.772  2.9570 -1.1823 -0.4266
 3865TIP3    H233087   5.943   1.942  13.642 -1.8255 -0.7482 -1.9232
 3866TIP3   OH233088   2.432   6.191  14.693  0.2566 -0.0248  0.4105
 3866TIP3    H133089   2.441   6.246  14.771  0.0243  2.1750 -1.0391
 3866TIP3    H233090   2.439   6.252  14.619 -2.5485 -1.5298 -1.2841
 3867TIP3   OH233091   3.232   1.923  16.587  0.2712 -0.0854 -0.0351
 3867TIP3    H133092   3.155   1.917  16.532 -0.5287  0.4332  0.9844
 3867TIP3    H233093   3.297   1.969  16.534 -0.0006 -0.8066 -1.0118
 3868TIP3   OH233094   4.620   4.532   1.920  0.1945 -0.7714  0.3680
 3868TIP3    H133095   4.610   4.438   1.903  2.2482 -0.6517 -2.2713
 3868TIP3    H233096   4.699   4.556   1.871 -0.0187  2.2743  1.3302
 3869TIP3   OH233097   2.227   1.207   4.216 -0.2251 -0.3353 -0.1193
 3869TIP3    H133098   2.205   1.292   4.254 -2.6760 -0.2851 -1.5125
 3869TIP3    H233099   2.252   1.226   4.126  0.9452 -0.9597  0.0427
 3870TIP3   OH233100   4.194   1.217   0.403 -0.3212 -0.4608  0.3538
 3870TIP3    H133101   4.122   1.259   0.451 -0.8190  2.2694 -2.5180
 3870TIP3    H233102   4.255   1.288   0.383  0.6842 -1.7769 -1.5448
 3871TIP3   OH233103   4.954   1.868  17.004 -0.0581  0.0420 -0.4570
 3871TIP3    H133104   4.861   1.871  16.980 -0.1321 -0.5247 -0.2541
 3871TIP3    H233105   4.960   1.923  17.082 -0.6773 -1.7603  0.9406
 3872TIP3   OH233106   3.070   0.048  11.301 -0.3138 -1.0719  0.3530
 3872TIP3    H133107   3.082   0.092  11.217 -0.3983  0.5773  1.1654
 3872TIP3    H233108   3.043  -0.041  11.277  1.2074 -1.1356 -1.3652
 3873TIP3   OH233109   3.910   5.342  13.284 -0.2169 -0.6785 -0.0851
 3873TIP3    H133110   3.870   5.300  13.209 -0.8795  1.8354 -1.2528
 3873TIP3    H233111   3.846   5.331  13.355 -1.1701 -0.1564 -0.8427
 3874TIP3   OH233112   3.721   5.242   1.199 -0.4833 -0.0155  0.1692
 3874TIP3    H133113   3.729   5.334   1.224 -0.1153 -0.0941  0.3330
 3874TIP3    H233114   3.636   5.237   1.154 -0.1932  0.5433 -0.4563
 3875TIP3   OH233115   0.629   2.211   4.695  0.0441 -0.7344 -0.3623
 3875TIP3    H133116   0.674   2.232   4.613 -0.5203 -0.1381 -0.5220
 3875TIP3    H233117   0.603   2.120   4.685 -0.7446 -0.4307 -1.1863
 3876TIP3   OH233118   4.488   6.017   5.402 -0.2518  0.0659  0.0781
 3876TIP3    H133119   4.477   5.923   5.407 -0.7236  0.0990 -0.2759
 3876TIP3    H233120   4.580   6.030   5.380  0.0479 -0.2796  1.1060
 3877TIP3   OH233121   0.466   0.018   2.935  0.0145 -0.4360 -0.0425
 3877TIP3    H133122   0.413  -0.058   2.959  1.9943 -2.3740 -1.3794
 3877TIP3    H233123   0.551   0.002   2.975  1.0821  0.0188 -1.9818
 3878TIP3   OH233124   3.363   4.391  14.494 -0.1149  0.0528 -0.3324
 3878TIP3    H133125   3.427   4.333  14.454 -0.5810 -2.4958  2.2486
 3878TIP3    H233126   3.414   4.440  14.560 -0.5540 -1.3449  1.1153
 3879TIP3   OH233127   6.496   5.483   0.153  0.1253  0.1699  0.3241
 3879TIP3    H133128   6.406   5.509   0.171  1.0650  2.2447  2.5772
 3879TIP3    H233129   6.544   5.505   0.233  2.3609 -2.4125 -0.1803
 3880TIP3   OH233130   2.326   4.762   0.393 -0.0343 -0.4856 -0.2189
 3880TIP3    H133131   2.248   4.748   0.447 -0.2980  2.1790  0.1990
 3880TIP3    H233132   2.297   4.738   0.305 -1.1298 -0.2244  0.0450
 3881TIP3   OH233133   0.172   3.747  11.029 -0.0512  0.2646 -0.1471
 3881TIP3    H133134   0.175   3.772  11.121 -1.6257 -1.9721  0.6030
 3881TIP3    H233135   0.258   3.709  11.012 -0.6783 -2.0657  1.3708
 3882TIP3   OH233136   2.651   6.098  12.114  0.4264 -0.2987  0.0799
 3882TIP3    H133137   2.637   6.193  12.124  0.0388 -0.1672 -1.4394
 3882TIP3    H233138   2.712   6.075  12.184  4.1701  1.9359 -2.0935
 3883TIP3   OH233139   1.920   1.759   2.762 -0.3432  0.4653  0.2052
 3883TIP3    H133140   1.835   1.802   2.772 -0.1747  0.7484  0.4352
 3883TIP3    H233141   1.925   1.699   2.837 -1.4844 -1.5466 -1.1974
 3884TIP3   OH233142   3.321   0.008  12.812 -0.1565  0.5411 -0.3223
 3884TIP3    H133143   3.296   0.064  12.738 -1.0383  1.8397  0.9101
 3884TIP3    H233144   3.253   0.024  12.877  1.5550  0.7977  1.4795
 3885TIP3   OH233145   0.710   3.408   2.822 -0.1001 -0.1516 -0.3157
 3885TIP3    H133146   0.731   3.322   2.858 -0.1230 -0.2990 -0.6528
 3885TIP3    H233147   0.764   3.415   2.744  1.1162  0.7955  0.5641
 3886TIP3   OH233148   5.468   4.104   2.604 -0.1795  0.6363  0.2330
 3886TIP3    H133149   5.417   4.031   2.570 -0.6911  1.3326 -0.5312
 3886TIP3    H233150   5.411   4.180   2.595  0.1711  1.0751  1.4403
 3887TIP3   OH233151   6.534   0.823   0.095  0.6206  0.0961 -0.0086
 3887TIP3    H133152   6.560   0.887   0.029 -1.0587  1.0471  0.1923
 3887TIP3    H233153   6.438   0.824   0.093  0.5557 -1.3030  1.0714
 3888TIP3   OH233154   0.480   3.586   5.944  0.1358 -0.0123 -0.6465
 3888TIP3    H133155   0.548   3.525   5.973  0.4529  0.3372 -0.6373
 3888TIP3    H233156   0.400   3.534   5.942  0.6284 -0.7809 -1.9277
 3889TIP3   OH233157   3.742   2.279  14.282  0.0547 -0.2639  0.0073
 3889TIP3    H133158   3.728   2.241  14.195  0.1133  0.2834 -0.2464
 3889TIP3    H233159   3.837   2.277  14.293  0.0746  0.0236 -0.1064
 3890TIP3   OH233160   4.361   5.284  12.580  0.4759 -0.4756 -0.2089
 3890TIP3    H133161   4.367   5.295  12.486  3.6187  0.0998 -0.0699
 3890TIP3    H233162   4.405   5.200  12.597 -1.3199 -1.2813  0.6699
 3891TIP3   OH233163   1.557   0.817  13.786  0.4500  0.4127 -0.2794
 3891TIP3    H133164   1.505   0.851  13.859 -1.0475 -1.7148 -0.2442
 3891TIP3    H233165   1.509   0.843  13.708  0.6282  0.4617 -0.3722
 3892TIP3   OH233166   3.796   2.495   5.680  0.2416 -0.2813  0.4173
 3892TIP3    H133167   3.723   2.437   5.657  0.6331 -1.2865  1.5862
 3892TIP3    H233168   3.776   2.525   5.769  1.5097 -1.0380  0.9915
 3893TIP3   OH233169   2.047   4.158   4.608  0.0715  0.3459  0.2017
 3893TIP3    H133170   2.096   4.236   4.583  0.2362  0.2279  0.1565
 3893TIP3    H233171   2.064   4.095   4.538 -1.5801  0.8989 -0.7720
 3894TIP3   OH233172   2.014   6.183   6.145  0.5539  0.6541  0.0218
 3894TIP3    H133173   1.977   6.205   6.059 -0.0838  1.1103  0.4055
 3894TIP3    H233174   2.105   6.213   6.140 -0.3800  4.1127  0.7188
 3895TIP3   OH233175   5.861   6.051   5.414  0.1459 -0.1322 -0.4304
 3895TIP3    H133176   5.913   6.073   5.336 -1.9728  2.6616 -1.2071
 3895TIP3    H233177   5.850   5.956   5.408  2.4588 -0.3909 -1.9241
 3896TIP3   OH233178   5.662   4.610  12.064 -0.2793 -0.1446  0.0529
 3896TIP3    H133179   5.625   4.666  12.132 -1.7489 -1.3165  0.2434
 3896TIP3    H233180   5.587   4.579  12.014  0.7797  1.6510 -2.9637
 3897TIP3   OH233181   3.952   1.832   4.861  0.2985 -0.1176 -0.2916
 3897TIP3    H133182   4.036   1.848   4.819 -0.1658 -0.9652 -1.5939
 3897TIP3    H233183   3.888   1.836   4.790 -0.7836  0.5675  0.6840
 3898TIP3   OH233184   2.859   4.880  12.189  0.2388 -0.1460  0.2364
 3898TIP3    H133185   2.852   4.955  12.130 -0.9504 -0.2522  0.2179
 3898TIP3    H233186   2.952   4.876  12.212  1.0907 -1.1430 -2.9498
 3899TIP3   OH233187   4.029   5.277   2.565 -0.0392  0.1454 -0.0570
 3899TIP3    H133188   4.026   5.313   2.476  1.5800 -0.1661 -0.2665
 3899TIP3    H233189   4.119   5.293   2.594 -0.2616 -0.6777  1.1425
 3900TIP3   OH233190   2.098   1.230  14.623 -0.1181  0.2628  0.2088
 3900TIP3    H133191   2.116   1.136  14.620  2.2959  0.6201  1.1193
 3900TIP3    H233192   2.025   1.243  14.562 -1.0875 -2.2883  0.7059
 3901TIP3   OH233193   5.345   6.268   4.477 -0.3100 -0.0650  0.2464
 3901TIP3    H133194   5.302   6.274   4.392  0.0591 -1.0919 -0.0372
 3901TIP3    H233195   5.315   6.345   4.526  0.8396  1.5150 -1.4185
 3902TIP3   OH233196   3.662   2.274  13.768 -0.2429  0.3459 -0.1267
 3902TIP3    H133197   3.725   2.322  13.715 -0.9543 -0.1945 -1.5017
 3902TIP3    H233198   3.626   2.340  13.827  0.9143  0.8523  0.0397
 3903TIP3   OH233199   4.454   4.711   3.612 -0.4892  0.2178 -0.4110
 3903TIP3    H133200   4.508   4.638   3.583 -3.2039 -1.7371 -0.9080
 3903TIP3    H233201   4.443   4.765   3.534  0.4186  0.4266 -0.3975
 3904TIP3   OH233202   0.460   2.165   2.082  0.0746  0.4412  0.2123
 3904TIP3    H133203   0.465   2.128   2.170  0.8045 -0.1042 -0.0506
 3904TIP3    H233204   0.439   2.257   2.096  0.2124  0.3671  0.9557
 3905TIP3   OH233205   4.857   2.694  11.501 -0.6091  0.0195  0.0543
 3905TIP3    H133206   4.864   2.697  11.406 -1.0812  0.6765  0.0329
 3905TIP3    H233207   4.910   2.619  11.527 -1.4123 -0.8804 -0.8201
 3906TIP3   OH233208   4.827   6.212   2.019 -0.1884  0.1355  0.3227
 3906TIP3    H133209   4.780   6.295   2.035 -0.3954  0.2424 -0.7282
 3906TIP3    H233210   4.913   6.239   1.987 -0.8920  0.0237 -1.8903
 3907TIP3   OH233211   1.484   4.639  11.614  0.2085  0.2735 -0.1561
 3907TIP3    H133212   1.542   4.597  11.550  0.1041 -3.9057  2.1591
 3907TIP3    H233213   1.541   4.696  11.665  0.8991  1.1797 -1.8516
 3908TIP3   OH233214   1.840   4.676   1.690 -0.0956  0.2039  0.2078
 3908TIP3    H133215   1.934   4.675   1.711  0.2514 -0.4335 -1.2625
 3908TIP3    H233216   1.816   4.583   1.682 -1.0258  0.3356  1.2130
 3909TIP3   OH233217   5.027   4.410  11.637 -0.0709  0.6867  0.3861
 3909TIP3    H133218   4.944   4.416  11.590 -1.7032 -0.6675  2.8997
 3909TIP3    H233219   5.046   4.316  11.639 -0.1379  0.6757  2.4459
 3910TIP3   OH233220   2.687   4.428   5.015 -0.2703 -0.0851  0.6687
 3910TIP3    H133221   2.733   4.511   5.002 -1.7594  0.8798  1.3536
 3910TIP3    H233222   2.627   4.421   4.941  0.1114 -0.7474  0.4139
 3911TIP3   OH233223   3.970   2.156   4.703 -0.0290 -0.2252 -0.4087
 3911TIP3    H133224   4.026   2.199   4.639  0.9869  0.4068  0.8632
 3911TIP3    H233225   3.994   2.063   4.697  1.4880  0.0814  0.3828
 3912TIP3   OH233226   5.639   4.506  11.704 -0.0604 -0.3796  0.0207
 3912TIP3    H133227   5.711   4.546  11.654  0.1620 -0.1412  0.5258
 3912TIP3    H233228   5.681   4.472  11.783 -0.3647 -1.0105 -0.0814
 3913TIP3   OH233229   3.724   1.882   2.791 -0.0198 -0.1760 -0.1594
 3913TIP3    H133230   3.777   1.828   2.732  0.4950  0.4145 -0.2414
 3913TIP3    H233231   3.666   1.930   2.733 -0.4084 -0.5587 -0.0926
 3914TIP3   OH233232   6.459   3.182   3.977  0.5169  0.3132 -0.6550
 3914TIP3    H133233   6.427   3.163   4.065  0.5846  0.8228 -0.5150
 3914TIP3    H233234   6.542   3.135   3.971  1.1351  1.2831  0.0143
 3915TIP3   OH233235   3.099   4.223  13.186 -0.1434 -0.1164 -0.0760
 3915TIP3    H133236   3.037   4.214  13.258  0.3503 -3.9842  0.1305
 3915TIP3    H233237   3.166   4.283  13.218 -1.7338  1.0147  1.2321
 3916TIP3   OH233238   1.296   3.043   6.705  0.4763 -0.1632 -0.1281
 3916TIP3    H133239   1.374   3.009   6.660  1.1549  0.4116  0.5876
 3916TIP3    H233240   1.231   2.974   6.695  1.3986 -1.0985  0.1044
 3917TIP3   OH233241   6.801   0.916   0.233 -0.1406 -0.2986  0.0220
 3917TIP3    H133242   6.823   0.852   0.300  1.6073 -0.8194 -0.9893
 3917TIP3    H233243   6.885   0.956   0.210 -0.8507  0.5784 -1.1425
 3918TIP3   OH233244   1.488   5.576  12.896  0.4280  0.5374  0.6359
 3918TIP3    H133245   1.504   5.500  12.951 -0.0718 -1.4944 -1.8574
 3918TIP3    H233246   1.402   5.560  12.857  0.2344  2.4977  0.1433
 3919TIP3   OH233247   0.989   4.298   0.770 -0.0703 -0.0841 -0.8682
 3919TIP3    H133248   1.071   4.275   0.728  2.0605 -0.7997  3.1516
 3919TIP3    H233249   0.948   4.213   0.790  0.0125  0.1077  0.1950
 3920TIP3   OH233250   4.416   1.746   1.084  0.4332  0.0723 -0.4070
 3920TIP3    H133251   4.469   1.668   1.102  1.2296  0.9701  1.3010
 3920TIP3    H233252   4.476   1.805   1.039  0.2096  0.2220 -0.5088
 3921TIP3   OH233253   2.852   3.431   3.070  0.0870 -0.1163  0.0814
 3921TIP3    H133254   2.925   3.416   3.009 -0.0190  0.5263 -0.2178
 3921TIP3    H233255   2.877   3.510   3.118 -0.1204 -0.2620  0.4320
 3922TIP3   OH233256   6.287   0.651  12.263 -0.0961  0.6619  0.3333
 3922TIP3    H133257   6.312   0.595  12.189 -2.1673  0.3381 -0.1947
 3922TIP3    H233258   6.318   0.603  12.340  0.1846 -0.0658 -0.2182
 3923TIP3   OH233259   3.611   4.192  16.922  0.3092 -0.6250 -0.1475
 3923TIP3    H133260   3.626   4.212  17.014  0.0011  0.0517 -0.2368
 3923TIP3    H233261   3.608   4.097  16.918 -1.9538 -0.6780  0.9471
 3924TIP3   OH233262   3.871   0.480   3.571  0.4904 -0.3665  0.9631
 3924TIP3    H133263   3.793   0.486   3.627  0.0411 -0.2683  0.3344
 3924TIP3    H233264   3.942   0.512   3.626 -0.2671  1.6658  0.8596
 3925TIP3   OH233265   1.654   3.831   5.452 -0.0211  0.5642 -0.4948
 3925TIP3    H133266   1.681   3.893   5.385  0.0162  1.2908  0.1761
 3925TIP3    H233267   1.579   3.873   5.494  1.1740  1.0856  1.2486
 3926TIP3   OH233268   3.800   5.746   1.035 -0.3628  0.1777  0.5632
 3926TIP3    H133269   3.811   5.779   1.125  1.1876  1.5562 -0.0782
 3926TIP3    H233270   3.849   5.664   1.033 -2.0418 -0.8957  1.4684
 3927TIP3   OH233271   5.000   0.953   0.053 -0.0434 -0.7946 -0.5140
 3927TIP3    H133272   4.937   0.882   0.065  0.3753 -1.1711 -0.5196
 3927TIP3    H233273   5.030   0.973   0.142 -0.9762  0.1376 -0.3885
 3928TIP3   OH233274   2.488   1.698   3.928 -0.1139 -0.5047 -0.0313
 3928TIP3    H133275   2.485   1.606   3.953  0.1224 -0.8815 -1.3301
 3928TIP3    H233276   2.541   1.739   3.996 -2.0448 -0.8672  1.8271
 3929TIP3   OH233277   6.414   4.758  14.303  0.4251 -0.0433 -0.7487
 3929TIP3    H133278   6.418   4.799  14.390 -0.1793 -2.6895  0.6213
 3929TIP3    H233279   6.394   4.830  14.244 -1.0177  1.5790  1.5455
 3930TIP3   OH233280   3.039   0.297  13.425  0.3035 -0.1444  0.2058
 3930TIP3    H133281   3.113   0.342  13.465 -0.3850 -0.2746  1.7005
 3930TIP3    H233282   3.078   0.231  13.368  1.3418 -0.6439  1.4716
 3931TIP3   OH233283   4.817   5.660  13.252  0.9315 -0.5926 -0.2341
 3931TIP3    H133284   4.826   5.755  13.243  1.6573 -0.6522 -0.2120
 3931TIP3    H233285   4.732   5.640  13.213 -0.8590  0.4843  2.7426
 3932TIP3   OH233286   6.019   6.399  12.368  0.6134  0.1189  0.5281
 3932TIP3    H133287   5.938   6.446  12.351  1.4285  1.6394  0.6332
 3932TIP3    H233288   6.033   6.348  12.288 -0.6056 -0.4368  0.6516
 3933TIP3   OH233289   2.922   5.152  12.410  0.1568 -0.1316  0.6495
 3933TIP3    H133290   2.932   5.218  12.341 -0.9458  1.0232  1.5439
 3933TIP3    H233291   3.012   5.135  12.440  0.4997  0.6168  0.0788
 3934TIP3   OH233292   1.781   5.312   0.717  0.2412  0.4690 -0.7918
 3934TIP3    H133293   1.826   5.229   0.732 -0.0059  0.3124 -0.9002
 3934TIP3    H233294   1.710   5.312   0.781 -1.5826 -0.7728 -2.6724
 3935TIP3   OH233295   0.447   5.306   1.539 -0.1890 -0.1985 -0.5540
 3935TIP3    H133296   0.375   5.288   1.478 -0.8220  0.0381  0.1127
 3935TIP3    H233297   0.404   5.335   1.619  0.5397 -1.9388  0.5309
 3936TIP3   OH233298   0.507   1.748  16.647  0.3855  0.6863  0.1379
 3936TIP3    H133299   0.448   1.715  16.579  2.3515 -0.0922 -1.2665
 3936TIP3    H233300   0.513   1.677  16.711  0.9873  0.1440 -0.5092
 3937TIP3   OH233301   4.665   6.679  12.409 -0.4767  0.0892  0.0123
 3937TIP3    H133302   4.707   6.593  12.416 -0.0803  0.2117 -0.7171
 3937TIP3    H233303   4.731   6.740  12.442 -0.2708  0.2267 -0.6262
 3938TIP3   OH233304   1.535   3.826  11.032  0.2075  0.1393 -0.4588
 3938TIP3    H133305   1.453   3.777  11.034 -0.8405  1.8138 -0.0311
 3938TIP3    H233306   1.576   3.802  10.949 -1.8792  1.0074 -1.8326
 3939TIP3   OH233307   2.055   4.283   4.010  0.7849  0.5216  0.2158
 3939TIP3    H133308   2.048   4.206   4.066 -1.3206  0.7834  0.3659
 3939TIP3    H233309   1.966   4.316   4.001  1.4369  2.1336 -1.0092
 3940TIP3   OH233310   6.062   2.037  11.433 -0.0792 -0.1558  0.4825
 3940TIP3    H133311   6.133   2.082  11.387 -0.4174 -0.3734 -0.2504
 3940TIP3    H233312   6.087   1.945  11.431 -0.4948 -0.2579  0.0315
 3941TIP3   OH233313   3.792   2.021   2.483  0.7627 -0.1545  0.2448
 3941TIP3    H133314   3.721   1.967   2.448 -0.8785  0.2177  2.7311
 3941TIP3    H233315   3.870   1.968   2.471 -0.5729 -2.5236  1.2686
 3942TIP3   OH233316   1.479   4.079  14.385 -0.2695 -0.2336  0.8795
 3942TIP3    H133317   1.404   4.134  14.406 -1.5453 -1.8033  0.6232
 3942TIP3    H233318   1.493   4.092  14.291 -2.0059 -1.9642  0.3232
 3943TIP3   OH233319   3.402   6.667   3.829 -0.3221  0.0176 -0.1651
 3943TIP3    H133320   3.423   6.598   3.892  0.6799  0.6494  0.2256
 3943TIP3    H233321   3.352   6.731   3.880 -0.7554 -0.1504 -0.3800
 3944TIP3   OH233322   3.191   2.003   0.200  0.0999 -0.0132  0.5434
 3944TIP3    H133323   3.127   2.033   0.264  0.5357 -0.0709  1.0168
 3944TIP3    H233324   3.268   1.982   0.252  0.6142  0.3594 -0.0500
 3945TIP3   OH233325   1.457   3.340   4.699 -0.2135  0.6950 -0.0086
 3945TIP3    H133326   1.545   3.363   4.727  0.4583 -0.5441 -0.9589
 3945TIP3    H233327   1.460   3.348   4.603 -0.4586 -1.3756 -0.2364
 3946TIP3   OH233328   2.154   5.240  16.350 -0.6093  0.4348  0.2061
 3946TIP3    H133329   2.148   5.244  16.446  1.4879 -0.5662  0.4494
 3946TIP3    H233330   2.186   5.151  16.333  0.7025  1.1558 -1.2849
 3947TIP3   OH233331   3.373   0.833  12.777 -0.1572  0.1535  0.2856
 3947TIP3    H133332   3.390   0.771  12.706 -0.3667  0.9940 -0.5153
 3947TIP3    H233333   3.283   0.862  12.762 -0.0308  0.7214  0.6058
 3948TIP3   OH233334   4.126   0.248  17.054 -0.0647 -0.4536 -0.0911
 3948TIP3    H133335   4.106   0.223  17.144  0.7630 -1.2993 -0.1366
 3948TIP3    H233336   4.065   0.198  17.001 -0.2056 -0.3431 -0.0348
 3949TIP3   OH233337   1.532   3.541   6.696 -0.0130  0.4260 -0.4531
 3949TIP3    H133338   1.452   3.507   6.736 -0.2757  0.3367 -1.0344
 3949TIP3    H233339   1.601   3.523   6.760 -0.5650  1.1228  0.3548
 3950TIP3   OH233340   6.747   0.600   5.151  0.4511  0.9082  0.4036
 3950TIP3    H133341   6.732   0.528   5.212 -1.1982  1.0114  0.1771
 3950TIP3    H233342   6.751   0.678   5.206  1.2769  0.7572  0.5651
 3951TIP3   OH233343   2.205   3.570   0.460 -0.3692  0.4628  0.2195
 3951TIP3    H133344   2.114   3.558   0.432  0.3252  1.0374 -2.6300
 3951TIP3    H233345   2.230   3.654   0.422  1.7394 -0.3108 -0.2055
 3952TIP3   OH233346   2.657   3.174   2.651 -0.2958 -0.0289 -0.3334
 3952TIP3    H133347   2.607   3.137   2.578 -0.2197  0.9969 -0.9338
 3952TIP3    H233348   2.593   3.226   2.700  0.0564  0.9379 -0.8569
 3953TIP3   OH233349   1.706   4.696  14.242 -0.1814  0.1619  0.7934
 3953TIP3    H133350   1.679   4.640  14.315  0.5708  0.4219  1.2932
 3953TIP3    H233351   1.693   4.785  14.275 -1.0243  0.2827  0.1407
 3954TIP3   OH233352   6.640   0.956  13.917  0.3206  0.8253  0.1537
 3954TIP3    H133353   6.612   0.959  14.008 -1.9650 -0.5565 -0.4193
 3954TIP3    H233354   6.693   1.035  13.905  1.8930  0.3445  2.9903
 3955TIP3   OH233355   2.621   2.879  13.869  0.4665  0.0818 -0.3492
 3955TIP3    H133356   2.643   2.902  13.778  0.0248  0.6862 -0.3072
 3955TIP3    H233357   2.677   2.804  13.889 -1.3320 -1.8329 -2.0195
 3956TIP3   OH233358   2.201   5.694  12.519 -0.2859 -0.1033 -0.1428
 3956TIP3    H133359   2.132   5.640  12.479 -0.5564 -0.7059  1.0698
 3956TIP3    H233360   2.158   5.734  12.595 -0.1308  1.9731 -1.0873
 3957TIP3   OH233361   0.498   4.162   4.250  0.3111  0.3227 -0.1666
 3957TIP3    H133362   0.502   4.072   4.218 -1.1063  0.2886 -0.3276
 3957TIP3    H233363   0.487   4.215   4.171 -1.7468  0.3611  0.0858
 3958TIP3   OH233364   5.073   3.722  15.288  0.0429  0.2701  0.1847
 3958TIP3    H133365   5.047   3.698  15.377  1.2940  2.3374  1.1899
 3958TIP3    H233366   5.140   3.658  15.265 -0.2345 -0.2435  0.7695
 3959TIP3   OH233367   0.772   6.351  12.205 -0.7107  0.7355 -0.1573
 3959TIP3    H133368   0.759   6.343  12.300  0.6986  1.1330  0.0918
 3959TIP3    H233369   0.830   6.277  12.183 -3.0653 -0.9376 -1.1990
 3960TIP3   OH233370   5.464   5.413   0.880  0.2128  0.0402 -0.4383
 3960TIP3    H133371   5.488   5.338   0.936 -1.0881 -1.0814 -1.3058
 3960TIP3    H233372   5.492   5.490   0.930 -1.2738 -0.8686  2.0060
 3961TIP3   OH233373   4.069   3.601   6.160 -0.3006 -0.7080  0.5547
 3961TIP3    H133374   4.129   3.676   6.167 -0.7497  0.1593 -3.0244
 3961TIP3    H233375   3.993   3.627   6.213  0.4667  0.3438  1.1835
 3962TIP3   OH233376   1.916   5.940   4.310  0.4174 -0.1025  0.0377
 3962TIP3    H133377   1.874   6.021   4.339 -0.7714 -0.7652  0.2486
 3962TIP3    H233378   2.010   5.960   4.309  0.1712  1.1536  0.4485
 3963TIP3   OH233379   2.718   4.538   1.606  0.5594  0.9046  0.2969
 3963TIP3    H133380   2.799   4.570   1.645  0.2728  1.4574  0.4574
 3963TIP3    H233381   2.731   4.444   1.598  1.1697  0.9719  0.4257
 3964TIP3   OH233382   4.654   3.049   2.839 -0.5375 -0.1660  0.2847
 3964TIP3    H133383   4.590   3.080   2.903  0.1478 -0.4648  1.1393
 3964TIP3    H233384   4.726   3.111   2.846 -1.8170  1.8535 -2.6847
 3965TIP3   OH233385   2.387   4.783   1.970  0.0550  0.6306 -0.0001
 3965TIP3    H133386   2.402   4.759   2.061 -0.6233  0.0426 -0.0349
 3965TIP3    H233387   2.475   4.790   1.933  0.3204 -0.8125  0.2848
 3966TIP3   OH233388   2.263   2.036   1.541  0.0691 -0.8562 -0.1186
 3966TIP3    H133389   2.299   2.110   1.492 -1.9937 -0.4235 -1.1182
 3966TIP3    H233390   2.248   2.071   1.629 -1.0737  0.0190 -0.6336
 3967TIP3   OH233391   6.457   1.303   5.286 -0.5017 -0.5096 -0.3654
 3967TIP3    H133392   6.508   1.297   5.367  0.5943 -0.5083 -1.0368
 3967TIP3    H233393   6.449   1.397   5.270 -1.2587 -0.4934  0.0596
 3968TIP3   OH233394   0.505   6.760  12.933  0.0423 -0.0921  0.2504
 3968TIP3    H133395   0.435   6.751  12.868  0.9214  0.9847 -0.8960
 3968TIP3    H233396   0.513   6.672  12.972 -1.6092 -0.3419  0.0875
 3969TIP3   OH233397   1.864   6.232   0.839  0.6019  0.1893 -0.4748
 3969TIP3    H133398   1.893   6.225   0.930  0.0572  0.3288 -0.2886
 3969TIP3    H233399   1.786   6.287   0.843  0.2784 -0.2298 -0.9670
 3970TIP3   OH233400   0.141   1.897   1.740 -0.5943  1.3510  0.4578
 3970TIP3    H133401   0.226   1.902   1.697 -1.1792 -0.4936 -1.0471
 3970TIP3    H233402   0.097   1.823   1.698 -2.7484  1.9238  1.5567
 3971TIP3   OH233403   5.525   3.815   2.601 -0.1044 -0.2073 -0.4686
 3971TIP3    H133404   5.530   3.754   2.675  0.8028  0.5323  0.1050
 3971TIP3    H233405   5.595   3.879   2.618 -1.0572  1.0213 -1.0259
 3972TIP3   OH233406   0.055   3.854   2.307 -0.5496 -0.0217 -0.3982
 3972TIP3    H133407  -0.020   3.859   2.366 -1.3945 -2.2494 -1.1685
 3972TIP3    H233408   0.016   3.847   2.220  0.2646 -4.4179 -0.6319
 3973TIP3   OH233409   1.624   0.999   3.912  0.4374  0.4039  0.0609
 3973TIP3    H133410   1.548   1.024   3.964  0.0350 -1.0185  0.1968
 3973TIP3    H233411   1.663   0.927   3.961 -0.0174 -1.0508 -1.6202
 3974TIP3   OH233412   5.465   6.427   4.093  0.2276 -0.0563 -0.1324
 3974TIP3    H133413   5.557   6.410   4.111  1.3456  3.8834 -1.2711
 3974TIP3    H233414   5.459   6.437   3.998 -1.8078 -1.8494 -0.2914
 3975TIP3   OH233415   2.227   0.020  16.654  0.5845 -0.1430  0.0435
 3975TIP3    H133416   2.207   0.112  16.634  2.1623  0.1481 -0.3580
 3975TIP3    H233417   2.227  -0.024  16.569  1.0395 -0.2438  0.0909
 3976TIP3   OH233418   3.257   6.260  13.384 -0.7713  0.0932  0.5080
 3976TIP3    H133419   3.188   6.240  13.447 -1.3809 -1.8222 -0.6676
 3976TIP3    H233420   3.211   6.301  13.311 -0.5296 -0.3167  0.1207
 3977TIP3   OH233421   5.815   4.923   3.053  0.3518 -0.3628 -0.4670
 3977TIP3    H133422   5.842   5.013   3.069  0.4958 -0.1415 -1.8264
 3977TIP3    H233423   5.761   4.900   3.128  0.1479  0.9249 -0.2057
 3978TIP3   OH233424   0.750   2.014   2.311 -0.1724 -0.0619  0.4138
 3978TIP3    H133425   0.819   2.070   2.278 -1.8109  1.0332 -1.3296
 3978TIP3    H233426   0.691   2.073   2.357 -0.6525 -0.7547  0.7061
 3979TIP3   OH233427   1.302   2.119   2.326 -0.8103 -0.0326 -0.3356
 3979TIP3    H133428   1.376   2.087   2.275  0.1402  0.5088  0.6542
 3979TIP3    H233429   1.240   2.153   2.261  0.1234  0.1600 -1.1504
 3980TIP3   OH233430   2.090   3.391   3.620 -0.6108  0.4116  0.4085
 3980TIP3    H133431   2.027   3.462   3.631  0.3761  1.1429  1.4586
 3980TIP3    H233432   2.093   3.348   3.705  1.1366  1.0909  0.7181
 3981TIP3   OH233433   4.745   6.500  16.142  0.5153 -0.4540 -0.2176
 3981TIP3    H133434   4.677   6.434  16.155 -1.1003  0.4358 -3.1241
 3981TIP3    H233435   4.785   6.477  16.059  0.6526  1.5461 -0.7605
 3982TIP3   OH233436   0.826   4.596   4.818  0.0090  0.4638  0.2889
 3982TIP3    H133437   0.775   4.529   4.773  1.4320 -0.9707  0.7387
 3982TIP3    H233438   0.760   4.647   4.866 -1.0541 -1.0325  0.4989
 3983TIP3   OH233439   5.977   0.407   5.861  0.6882  0.0658  0.3199
 3983TIP3    H133440   6.036   0.332   5.852  1.0527  0.3310  0.4708
 3983TIP3    H233441   5.939   0.398   5.948 -1.1539 -1.2859 -0.5501
 3984TIP3   OH233442   6.709   6.682  15.310 -0.3943 -0.0238  0.6020
 3984TIP3    H133443   6.652   6.605  15.313 -0.9526  0.2048 -1.8487
 3984TIP3    H233444   6.655   6.749  15.269  1.5183  0.2512 -1.6815
 3985TIP3   OH233445   6.240   2.350   2.066 -0.6981 -0.3236 -0.0959
 3985TIP3    H133446   6.243   2.260   2.099  2.9846 -0.7987 -1.3629
 3985TIP3    H233447   6.289   2.401   2.131  0.6042  0.0106 -1.3070
 3986TIP3   OH233448   6.029   2.435  14.305 -0.3819 -0.1058  0.1810
 3986TIP3    H133449   5.951   2.490  14.304 -0.7306 -0.5967 -0.5503
 3986TIP3    H233450   6.011   2.368  14.370  0.6183  1.4184  2.1188
 3987TIP3   OH233451   6.306   5.539  16.091 -0.6565  0.0522  0.7734
 3987TIP3    H133452   6.376   5.475  16.077  2.3212  3.0930  0.5615
 3987TIP3    H233453   6.267   5.552  16.005  1.3186  1.1973 -0.0101
 3988TIP3   OH233454   3.294   0.908   5.232  0.1293 -0.0049 -0.6373
 3988TIP3    H133455   3.368   0.935   5.178 -0.3690  3.3973  0.1328
 3988TIP3    H233456   3.256   0.990   5.264 -2.0980 -1.7048  1.5383
 3989TIP3   OH233457   5.361   6.814  12.050 -0.5371  0.0494  0.5126
 3989TIP3    H133458   5.387   6.793  11.961 -0.8069 -1.5087  0.7780
 3989TIP3    H233459   5.290   6.753  12.071 -1.1237  1.0115  1.4752
 3990TIP3   OH233460   2.791   6.815  17.139  0.2143  0.5058 -0.0514
 3990TIP3    H133461   2.854   6.865  17.191  0.8970  0.2590 -0.6275
 3990TIP3    H233462   2.710   6.866  17.144  0.8026  1.4873 -0.3386
 3991TIP3   OH233463   2.492   4.046   3.662 -0.0210 -0.5478 -0.4494
 3991TIP3    H133464   2.554   4.002   3.721 -0.2440 -0.3481 -0.0597
 3991TIP3    H233465   2.504   4.003   3.578  0.4273 -0.7236 -0.2994
 3992TIP3   OH233466   0.852   1.809  13.821  0.3673 -0.2274 -0.1219
 3992TIP3    H133467   0.863   1.805  13.916  0.6861 -1.3688 -0.1879
 3992TIP3    H233468   0.815   1.724  13.798  1.8035 -0.5958 -1.2016
 3993TIP3   OH233469   0.345   4.101  15.387  0.1339  0.0716 -0.8358
 3993TIP3    H133470   0.341   4.167  15.456  0.8615  0.7685 -1.4400
 3993TIP3    H233471   0.257   4.099  15.351 -0.5814 -1.1229  0.8298
 3994TIP3   OH233472   1.106   5.201  10.488  0.0851  0.0954  0.5907
 3994TIP3    H133473   1.090   5.289  10.452 -1.3362 -0.7160 -0.9068
 3994TIP3    H233474   1.189   5.174  10.449 -0.1559  0.2649 -0.0665
 3995TIP3   OH233475   0.552   2.391  14.426 -0.1669  0.0347  0.3436
 3995TIP3    H133476   0.467   2.412  14.386  0.7216 -0.3319 -1.8885
 3995TIP3    H233477   0.569   2.465  14.485 -0.0797  2.4968 -2.4918
 3996TIP3   OH233478   3.865   4.728  15.597  0.4750  0.4745 -0.3563
 3996TIP3    H133479   3.960   4.727  15.607  0.3706 -0.2394  0.7191
 3996TIP3    H233480   3.848   4.799  15.535  1.7187  0.4524 -0.7546
 3997TIP3   OH233481   1.680   3.655   1.089 -0.1765  0.4644 -0.0477
 3997TIP3    H133482   1.704   3.746   1.106 -1.1037  0.3864  1.8768
 3997TIP3    H233483   1.601   3.640   1.141 -0.4208 -1.2635 -0.8294
 3998TIP3   OH233484   6.242   4.084   5.047  0.4802 -0.1757  0.4299
 3998TIP3    H133485   6.304   4.033   5.100  3.1393  0.7710 -1.5403
 3998TIP3    H233486   6.202   4.145   5.109  1.1942 -1.0924  1.8642
 3999TIP3   OH233487   0.416   4.325  14.015  0.4707 -0.0150 -0.1204
 3999TIP3    H133488   0.338   4.291  13.973  0.7716 -0.6569 -0.1670
 3999TIP3    H233489   0.384   4.390  14.078  0.0078  0.9120 -1.2721
 4000TIP3   OH233490   3.086   2.079  12.618  0.2787 -0.1264  0.4993
 4000TIP3    H133491   3.153   2.145  12.603  0.8470 -0.8258 -0.1332
 4000TIP3    H233492   3.045   2.105  12.700  1.0968  0.5043  0.7236
 4001TIP3   OH233493   3.115   4.830  12.275  0.6549  0.3001  0.0958
 4001TIP3    H133494   3.123   4.844  12.370  0.2185  2.8283 -0.1563
 4001TIP3    H233495   3.108   4.735  12.265 -0.6796  0.0282  2.7252
 4002TIP3   OH233496   2.468   5.847   5.442 -0.6376 -0.2651 -0.1630
 4002TIP3    H133497   2.455   5.753   5.431 -2.3950  0.0028 -0.6702
 4002TIP3    H233498   2.512   5.875   5.362  0.9684 -0.8026  0.4873
 4003TIP3   OH233499   4.400   6.098   4.042  0.3426  0.1641 -0.1337
 4003TIP3    H133500   4.323   6.142   4.005  0.4352  1.5595  1.2432
 4003TIP3    H233501   4.459   6.169   4.067  2.6742 -0.8812 -2.2309
 4004TIP3   OH233502   0.282   6.677  12.281 -0.3333  0.8240  0.3825
 4004TIP3    H133503   0.333   6.604  12.318  0.1880  1.3457  0.7034
 4004TIP3    H233504   0.207   6.686  12.341 -1.8050 -1.0717 -1.0288
 4005TIP3   OH233505   4.224   6.020  16.069  0.4233  0.0835 -0.7866
 4005TIP3    H133506   4.236   6.097  16.013  0.0453  0.4830 -0.3234
 4005TIP3    H233507   4.311   5.980  16.073  0.6521  0.5619 -0.9197
 4006TIP3   OH233508   2.520   3.344  11.318 -0.3969  0.1804  0.0694
 4006TIP3    H133509   2.431   3.318  11.342 -0.3614 -0.4623 -0.4520
 4006TIP3    H233510   2.559   3.373  11.400 -0.6243 -0.9204  0.5983
 4007TIP3   OH233511   1.729   0.832  11.656  1.0140  0.1273  0.0203
 4007TIP3    H133512   1.743   0.842  11.561 -0.8149  0.2824 -0.2657
 4007TIP3    H233513   1.794   0.891  11.695 -1.0412  3.6206 -1.3186
 4008TIP3   OH233514   4.238   5.365   1.942 -0.5671 -0.0837  0.4014
 4008TIP3    H133515   4.325   5.350   1.904 -0.0595  0.8263  1.1533
 4008TIP3    H233516   4.256   5.385   2.034 -1.4171  1.7640  0.2142
 4009TIP3   OH233517   4.856   0.240  16.312 -0.0479 -0.2533 -0.2487
 4009TIP3    H133518   4.910   0.162  16.297 -1.6037 -1.6640  0.9856
 4009TIP3    H233519   4.878   0.268  16.400 -1.6973 -1.2545  0.5437
 4010TIP3   OH233520   1.868   6.713   1.688 -0.0051 -0.2359  0.3177
 4010TIP3    H133521   1.909   6.750   1.767  0.4920 -0.0190 -0.0426
 4010TIP3    H233522   1.774   6.716   1.708  0.1634 -1.3152  1.3936
 4011TIP3   OH233523   1.604   4.970  13.471  0.3267  0.0539  0.1661
 4011TIP3    H133524   1.611   4.949  13.564 -3.2480  2.0029  1.0928
 4011TIP3    H233525   1.595   5.065  13.469 -0.7585 -0.0282 -2.0117
 4012TIP3   OH233526   4.665   0.390  11.500  0.2391  0.1822 -0.3829
 4012TIP3    H133527   4.716   0.323  11.454  1.0292  1.0850 -0.8683
 4012TIP3    H233528   4.644   0.455  11.433 -2.0595 -0.4090 -0.3203
 4013TIP3   OH233529   1.568   5.626  14.655 -0.1222  0.2218 -0.4369
 4013TIP3    H133530   1.563   5.655  14.746 -0.8241  1.1998 -0.7724
 4013TIP3    H233531   1.657   5.649  14.627 -0.0938  0.4352 -0.1725
 4014TIP3   OH233532   5.165   4.703   3.899  0.0743 -0.1817  0.2059
 4014TIP3    H133533   5.089   4.725   3.952 -1.4697 -0.2859 -1.8394
 4014TIP3    H233534   5.212   4.785   3.888 -1.5873  0.6486 -1.2069
 4015TIP3   OH233535   5.180   3.246  13.218  0.3507  0.5297 -0.1872
 4015TIP3    H133536   5.127   3.167  13.215  0.2488  0.5505  0.6829
 4015TIP3    H233537   5.256   3.221  13.271  1.0266  0.6115 -1.0898
 4016TIP3   OH233538   2.587   3.501   5.018 -0.5604  0.1061 -0.1968
 4016TIP3    H133539   2.668   3.461   4.988 -0.0743 -0.4644  1.7533
 4016TIP3    H233540   2.532   3.505   4.940  0.3152 -2.0089 -0.9948
 4017TIP3   OH233541   6.578   6.080   2.682  0.0450 -0.7128  0.3766
 4017TIP3    H133542   6.616   6.031   2.755 -1.9112  0.7326  2.4803
 4017TIP3    H233543   6.533   6.013   2.630 -1.1862 -1.4389  2.2748
 4018TIP3   OH233544   1.189   3.156  13.252  0.1978 -0.0294 -0.4015
 4018TIP3    H133545   1.185   3.062  13.234 -0.9776 -0.1028  0.1486
 4018TIP3    H233546   1.210   3.196  13.168 -2.2610 -0.5808 -1.3560
 4019TIP3   OH233547   3.060   0.730  16.258 -0.0072  0.2881 -0.0928
 4019TIP3    H133548   3.090   0.821  16.254 -1.8472  0.8929 -1.0706
 4019TIP3    H233549   3.071   0.698  16.168 -1.5422  0.3043 -0.3051
 4020TIP3   OH233550   2.428   6.225   0.334  0.0459 -0.3154 -0.1967
 4020TIP3    H133551   2.465   6.175   0.261 -0.0177 -2.8366  1.3563
 4020TIP3    H233552   2.500   6.282   0.363  1.4817 -2.2681  0.2837
 4021TIP3   OH233553   5.339   5.404   5.034 -0.0242 -0.5355  0.4544
 4021TIP3    H133554   5.259   5.454   5.051  0.4005  0.2093  0.2460
 4021TIP3    H233555   5.308   5.313   5.029 -0.7914 -0.3090  0.8399
 4022TIP3   OH233556   5.258   5.437  12.566 -0.1666  0.5637  0.3814
 4022TIP3    H133557   5.229   5.371  12.629 -2.1249 -1.4106 -2.3470
 4022TIP3    H233558   5.203   5.513  12.584  1.1700  1.0531  2.6931
 4023TIP3   OH233559   1.949   2.669  13.045 -0.5830  0.3403 -0.4425
 4023TIP3    H133560   1.997   2.617  13.110  0.3060  1.2510 -0.3309
 4023TIP3    H233561   1.978   2.634  12.960 -1.9348 -1.0170 -0.3837
 4024TIP3   OH233562   2.786   0.357  13.160  0.4438  0.2508 -0.5545
 4024TIP3    H133563   2.876   0.345  13.131  0.0584  0.8900 -2.1224
 4024TIP3    H233564   2.791   0.425  13.227  1.1432  0.2119 -0.5632
 4025TIP3   OH233565   1.064   6.617  14.881  0.5781 -0.2100 -0.6625
 4025TIP3    H133566   1.025   6.695  14.920  0.0636 -0.5282 -0.5434
 4025TIP3    H233567   1.159   6.629  14.892  0.4269 -0.6924  1.4323
 4026TIP3   OH233568   5.560   5.712  11.359 -0.0036 -0.3752 -0.0014
 4026TIP3    H133569   5.536   5.797  11.397 -3.3045 -0.3574 -1.7825
 4026TIP3    H233570   5.639   5.729  11.309 -0.5300  1.6678 -0.2260
 4027TIP3   OH233571   3.650   2.047   0.213  0.2013  0.6222 -0.6553
 4027TIP3    H133572   3.621   2.118   0.270  0.7111  0.5806 -0.3309
 4027TIP3    H233573   3.599   1.971   0.243  0.9653  0.4346  0.2436
 4028TIP3   OH233574   3.174   1.329  10.808 -0.1330 -0.1938 -0.1144
 4028TIP3    H133575   3.232   1.265  10.849  0.9433  0.4431 -0.6167
 4028TIP3    H233576   3.227   1.371  10.740 -0.1738  2.5095  1.3587
 4029TIP3   OH233577   4.803   1.667   2.958 -0.1362 -0.3422  0.5903
 4029TIP3    H133578   4.880   1.679   2.902  0.0506 -0.3066  0.8501
 4029TIP3    H233579   4.828   1.708   3.041 -0.3727 -0.4821  0.7298
 4030TIP3   OH233580   4.375   4.902   1.658 -0.2943 -0.1824 -0.6473
 4030TIP3    H133581   4.375   4.930   1.749  0.4916  0.0207 -0.7000
 4030TIP3    H233582   4.415   4.815   1.660  1.1165  0.4399 -0.9619
 4031TIP3   OH233583   3.275   2.170   0.624  0.2621  0.4845 -0.1264
 4031TIP3    H133584   3.305   2.260   0.608  0.4225  0.2796 -1.0279
 4031TIP3    H233585   3.180   2.176   0.615  0.3872  0.2150 -2.1910
 4032TIP3   OH233586   4.228   1.100  13.851 -0.4258  0.3602 -0.3365
 4032TIP3    H133587   4.175   1.096  13.931 -2.6972  0.9632 -1.7029
 4032TIP3    H233588   4.300   1.159  13.873  0.6743 -1.6999  2.0835
 4033TIP3   OH233589   1.975   0.441   4.681  0.2355  0.7794 -0.1771
 4033TIP3    H133590   1.935   0.383   4.745  0.0309  1.9123  0.7661
 4033TIP3    H233591   1.901   0.479   4.633  0.3034  0.9943 -0.1161
 4034TIP3   OH233592   5.844   1.751  11.663  0.8194 -0.3209 -0.8216
 4034TIP3    H133593   5.831   1.663  11.698  0.2522 -0.8499 -2.3147
 4034TIP3    H233594   5.932   1.749  11.625  0.6094 -0.4125 -1.3115
 4035TIP3   OH233595   4.874   3.961  16.947  0.1237  0.4831 -0.5774
 4035TIP3    H133596   4.860   3.935  16.856  0.7674  1.5510 -1.0009
 4035TIP3    H233597   4.798   3.927  16.994 -0.4837  0.3866 -1.6075
 4036TIP3   OH233598   2.535   2.463   0.434 -0.1999  0.1319 -0.5877
 4036TIP3    H133599   2.561   2.423   0.517 -1.7387  0.9034  0.3072
 4036TIP3    H233600   2.593   2.424   0.369  0.9543 -0.5803  0.8328
 4037TIP3   OH233601   3.998   5.849   0.261 -0.0299 -0.4835 -0.0809
 4037TIP3    H133602   3.952   5.926   0.295 -1.5668 -1.2812 -0.2441
 4037TIP3    H233603   3.928   5.787   0.240  1.0235 -1.0707 -2.0858
 4038TIP3   OH233604   5.651   0.744  14.834 -0.6963  0.1299  0.2075
 4038TIP3    H133605   5.681   0.809  14.897 -0.8518  0.7319 -0.3267
 4038TIP3    H233606   5.690   0.772  14.751  0.5432 -1.3580  0.2519
 4039TIP3   OH233607   0.379   2.817  14.593  0.0084 -0.0699  0.3658
 4039TIP3    H133608   0.333   2.901  14.588  1.4836  0.7719  0.2754
 4039TIP3    H233609   0.395   2.793  14.501 -2.8925 -1.9646  0.2041
 4040TIP3   OH233610   5.452   2.177   2.657 -0.3061 -0.4776  0.2313
 4040TIP3    H133611   5.444   2.090   2.617  2.1019 -0.6198 -0.1263
 4040TIP3    H233612   5.508   2.162   2.734 -2.2578  0.3226  1.9022
 4041TIP3   OH233613   3.016   2.142  15.372  0.2147 -0.1723  0.3253
 4041TIP3    H133614   3.010   2.205  15.300 -1.3633  0.7472  1.2126
 4041TIP3    H233615   3.065   2.068  15.335 -0.2394  0.4277 -1.5736
 4042TIP3   OH233616   2.108   0.722  14.065  0.1313 -0.2058 -0.0502
 4042TIP3    H133617   2.146   0.683  14.143  1.0818 -1.5321 -1.1100
 4042TIP3    H233618   2.183   0.756  14.016 -0.1388 -1.4172 -1.4088
 4043TIP3   OH233619   3.854   4.049   5.780  0.1330  0.2432  0.3621
 4043TIP3    H133620   3.883   4.078   5.694  1.8721  1.9542  1.4427
 4043TIP3    H233621   3.773   4.001   5.763  0.3971  0.5520 -2.1947
 4044TIP3   OH233622   4.889   6.622  14.020 -0.2036  0.3264 -0.1149
 4044TIP3    H133623   4.858   6.573  13.944  0.9408 -0.2711 -0.2112
 4044TIP3    H233624   4.968   6.575  14.048 -0.2935  0.8680  1.0985
 4045TIP3   OH233625   0.275   5.260  13.789 -0.0999  0.3303 -0.2418
 4045TIP3    H133626   0.236   5.215  13.713  0.9865 -0.3520 -0.4067
 4045TIP3    H233627   0.237   5.216  13.865  1.1175 -1.0410 -0.4007
 4046TIP3   OH233628   0.216   2.342  13.054 -0.0875 -0.1620 -0.2202
 4046TIP3    H133629   0.236   2.418  13.108 -0.9699 -0.4834  0.5815
 4046TIP3    H233630   0.165   2.377  12.981 -0.3099  0.0519  0.0359
 4047TIP3   OH233631   1.558   3.226   1.288 -0.5129 -0.1198  0.2688
 4047TIP3    H133632   1.590   3.300   1.340  0.9744 -0.3640 -0.2297
 4047TIP3    H233633   1.487   3.263   1.235 -0.0849  0.8554  0.3410
 4048TIP3   OH233634   5.136   0.957  13.918 -0.4205 -0.1356 -0.1015
 4048TIP3    H133635   5.231   0.945  13.924 -0.5621 -1.3199 -0.1835
 4048TIP3    H233636   5.106   0.956  14.009 -0.4893 -0.9129 -0.1299
 4049TIP3   OH233637   1.183   3.131  11.770  0.1392 -0.0749  0.9363
 4049TIP3    H133638   1.217   3.124  11.859 -1.4471  0.3459  1.6012
 4049TIP3    H233639   1.226   3.209  11.735  2.8875 -1.7160  0.2949
 4050TIP3   OH233640   5.132   5.769  15.068 -0.3528 -0.2428 -0.9950
 4050TIP3    H133641   5.165   5.837  15.127 -3.2878  1.3695 -1.0227
 4050TIP3    H233642   5.113   5.816  14.987 -2.9461 -0.9054 -0.8448
 4051TIP3   OH233643   2.430   1.919   5.560 -0.1783 -0.2342  0.6498
 4051TIP3    H133644   2.383   1.842   5.591  0.5965 -0.6295  0.8670
 4051TIP3    H233645   2.517   1.886   5.535  1.2516  0.9647  3.4837
 4052TIP3   OH233646   0.369   0.536  14.220 -0.0106  0.5354  0.1098
 4052TIP3    H133647   0.445   0.477  14.215  0.2053  0.7928  0.3665
 4052TIP3    H233648   0.337   0.540  14.130  1.1379  1.5497 -0.2765
 4053TIP3   OH233649   1.284   0.876  16.374  0.1682 -0.2757 -0.4454
 4053TIP3    H133650   1.219   0.863  16.443  0.5457 -0.0379 -0.0395
 4053TIP3    H233651   1.336   0.951  16.404  0.0024  0.1773 -1.2427
 4054TIP3   OH233652   2.634   5.089   4.379 -0.0905  0.3719  0.3458
 4054TIP3    H133653   2.699   5.069   4.445  0.4275  1.7681  0.2968
 4054TIP3    H233654   2.682   5.087   4.296 -0.4679 -0.1572  0.1318
 4055TIP3   OH233655   5.980   3.770  16.838 -0.3747 -0.4803  0.0358
 4055TIP3    H133656   5.946   3.720  16.764 -0.3936  1.6111 -1.4751
 4055TIP3    H233657   5.976   3.861  16.808  0.6249  0.3423  2.2364
 4056TIP3   OH233658   1.777   3.878  12.137 -0.9563  0.2099 -0.8151
 4056TIP3    H133659   1.763   3.881  12.232 -2.1720  1.0949 -0.9961
 4056TIP3    H233660   1.756   3.788  12.112  1.2743 -0.5934 -0.0077
 4057TIP3   OH233661   5.692   3.401  12.309 -0.2302  0.2359 -0.0985
 4057TIP3    H133662   5.693   3.496  12.299 -2.2788  0.2549 -0.5978
 4057TIP3    H233663   5.610   3.383  12.355 -0.9277 -1.4278 -1.8778
 4058TIP3   OH233664   3.907   3.104  12.071 -0.0608 -0.1137 -0.0519
 4058TIP3    H133665   3.952   3.087  12.154 -2.3619 -0.1433  1.2615
 4058TIP3    H233666   3.946   3.185  12.038  0.7534 -0.0048  1.1408
 4059TIP3   OH233667   2.067   0.134   2.706 -0.0982  0.2446  0.2414
 4059TIP3    H133668   1.989   0.187   2.727 -1.2003 -1.5766  0.9758
 4059TIP3    H233669   2.039   0.078   2.634  0.7151 -0.0486  0.1488
 4060TIP3   OH233670   1.162   3.200  11.037 -0.5535  0.1712 -0.7223
 4060TIP3    H133671   1.139   3.143  11.110  1.1753  0.4411  0.0760
 4060TIP3    H233672   1.094   3.268  11.038 -1.2788 -0.5474 -0.1869
 4061TIP3   OH233673   6.534   4.275   4.315  0.5016  0.2182  0.1638
 4061TIP3    H133674   6.571   4.306   4.398 -0.2826  2.1008 -0.1233
 4061TIP3    H233675   6.441   4.264   4.333  0.7021 -1.7133  0.1379
 4062TIP3   OH233676   1.408   4.611   2.839  0.0383  0.4900 -0.2775
 4062TIP3    H133677   1.358   4.692   2.841 -0.2909  0.2737  1.1677
 4062TIP3    H233678   1.391   4.574   2.752 -1.2615  1.0664 -0.2848
 4063TIP3   OH233679   0.926   4.075  13.170  0.2643 -0.6922  0.0189
 4063TIP3    H133680   1.002   4.098  13.224 -0.5783  1.7428  0.2830
 4063TIP3    H233681   0.960   4.012  13.106  2.4076  0.0207  0.3853
 4064TIP3   OH233682   1.244   3.569   4.979  0.0590  0.3644 -0.1691
 4064TIP3    H133683   1.198   3.606   5.054 -1.9865 -0.6072 -0.8657
 4064TIP3    H233684   1.186   3.586   4.905  0.0897 -2.1718 -0.8706
 4065TIP3   OH233685   4.667   6.348   1.269 -0.5762 -0.2897 -0.0600
 4065TIP3    H133686   4.741   6.361   1.210 -0.0813 -1.4399  0.2656
 4065TIP3    H233687   4.666   6.253   1.285 -2.2721 -0.3321 -0.2482
 4066TIP3   OH233688   0.647   2.724  15.402  0.0960 -0.2664  0.1982
 4066TIP3    H133689   0.606   2.779  15.468  1.5419  0.5873  0.4261
 4066TIP3    H233690   0.587   2.728  15.327  0.5303  2.3425 -0.1061
 4067TIP3   OH233691   1.320   3.314   4.942  0.5505 -0.4257  0.0286
 4067TIP3    H133692   1.356   3.326   4.854 -2.6973 -0.6503 -1.4950
 4067TIP3    H233693   1.274   3.397   4.960 -0.7050 -1.1851  0.4701
 4068TIP3   OH233694   3.568   1.591  14.018 -0.3646  0.0561 -0.0712
 4068TIP3    H133695   3.603   1.502  14.032 -1.8367 -0.8318 -1.6562
 4068TIP3    H233696   3.488   1.594  14.071  0.0456  0.7259  0.5369
 4069TIP3   OH233697   2.128   1.606   1.733 -0.5185  0.2444 -0.0274
 4069TIP3    H133698   2.161   1.534   1.788 -0.5136 -0.2542 -0.6632
 4069TIP3    H233699   2.033   1.596   1.736 -0.6836  1.8044  1.9677
 4070TIP3   OH233700   1.200   0.414  12.955 -0.1028  0.6311 -0.3406
 4070TIP3    H133701   1.105   0.424  12.963 -0.3308 -1.0107 -0.6164
 4070TIP3    H233702   1.225   0.361  13.030  0.8897  2.4109  0.6661
 4071TIP3   OH233703   5.894   4.214   1.570 -0.2403  0.4542  0.3570
 4071TIP3    H133704   5.969   4.248   1.522  0.3605 -1.4128 -0.1244
 4071TIP3    H233705   5.909   4.119   1.575 -1.6177  0.2639  1.9270
 4072TIP3   OH233706   2.720   1.167  12.400  0.2237  0.2356  0.1355
 4072TIP3    H133707   2.755   1.093  12.349  1.3555  0.5063  0.4857
 4072TIP3    H233708   2.781   1.175  12.474 -1.2461  0.0080  1.4080
 4073TIP3   OH233709   2.518   3.111  14.007 -0.5708  0.2600  0.1243
 4073TIP3    H133710   2.550   3.029  13.969  1.4614  0.3148  1.5135
 4073TIP3    H233711   2.498   3.166  13.932  1.3357 -0.3414 -0.9111
 4074TIP3   OH233712   4.092   0.296   3.496  0.9612  0.3323  0.0595
 4074TIP3    H133713   4.088   0.244   3.576 -1.3286 -2.4789 -1.6956
 4074TIP3    H233714   4.048   0.378   3.519 -1.0599 -1.0093  1.3672
 4075TIP3   OH233715   3.766   0.571   2.235 -0.3436  0.3287 -0.8313
 4075TIP3    H133716   3.787   0.653   2.280 -0.3732  2.2200 -3.9767
 4075TIP3    H233717   3.770   0.593   2.142  3.0811 -4.0515 -2.0568
 4076TIP3   OH233718   3.950   3.791  15.090  0.6171 -0.3791  0.5679
 4076TIP3    H133719   3.918   3.815  15.177  0.2770 -2.5341  1.1088
 4076TIP3    H233720   4.040   3.761  15.106  0.5629 -0.7524  0.1884
 4077TIP3   OH233721   1.578   0.901  16.543 -0.0225 -0.1998 -0.5894
 4077TIP3    H133722   1.590   0.859  16.458  0.1918 -0.3902 -0.4656
 4077TIP3    H233723   1.629   0.847  16.604  1.2755  0.9378 -0.6260
 4078TIP3   OH233724   1.474   6.677   2.284 -0.1244 -0.0119 -0.3395
 4078TIP3    H133725   1.409   6.703   2.218 -0.5501 -1.2825 -0.4546
 4078TIP3    H233726   1.491   6.585   2.265 -0.9070 -0.6665  1.8608
 4079TIP3   OH233727   6.038   2.952   3.313  0.7300  0.3818  0.1474
 4079TIP3    H133728   5.970   3.014   3.340  0.4598 -0.1856  0.7918
 4079TIP3    H233729   6.112   2.970   3.370  2.0576  2.5909 -2.0455
 4080TIP3   OH233730   6.818   2.163  15.430  0.2463  0.2191 -0.2740
 4080TIP3    H133731   6.723   2.168  15.436  0.2154 -0.9600  0.7311
 4080TIP3    H233732   6.835   2.118  15.347 -0.1210 -0.2503 -0.1007
 4081TIP3   OH233733   4.429   6.647  14.531  0.1915 -0.0325  0.0578
 4081TIP3    H133734   4.425   6.732  14.488 -2.1858 -0.5407 -0.9032
 4081TIP3    H233735   4.386   6.660  14.615 -0.6316 -0.3583 -0.2997
 4082TIP3   OH233736   5.374   1.881   1.392 -0.7705  0.0600 -0.1883
 4082TIP3    H133737   5.403   1.971   1.381 -0.0391 -0.1185  0.2495
 4082TIP3    H233738   5.285   1.889   1.426 -0.7310  0.6173 -0.2067
 4083TIP3   OH233739   6.193   1.695   4.076  0.0308 -0.1409 -0.3810
 4083TIP3    H133740   6.193   1.731   4.164 -2.4380 -1.4690  0.2406
 4083TIP3    H233741   6.233   1.608   4.086  0.0185 -0.1751 -0.6168
 4084TIP3   OH233742   5.226   5.485   0.384  0.0342 -0.2238 -0.6184
 4084TIP3    H133743   5.200   5.554   0.445 -0.6677 -0.6000 -0.4859
 4084TIP3    H233744   5.310   5.454   0.417  0.6043  0.8946 -0.9565
 4085TIP3   OH233745   0.090   1.796   5.615  0.9815  0.5064 -0.0096
 4085TIP3    H133746   0.088   1.826   5.705  0.7245 -0.4237  0.3114
 4085TIP3    H233747   0.149   1.856   5.570 -0.7878  2.5227  0.2070
 4086TIP3   OH233748   3.012   0.510   2.941 -0.0708 -0.5859  0.1222
 4086TIP3    H133749   2.926   0.481   2.970 -0.8464  0.2185 -1.3208
 4086TIP3    H233750   3.058   0.428   2.920 -0.3742 -1.0296  1.0976
 4087TIP3   OH233751   1.719   6.505  13.482  0.0331 -0.2004  0.2543
 4087TIP3    H133752   1.775   6.434  13.451  1.2470  0.2862  1.2011
 4087TIP3    H233753   1.767   6.585  13.459 -0.1560  0.2287  1.2670
 4088TIP3   OH233754   0.173   6.796   5.017  0.0445 -0.6905  0.1956
 4088TIP3    H133755   0.256   6.781   4.972  0.4465  0.6803  0.4381
 4088TIP3    H233756   0.123   6.851   4.957  0.5101  0.9974  1.2837
 4089TIP3   OH233757   0.040   4.499  14.286 -0.3765  0.6682  0.3607
 4089TIP3    H133758   0.052   4.506  14.381 -1.0149  1.0847  0.4237
 4089TIP3    H233759  -0.046   4.539  14.270 -0.3370  0.4796 -0.3783
 4090TIP3   OH233760   4.871   6.711   5.473 -0.5669 -0.1877 -0.3908
 4090TIP3    H133761   4.923   6.675   5.401 -0.0922  0.1413 -0.2175
 4090TIP3    H233762   4.845   6.634   5.524 -0.1825 -0.3540 -0.4375
 4091TIP3   OH233763   3.259   4.335   5.950  0.0139 -0.1036  0.1242
 4091TIP3    H133764   3.242   4.360   6.040 -0.7069 -0.1700  0.0129
 4091TIP3    H233765   3.351   4.309   5.949  0.4468  1.3482  0.5006
 4092TIP3   OH233766   1.603   4.049   4.265 -0.2103 -0.7776 -0.0968
 4092TIP3    H133767   1.651   4.125   4.234  1.3074 -1.9020 -0.6352
 4092TIP3    H233768   1.666   4.000   4.318 -1.5563 -0.9876  1.4176
 4093TIP3   OH233769   5.771   2.869  16.197 -0.0174  0.3145 -0.3250
 4093TIP3    H133770   5.820   2.947  16.222  0.8572  0.2786 -1.8021
 4093TIP3    H233771   5.705   2.900  16.136 -1.3076  0.2223  0.9545
 4094TIP3   OH233772   0.408   2.906   3.932 -0.0938 -0.1478 -0.6091
 4094TIP3    H133773   0.393   2.826   3.983 -1.6356  1.7694  2.2279
 4094TIP3    H233774   0.504   2.911   3.923  0.1036 -1.6530  0.2590
 4095TIP3   OH233775   1.149   5.182  12.531  0.0664  0.2532 -0.3585
 4095TIP3    H133776   1.219   5.121  12.505 -0.3222 -0.0225 -0.7900
 4095TIP3    H233777   1.072   5.151  12.482  0.0767  1.6429 -1.2974
 4096TIP3   OH233778   6.566   6.365   2.710  0.8001  0.4105  0.1266
 4096TIP3    H133779   6.536   6.282   2.672  0.5974 -0.4561  2.0914
 4096TIP3    H233780   6.655   6.376   2.677 -0.0372  0.7827 -2.2295
 4097TIP3   OH233781   0.264   2.129  13.886  0.0895 -0.6019 -0.1762
 4097TIP3    H133782   0.296   2.091  13.805 -0.3138 -1.7394  0.1770
 4097TIP3    H233783   0.169   2.127  13.878  0.0579  0.4146 -0.1756
 4098TIP3   OH233784   5.619   3.286   0.732 -0.7022 -0.1558  1.0511
 4098TIP3    H133785   5.549   3.348   0.712 -0.8635 -1.0299 -1.4252
 4098TIP3    H233786   5.574   3.206   0.761 -0.5464  0.3176  2.7274
 4099TIP3   OH233787   6.564   4.111   2.463  0.0707 -0.2223  0.1821
 4099TIP3    H133788   6.488   4.098   2.406 -0.2650  0.2408  0.5207
 4099TIP3    H233789   6.576   4.206   2.467  1.5557 -0.3107 -1.0151
 4100TIP3   OH233790   2.751   2.175   4.324 -0.2672  0.2882 -0.2219
 4100TIP3    H133791   2.738   2.212   4.237  2.1563 -0.7040 -1.0972
 4100TIP3    H233792   2.779   2.085   4.308 -1.5300 -0.5156  1.6866
 4101TIP3   OH233793   5.650   5.194  16.954 -0.1414  0.5595  0.0836
 4101TIP3    H133794   5.589   5.217  17.025 -0.8064  1.2966 -0.7016
 4101TIP3    H233795   5.663   5.276  16.907  1.3030  0.3596  0.0963
 4102TIP3   OH233796   2.584   1.158  11.937  0.3153 -0.3276 -0.6055
 4102TIP3    H133797   2.559   1.098  11.867  0.2896  0.9353 -1.7280
 4102TIP3    H233798   2.680   1.155  11.938  0.3622  0.4580 -1.4624
 4103TIP3   OH233799   6.595   2.720  11.371 -0.1771  0.0320 -0.4771
 4103TIP3    H133800   6.539   2.668  11.314  1.2005 -1.1251 -0.8514
 4103TIP3    H233801   6.635   2.656  11.430 -0.9047  1.0965  1.2433
 4104TIP3   OH233802   1.957   2.473   3.096 -0.3555 -0.4344  0.2645
 4104TIP3    H133803   1.989   2.449   3.009  0.8810  0.9243  0.3075
 4104TIP3    H233804   2.021   2.536   3.129 -0.5989 -1.1825  2.3192
 4105TIP3   OH233805   2.501   3.609  10.428 -0.2007 -0.5620 -0.1892
 4105TIP3    H133806   2.442   3.659  10.371 -1.3734 -1.5839  0.0966
 4105TIP3    H233807   2.458   3.525  10.440  0.5833 -0.7866  1.2866
 4106TIP3   OH233808   4.852   5.080   4.287  0.1659 -0.8144  0.2016
 4106TIP3    H133809   4.878   5.077   4.379 -0.2180 -3.2407  0.2824
 4106TIP3    H233810   4.764   5.118   4.288  0.0334 -1.1344  0.8824
 4107TIP3   OH233811   5.612   2.458  12.712 -0.1672  0.9589 -0.3317
 4107TIP3    H133812   5.628   2.374  12.755  1.1881  2.1392  1.6059
 4107TIP3    H233813   5.636   2.442  12.620  1.0885 -0.4868  0.1975
 4108TIP3   OH233814   4.498   0.360  16.403 -0.5206 -0.1253 -0.4639
 4108TIP3    H133815   4.490   0.455  16.398  4.2295  0.5349  0.3260
 4108TIP3    H233816   4.561   0.337  16.335 -0.4530 -2.5028  0.3092
 4109TIP3   OH233817   0.880   5.824  13.151 -0.1135  0.0254  1.0908
 4109TIP3    H133818   0.839   5.877  13.219  0.4784  0.5438  1.0584
 4109TIP3    H233819   0.811   5.809  13.087 -0.9722 -1.3613  2.2844
 4110TIP3   OH233820   0.058   5.032   4.905  0.1746 -0.2976 -0.1889
 4110TIP3    H133821   0.023   5.109   4.950 -0.2267 -0.0632 -0.8881
 4110TIP3    H233822  -0.014   5.004   4.848 -0.1805 -1.9616  0.9883
 4111TIP3   OH233823   3.948   5.710  15.046 -1.0100 -0.6261 -0.2189
 4111TIP3    H133824   3.866   5.661  15.044 -0.6817 -1.1664 -0.8124
 4111TIP3    H233825   3.928   5.789  15.097 -1.6020 -1.2667  0.5509
 4112TIP3   OH233826   5.072   4.338  14.354  0.3772 -0.5739 -0.0681
 4112TIP3    H133827   5.154   4.306  14.391 -0.1502 -0.2829  1.4180
 4112TIP3    H233828   5.096   4.417  14.306  0.9957 -0.6010  0.1852
 4113TIP3   OH233829   2.036   6.280  12.703  0.8819 -0.4285  0.2324
 4113TIP3    H133830   2.046   6.367  12.665  1.5950 -0.1224  1.0880
 4113TIP3    H233831   2.119   6.236  12.687  0.4852 -1.0095 -0.3046
 4114TIP3   OH233832   4.814   0.043  12.205  0.3502  0.0883  0.7829
 4114TIP3    H133833   4.766   0.118  12.240  1.5676  1.5650 -0.6158
 4114TIP3    H233834   4.866   0.011  12.279  0.1053  0.8497  1.2893
 4115TIP3   OH233835   2.892   6.008   2.849 -0.4789 -0.0819  0.0982
 4115TIP3    H133836   2.957   5.992   2.781  0.2741 -0.2026  0.8267
 4115TIP3    H233837   2.887   6.103   2.857 -1.9758  0.0051 -1.4262
 4116TIP3   OH233838   2.462   4.480   6.021 -0.3063  0.0442  0.3973
 4116TIP3    H133839   2.537   4.486   6.081 -0.1462  0.7564  0.1385
 4116TIP3    H233840   2.475   4.553   5.960 -2.0878  1.2312  1.3501
 4117TIP3   OH233841   1.052   2.315  12.207  0.2677 -0.3941  0.5570
 4117TIP3    H133842   0.982   2.264  12.248 -0.0063  1.0121  1.9287
 4117TIP3    H233843   1.131   2.285  12.252  0.7991 -2.7087 -1.6739
 4118TIP3   OH233844   6.139   6.570  14.808  0.7236 -0.4428  0.0183
 4118TIP3    H133845   6.119   6.509  14.878 -1.7984 -0.6613 -0.7932
 4118TIP3    H233846   6.132   6.517  14.728  1.6802  0.2158 -0.5171
 4119TIP3   OH233847   1.089   0.461  12.241  0.0264 -0.1050  0.1048
 4119TIP3    H133848   1.095   0.365  12.243  1.8992 -0.0188  0.3297
 4119TIP3    H233849   1.010   0.481  12.292 -1.6409 -1.5859 -1.7496
 4120TIP3   OH233850   1.762   0.655   2.750 -0.1290  0.6173 -0.0956
 4120TIP3    H133851   1.805   0.740   2.749 -0.1415  0.6256 -0.0042
 4120TIP3    H233852   1.738   0.642   2.842  1.6595 -0.3764  0.2774
 4121TIP3   OH233853   2.704   6.719   1.705  0.3547 -0.2028 -0.2570
 4121TIP3    H133854   2.769   6.782   1.673  0.3725 -0.8577 -1.6181
 4121TIP3    H233855   2.755   6.657   1.758  0.1719  1.4503  1.9670
 4122TIP3   OH233856   5.549   5.695  15.487 -0.1323  0.2081  0.6521
 4122TIP3    H133857   5.621   5.670  15.430 -0.6072  1.6581 -0.6499
 4122TIP3    H233858   5.574   5.662  15.574  0.6498 -1.9754 -0.3407
 4123TIP3   OH233859   3.814   0.692   1.978 -0.3038  0.1969 -0.5138
 4123TIP3    H133860   3.802   0.763   1.914 -0.0169  0.3764 -0.3664
 4123TIP3    H233861   3.879   0.635   1.938  0.2364  0.5621 -0.1702
 4124TIP3   OH233862   3.776   2.537  12.325 -0.1907  0.1503  0.4385
 4124TIP3    H133863   3.778   2.557  12.419 -1.1464  1.5656  0.1755
 4124TIP3    H233864   3.686   2.509  12.308 -0.0315 -0.0653 -0.0716
 4125TIP3   OH233865   1.663   0.904   3.671 -0.2201  0.0545 -0.5641
 4125TIP3    H133866   1.637   0.946   3.754  1.3279  0.2690 -0.1643
 4125TIP3    H233867   1.663   0.811   3.690  2.0593  0.1754  0.3168
 4126TIP3   OH233868   5.373   2.216  16.970  0.2287  0.0928 -0.8343
 4126TIP3    H133869   5.356   2.298  16.924 -3.5431  1.8902  3.0415
 4126TIP3    H233870   5.432   2.241  17.042 -1.4524 -0.3009  0.7575
 4127TIP3   OH233871   6.557   1.409  11.331  0.1224 -0.1122  0.0077
 4127TIP3    H133872   6.466   1.420  11.303 -0.5378 -1.7002  1.3165
 4127TIP3    H233873   6.605   1.389  11.250 -0.7637  0.3440 -0.6447
 4128TIP3   OH233874   3.515   2.995  15.975  0.5245  0.2771 -0.3394
 4128TIP3    H133875   3.572   2.925  16.007  0.5141  1.4169  2.3963
 4128TIP3    H233876   3.575   3.066  15.953  0.3258  0.7450  0.5820
 4129TIP3   OH233877   0.246   0.609   3.925  0.1769  0.4309  0.0210
 4129TIP3    H133878   0.317   0.618   3.862  0.0251 -1.4946 -0.4791
 4129TIP3    H233879   0.265   0.529   3.973 -1.6999 -0.2057 -0.1943
 4130TIP3   OH233880   2.154   0.615   4.459  0.5958 -0.7209 -0.1007
 4130TIP3    H133881   2.101   0.539   4.482 -0.6144  0.2136  0.2822
 4130TIP3    H233882   2.095   0.690   4.466  1.5128  0.1848 -1.3351
 4131TIP3   OH233883   3.138   0.810   0.967 -0.4877 -0.5442 -0.1053
 4131TIP3    H133884   3.188   0.752   0.910 -1.7997 -0.2341 -1.6548
 4131TIP3    H233885   3.193   0.888   0.976 -0.7322 -0.1182 -1.9586
 4132TIP3   OH233886   3.294   4.268   5.294  0.1448  0.2756  0.5214
 4132TIP3    H133887   3.230   4.207   5.258  0.2602 -0.5730  1.6973
 4132TIP3    H233888   3.356   4.213   5.341  0.0936  1.2961  1.8562
 4133TIP3   OH233889   6.284   5.933  15.844 -0.1168 -0.0367  0.1029
 4133TIP3    H133890   6.304   6.006  15.784  1.3483 -1.0075 -0.6566
 4133TIP3    H233891   6.359   5.930  15.904 -1.1150  0.3093  1.4017
 4134TIP3   OH233892   6.407   6.680  15.429  0.1300  0.5097 -0.3949
 4134TIP3    H133893   6.337   6.654  15.490 -0.3348 -0.1583 -1.1930
 4134TIP3    H233894   6.488   6.669  15.479 -0.2566  0.0900  0.1491
 4135TIP3   OH233895   2.852   2.295  15.104 -0.7180 -0.0754  0.1722
 4135TIP3    H133896   2.778   2.239  15.128  0.4344 -1.1322  1.4886
 4135TIP3    H233897   2.863   2.353  15.180  1.4105 -1.7551  1.2753
 4136TIP3   OH233898   6.412   1.718  13.587  0.0287  0.1779  0.1236
 4136TIP3    H133899   6.385   1.665  13.661 -0.2186 -0.9305 -0.7405
 4136TIP3    H233900   6.352   1.694  13.516  1.0530  0.2657 -0.8066
 4137TIP3   OH233901   1.808   0.919   2.823  0.7859  0.2773  0.5440
 4137TIP3    H133902   1.862   0.931   2.901  0.9265  2.4492  0.1831
 4137TIP3    H233903   1.738   0.983   2.832 -0.9792 -1.5414  0.3229
 4138TIP3   OH233904   2.495   2.358  13.526  0.8283 -0.2408 -0.4349
 4138TIP3    H133905   2.502   2.400  13.612  2.4831  0.3498 -0.8233
 4138TIP3    H233906   2.585   2.345  13.498  0.3228 -0.3587 -2.1252
 4139TIP3   OH233907   6.658   3.524  12.699 -0.0634  0.2960  0.0431
 4139TIP3    H133908   6.705   3.578  12.636  0.8011 -1.2543 -0.7056
 4139TIP3    H233909   6.593   3.477  12.646 -0.6026  0.3808  0.6224
 4140TIP3   OH233910   5.702   2.851  14.131 -0.3168  0.8344  0.3717
 4140TIP3    H133911   5.673   2.869  14.220  1.1007  1.4804  0.7291
 4140TIP3    H233912   5.797   2.855  14.135 -0.1580 -0.6338 -0.8677
 4141TIP3   OH233913   4.863   1.299   2.062 -0.3664  0.2705  0.2565
 4141TIP3    H133914   4.803   1.371   2.085  0.5113  0.5635  1.7213
 4141TIP3    H233915   4.950   1.339   2.062 -0.2012  0.4112 -4.1032
 4142TIP3   OH233916   1.929   1.802  12.960 -0.4572 -0.7894 -0.5625
 4142TIP3    H133917   1.988   1.862  12.915 -1.4602  0.6377 -0.0527
 4142TIP3    H233918   1.854   1.793  12.902 -1.2587  0.1816  0.2725
 4143TIP3   OH233919   1.953   6.080  11.955  0.0488  0.1516  0.1926
 4143TIP3    H133920   1.982   6.108  12.042  1.2176  1.2762 -0.5365
 4143TIP3    H233921   1.997   6.139  11.894 -0.4218 -0.8852 -1.2070
 4144TIP3   OH233922   1.434   2.851  12.536  0.3808  0.0217 -0.2993
 4144TIP3    H133923   1.483   2.770  12.547 -0.4403 -0.4034  0.3072
 4144TIP3    H233924   1.353   2.826  12.492  1.2354  0.9173 -2.4947
 4145TIP3   OH233925   0.675   4.051   5.168  0.6742 -0.2102  0.6019
 4145TIP3    H133926   0.735   4.105   5.219 -0.5403 -0.0748  1.9508
 4145TIP3    H233927   0.697   3.961   5.193  1.1570 -0.2266  0.1225
 4146TIP3   OH233928   0.861   6.810  13.375  0.3686  0.2821 -0.6096
 4146TIP3    H133929   0.807   6.733  13.391 -0.8984  1.3472  0.4682
 4146TIP3    H233930   0.922   6.812  13.448  1.0036 -0.1750 -1.1150
 4147TIP3   OH233931   0.611   3.240   6.322 -0.2225  0.0756 -0.2835
 4147TIP3    H133932   0.697   3.227   6.283 -0.4463  1.2413 -1.2004
 4147TIP3    H233933   0.581   3.151   6.345  1.2019 -0.3400  0.0607
 4148TIP3   OH233934   5.073   5.876  13.131 -0.0246  1.1289 -0.0217
 4148TIP3    H133935   5.139   5.810  13.113  0.4439  1.6482 -0.2488
 4148TIP3    H233936   5.123   5.955  13.151 -0.5553  1.7806 -1.1447
 4149TIP3   OH233937   5.947   3.058  16.321 -0.3579 -0.5921  0.3671
 4149TIP3    H133938   5.989   3.080  16.404 -1.4936  3.2560  0.1492
 4149TIP3    H233939   6.013   3.076  16.254 -0.4203 -0.5562  0.3146
 4150TIP3   OH233940   4.780   4.184   2.963  0.2874 -0.3420  0.3729
 4150TIP3    H133941   4.847   4.249   2.982  0.4242  0.2060 -1.7326
 4150TIP3    H233942   4.739   4.166   3.047  2.0082  0.4954  1.4385
 4151TIP3   OH233943   2.743   2.558  12.712  0.3331  0.4224 -0.7243
 4151TIP3    H133944   2.685   2.500  12.761  0.3079  0.2465 -0.9614
 4151TIP3    H233945   2.686   2.630  12.684  0.2205  0.2411 -0.9732
 4152TIP3   OH233946   1.940   4.006   3.334  0.1333  0.1979  0.2973
 4152TIP3    H133947   1.909   3.953   3.261 -0.0610 -1.1537  1.3373
 4152TIP3    H233948   2.036   3.999   3.330  0.1216  0.0948  0.2105
 4153TIP3   OH233949   5.312   2.038  17.210  0.0371 -0.6043  0.9308
 4153TIP3    H133950   5.337   2.111  17.154  2.0949 -0.9061  1.3656
 4153TIP3    H233951   5.249   2.074  17.272 -0.8805  0.1628 -0.4281
 4154TIP3   OH233952   5.600   1.729   4.755 -0.3511  0.3674  0.3160
 4154TIP3    H133953   5.560   1.665   4.814 -1.8046  1.0096  0.0633
 4154TIP3    H233954   5.529   1.756   4.697  0.8828  0.2264 -1.3338
 4155TIP3   OH233955   5.467   3.564  12.501  0.6793 -0.1496 -0.0430
 4155TIP3    H133956   5.437   3.541  12.414 -0.8756  1.0756  0.1249
 4155TIP3    H233957   5.400   3.529  12.560  0.5104  1.0168  0.4856
 4156TIP3   OH233958   2.420   1.054   4.531 -0.3398 -0.0244  0.0780
 4156TIP3    H133959   2.337   1.049   4.483 -0.1805 -0.2777 -0.1729
 4156TIP3    H233960   2.487   1.050   4.463 -0.1051 -0.6258  0.3377
 4157TIP3   OH233961   4.528   5.593  15.365  0.0553  0.3439 -0.4419
 4157TIP3    H133962   4.496   5.683  15.368  0.8344  0.6193 -0.0580
 4157TIP3    H233963   4.623   5.602  15.358  0.1795 -0.4463  0.1350
 4158TIP3   OH233964   0.624   5.190  16.461 -0.7315 -0.2043  0.2546
 4158TIP3    H133965   0.634   5.138  16.541  0.0311 -0.5488 -0.0609
 4158TIP3    H233966   0.562   5.140  16.408  0.1410 -0.9018 -0.1258
 4159TIP3   OH233967   3.463   1.514   0.876 -0.3721 -0.0552 -0.0780
 4159TIP3    H133968   3.518   1.484   0.804  1.8574 -0.4296  1.6955
 4159TIP3    H233969   3.472   1.610   0.874  1.2453 -0.1500  0.7965
 4160TIP3   OH233970   3.747   2.195   4.118  0.1802 -0.0409  0.7345
 4160TIP3    H133971   3.775   2.281   4.086 -1.4248  0.0344 -0.5888
 4160TIP3    H233972   3.657   2.209   4.147 -0.0883 -1.2682  0.5395
 4161TIP3   OH233973   5.009   3.291  16.123 -0.0705  0.2606 -0.4349
 4161TIP3    H133974   5.006   3.375  16.169 -0.7552  0.4153 -0.7459
 4161TIP3    H233975   5.102   3.276  16.107  0.2091  0.0425  1.2659
 4162TIP3   OH233976   3.384   2.806   4.858  0.1801 -0.5314  0.0134
 4162TIP3    H133977   3.387   2.871   4.928  1.9252 -0.6259  0.0889
 4162TIP3    H233978   3.366   2.723   4.903 -1.3903 -0.2295 -0.0061
 4163TIP3   OH233979   0.733   3.894   3.346 -0.1563 -0.7967 -0.6986
 4163TIP3    H133980   0.821   3.877   3.311  0.2444 -1.2601  0.4929
 4163TIP3    H233981   0.674   3.845   3.288  0.1256  1.1695 -2.7882
 4164TIP3   OH233982   5.882   6.586   1.046  0.0374  0.3487  0.2253
 4164TIP3    H133983   5.947   6.614   1.112  1.1150 -0.7672 -0.3265
 4164TIP3    H233984   5.934   6.547   0.976 -1.1897  0.2455 -0.6628
 4165TIP3   OH233985   1.683   0.002   0.259 -0.1216  0.5217 -0.0361
 4165TIP3    H133986   1.656   0.022   0.169 -0.2729  0.8289  0.0771
 4165TIP3    H233987   1.721   0.083   0.292  1.1987  0.0239 -0.2745
 4166TIP3   OH233988   1.693   2.760  16.187 -0.4260 -0.2685 -0.0666
 4166TIP3    H133989   1.695   2.669  16.216  1.2628 -0.4787 -0.7354
 4166TIP3    H233990   1.720   2.810  16.265  0.3977 -0.5103 -0.1851
 4167TIP3   OH233991   4.799   2.976   1.837 -0.0625  0.5378 -0.2286
 4167TIP3    H133992   4.741   3.051   1.855  0.2049  0.3468  1.5858
 4167TIP3    H233993   4.840   2.957   1.921  0.9783 -0.7460 -0.9960
 4168TIP3   OH233994   5.806   3.247  11.494  0.4353 -0.1043 -0.1027
 4168TIP3    H133995   5.871   3.226  11.561 -0.9885 -4.3378  0.2811
 4168TIP3    H233996   5.732   3.283  11.543  0.5068 -0.4054  0.2336
 4169TIP3   OH233997   4.890   5.646  14.346 -0.3549  0.4701  0.0993
 4169TIP3    H133998   4.936   5.627  14.428  2.0693  2.4945 -0.6253
 4169TIP3    H233999   4.836   5.723  14.367 -0.7544  0.1809  0.1242
 4170TIP3   OH234000   1.913   1.547  14.058  0.1583  0.2964  0.3517
 4170TIP3    H134001   1.965   1.478  14.016 -0.5593 -1.0757  1.6217
 4170TIP3    H234002   1.925   1.623  14.001  3.2980 -0.0069  0.4027
 4171TIP3   OH234003   1.756   6.761   4.393  0.0656 -0.4071  0.4623
 4171TIP3    H134004   1.827   6.794   4.337  0.1096  0.1171  0.8130
 4171TIP3    H234005   1.801   6.725   4.469 -0.0313 -0.2631  0.5891
 4172TIP3   OH234006   6.215   1.470  12.984  0.2124  0.2009 -0.2569
 4172TIP3    H134007   6.293   1.416  12.969 -0.0155  0.0078 -0.7514
 4172TIP3    H234008   6.209   1.526  12.908  0.6549  1.2086  0.4244
 4173TIP3   OH234009   4.392   5.797  15.472  0.1661 -0.5344 -0.1067
 4173TIP3    H134010   4.371   5.723  15.528 -0.7213 -0.3206 -0.1387
 4173TIP3    H234011   4.383   5.874  15.529  1.5711 -0.4686  0.0602
 4174TIP3   OH234012   0.268   1.043   0.204 -0.5142  0.0603 -0.2830
 4174TIP3    H134013   0.353   1.010   0.234 -1.5135 -1.7900  0.6665
 4174TIP3    H234014   0.240   1.105   0.272 -0.7564 -0.7580  0.3782
 4175TIP3   OH234015   6.060   0.296  15.303 -0.7606 -0.3173  0.3136
 4175TIP3    H134016   6.114   0.224  15.272  1.0546  0.5128  1.3392
 4175TIP3    H234017   6.105   0.375  15.272  0.7649  0.5299  4.1034
 4176TIP3   OH234018   1.093   0.314  17.000  0.3773 -0.2878  0.2143
 4176TIP3    H134019   1.149   0.244  17.033  0.9943  0.4526  0.7713
 4176TIP3    H234020   1.039   0.338  17.076  0.1296 -0.1863  0.0077
 4177TIP3   OH234021   6.306   5.331  12.192  0.6961 -0.0751 -0.1313
 4177TIP3    H134022   6.337   5.419  12.214 -0.4974  0.0916  0.9507
 4177TIP3    H234023   6.239   5.311  12.257  0.5478 -1.5771 -0.6915
 4178TIP3   OH234024   0.578   4.195   2.293 -0.2262  0.1853 -0.5044
 4178TIP3    H134025   0.570   4.203   2.198 -0.1871  1.3736 -0.4254
 4178TIP3    H234026   0.489   4.212   2.326 -0.2379 -0.2144 -0.3330
 4179TIP3   OH234027   3.873   6.332   2.454 -0.2361 -0.2319 -0.4028
 4179TIP3    H134028   3.779   6.321   2.466  0.0264 -1.7580  0.4916
 4179TIP3    H234029   3.881   6.397   2.385 -1.9558 -0.8959 -1.2745
 4180TIP3   OH234030   1.683   2.695  12.999 -0.2053  0.2200  0.9207
 4180TIP3    H134031   1.769   2.664  13.026  0.1545  0.2757 -0.1041
 4180TIP3    H234032   1.656   2.633  12.931 -1.7753 -0.8541  2.4479
 4181TIP3   OH234033   2.463   6.176   2.949 -0.1431 -0.6477 -0.8380
 4181TIP3    H134034   2.439   6.083   2.944 -0.7358 -0.5704  0.1917
 4181TIP3    H234035   2.543   6.177   3.002  0.6789 -0.6794 -2.0500
 4182TIP3   OH234036   4.280   1.725   3.808 -0.7340  0.0556 -0.6851
 4182TIP3    H134037   4.314   1.712   3.896 -2.9581  0.4286  0.3093
 4182TIP3    H234038   4.357   1.742   3.754  0.6173  0.9287  1.3968
 4183TIP3   OH234039   5.002   3.905  15.085 -0.3427  0.0152  0.0368
 4183TIP3    H134040   4.927   3.924  15.140 -0.1182 -0.1704  0.4134
 4183TIP3    H234041   5.049   3.836  15.131  0.0402  0.1040 -0.2111
 4184TIP3   OH234042   5.229   4.852  15.510  0.1207 -0.3849  0.5168
 4184TIP3    H134043   5.321   4.879  15.508 -0.0931  0.3179 -0.9651
 4184TIP3    H234044   5.192   4.898  15.585  0.2724  1.8682 -0.7084
 4185TIP3   OH234045   1.333   6.033  16.850 -0.2382  0.1278 -0.2948
 4185TIP3    H134046   1.427   6.047  16.855 -0.1100 -0.9449  0.7578
 4185TIP3    H234047   1.318   6.006  16.759  0.5157 -0.0043 -0.3871
 4186TIP3   OH234048   3.098   6.653   3.303  0.1401 -0.4031 -0.6953
 4186TIP3    H134049   3.042   6.585   3.341  1.5625 -0.8100  0.7938
 4186TIP3    H234050   3.086   6.644   3.208 -0.0710 -2.4136 -0.5134
 4187TIP3   OH234051   6.608   4.388   3.067  0.1173 -0.2793  0.1834
 4187TIP3    H134052   6.587   4.295   3.081 -2.7062  0.3154  0.4620
 4187TIP3    H234053   6.648   4.391   2.980 -1.8859 -1.5266 -0.8436
 4188TIP3   OH234054   4.264   3.665   2.297 -0.1737 -0.3332  0.0914
 4188TIP3    H134055   4.287   3.752   2.265 -0.3713 -0.4432 -0.3620
 4188TIP3    H234056   4.173   3.653   2.271  0.1551 -1.0887 -0.8195
 4189TIP3   OH234057   4.009   6.675   0.920  0.1523  0.2423  0.5888
 4189TIP3    H134058   4.066   6.640   0.989 -0.1288 -0.3814  0.5096
 4189TIP3    H234059   3.990   6.600   0.864  0.4531  0.7674 -0.2340
 4190TIP3   OH234060   4.840   4.217  17.134  0.5549 -0.1401 -0.0395
 4190TIP3    H134061   4.816   4.186  17.047  0.1350  0.0461  0.0045
 4190TIP3    H234062   4.758   4.211  17.184  0.3582  1.3756 -0.1328
 4191TIP3   OH234063   1.764   5.532   3.890 -0.1404 -0.1631 -0.1799
 4191TIP3    H134064   1.728   5.620   3.904 -3.2851 -0.9641 -2.2075
 4191TIP3    H234065   1.691   5.473   3.909  1.5562 -2.3200  0.0191
 4192TIP3   OH234066   2.145   3.587   1.760  0.0524  0.2251  0.0856
 4192TIP3    H134067   2.104   3.594   1.673  1.7824 -1.3001 -0.9074
 4192TIP3    H234068   2.204   3.662   1.764  0.1042  0.1972 -0.1274
 4193TIP3   OH234069   4.565   4.378  15.335  0.0657 -0.5049 -0.0699
 4193TIP3    H134070   4.594   4.351  15.248  1.1388 -0.4700  0.2553
 4193TIP3    H234071   4.632   4.343  15.394 -1.4978 -1.9833  0.9396
 4194TIP3   OH234072   6.393   4.820   2.851  0.1132  0.6024 -0.3877
 4194TIP3    H134073   6.346   4.881   2.795  0.4845 -0.0067 -1.3908
 4194TIP3    H234074   6.444   4.876   2.911 -0.3683  1.2586 -0.5829
 4195TIP3   OH234075   5.980   0.717  16.491 -0.3284 -0.1350  0.8064
 4195TIP3    H134076   6.028   0.681  16.417 -0.2035  0.5636  0.5412
 4195TIP3    H234077   5.893   0.737  16.456 -0.0678  0.8151  0.6552
 4196TIP3   OH234078   2.287   1.537   0.276  0.3316  0.0529 -0.0522
 4196TIP3    H134079   2.205   1.522   0.322  0.5921 -1.8946 -0.1379
 4196TIP3    H234080   2.324   1.616   0.317 -0.0175 -0.9060  2.2603
 4197TIP3   OH234081   0.679   2.215   4.325 -0.1461  0.1275 -0.3487
 4197TIP3    H134082   0.731   2.228   4.404  0.2864  1.5241 -0.8267
 4197TIP3    H234083   0.720   2.272   4.260 -1.2430 -0.0444 -1.2225
 4198TIP3   OH234084   2.140   2.233  16.005  0.3988 -0.1485 -0.1785
 4198TIP3    H134085   2.194   2.199  16.077  0.3267 -3.0588 -1.3607
 4198TIP3    H234086   2.197   2.227  15.928 -0.3244  0.5683 -0.7743
 4199TIP3   OH234087   0.297   1.733  11.999  0.4527 -0.4223 -0.8614
 4199TIP3    H134088   0.321   1.731  12.092  0.3962  3.4521 -0.6166
 4199TIP3    H234089   0.203   1.717  11.998  0.7327 -2.2819 -0.4910
 4200TIP3   OH234090   5.863   3.361   2.759  0.3461 -0.3339  0.1303
 4200TIP3    H134091   5.852   3.271   2.790  0.6858  0.2954  2.2172
 4200TIP3    H234092   5.821   3.415   2.826  0.3971  1.0984 -0.9352
 4201TIP3   OH234093   3.329   6.583  16.826 -0.1512  0.1102  0.0869
 4201TIP3    H134094   3.251   6.575  16.770 -0.4905  0.6747  0.4738
 4201TIP3    H234095   3.336   6.676  16.844  1.2654  0.2199 -0.8438
 4202TIP3   OH234096   0.757   4.607  10.344 -0.1891  0.0199 -0.2807
 4202TIP3    H134097   0.761   4.558  10.262  1.6485  0.1566 -0.3172
 4202TIP3    H234098   0.698   4.680  10.326  0.9792  0.6236 -1.8259
 4203TIP3   OH234099   2.752   5.713   0.878  0.0047 -0.6400 -0.1505
 4203TIP3    H134100   2.716   5.799   0.859 -0.5974 -1.1573 -1.4951
 4203TIP3    H234101   2.682   5.668   0.926 -1.1749 -1.5583 -2.5445
 4204TIP3   OH234102   3.363   0.304  14.248  0.2528 -0.1715 -0.0912
 4204TIP3    H134103   3.298   0.251  14.202  0.9138 -0.5320 -0.6482
 4204TIP3    H234104   3.314   0.352  14.315 -0.3545 -1.6181  0.5417
 4205TIP3   OH234105   1.485   6.714   4.445  0.5071  0.8535  0.0295
 4205TIP3    H134106   1.458   6.689   4.356  1.6455  2.0093 -0.6851
 4205TIP3    H234107   1.574   6.747   4.434  1.2649 -0.4547  1.8842
 4206TIP3   OH234108   0.941   6.202  16.226 -0.0722  0.2626  0.1207
 4206TIP3    H134109   0.934   6.213  16.321  1.2101 -0.1069  0.2679
 4206TIP3    H234110   0.851   6.210  16.195 -0.3103  2.0479  1.1758
 4207TIP3   OH234111   2.489   3.652   0.285  0.3291 -0.5162 -0.4187
 4207TIP3    H134112   2.561   3.715   0.297 -0.8240  0.4728  2.0229
 4207TIP3    H234113   2.532   3.568   0.275  1.8593  0.0422  1.0507
 4208TIP3   OH234114   2.055   6.049  15.325  0.5351 -0.1590  0.0279
 4208TIP3    H134115   1.962   6.026  15.317 -0.1117  1.4410  2.1385
 4208TIP3    H234116   2.086   5.997  15.399  1.5989 -1.3267 -1.1923
 4209TIP3   OH234117   0.891   0.248   1.733 -0.3451  0.1048 -0.0145
 4209TIP3    H134118   0.828   0.293   1.677 -1.3855  0.0770  1.0908
 4209TIP3    H234119   0.869   0.156   1.725  1.0715 -0.1465 -1.4129
 4210TIP3   OH234120   0.980   0.191   3.690  0.8821 -0.1321  0.2996
 4210TIP3    H134121   1.058   0.160   3.644  0.5710 -0.0830 -0.2792
 4210TIP3    H234122   1.013   0.235   3.767  1.4391  0.0865 -0.0599
 4211TIP3   OH234123   0.755   0.457   5.629 -0.3286 -0.4745  0.1796
 4211TIP3    H134124   0.795   0.420   5.707 -1.1432 -0.8225  0.4422
 4211TIP3    H234125   0.662   0.463   5.650 -0.6083 -0.8975 -0.8888
 4212TIP3   OH234126   2.017   6.626   3.931 -0.2034  0.6520 -0.1717
 4212TIP3    H134127   2.011   6.640   4.025  0.4731  1.7626 -0.2686
 4212TIP3    H234128   2.055   6.539   3.922 -0.5854  0.4023  0.5764
 4213TIP3   OH234129   3.038   3.572   2.845  0.0175 -0.6345 -0.4657
 4213TIP3    H134130   3.037   3.665   2.868  1.3656 -0.7075 -0.0217
 4213TIP3    H234131   3.098   3.532   2.908  0.0751 -1.6631 -1.1416
 4214TIP3   OH234132   2.055   2.187   3.899 -0.2638 -0.2752 -0.2702
 4214TIP3    H134133   2.024   2.192   3.989  0.8894 -0.9625  0.1767
 4214TIP3    H234134   2.038   2.275   3.863 -0.0476  0.2314  0.8335
 4215TIP3   OH234135   6.410   5.855   1.949 -0.6918  0.1576 -0.2261
 4215TIP3    H134136   6.503   5.849   1.972 -0.6200  0.0079 -0.5451
 4215TIP3    H234137   6.363   5.825   2.027 -0.4274 -1.3577 -0.6132
 4216TIP3   OH234138   3.233   0.677  12.033  0.5555 -0.3517  0.1561
 4216TIP3    H134139   3.187   0.754  12.068  0.4095 -0.9367  1.2969
 4216TIP3    H234140   3.222   0.610  12.100  0.8885 -1.3072 -0.7186
 4217TIP3   OH234141   5.531   1.292  15.214 -0.4774 -0.0165  0.1675
 4217TIP3    H134142   5.605   1.252  15.168  0.3204  2.9020 -1.3410
 4217TIP3    H234143   5.491   1.220  15.262  3.1536 -1.8336  0.8276
 4218TIP3   OH234144   6.740   5.440   4.070 -0.1167 -0.0863 -0.7379
 4218TIP3    H134145   6.827   5.470   4.042  1.2346 -1.0639  1.9556
 4218TIP3    H234146   6.707   5.390   3.995  1.3200  0.8901 -2.0978
 4219TIP3   OH234147   0.965   2.719   5.472  0.2469 -0.4642  0.5755
 4219TIP3    H134148   1.023   2.794   5.469 -0.9306  0.4593  0.3295
 4219TIP3    H234149   0.962   2.695   5.565 -0.0176  0.3161  0.7742
 4220TIP3   OH234150   0.275   3.355  15.864 -0.0895  0.9989 -0.0145
 4220TIP3    H134151   0.216   3.321  15.931  0.4322  0.5350  0.2110
 4220TIP3    H234152   0.240   3.319  15.782  0.1226  0.3701  0.1630
 4221TIP3   OH234153   6.444   5.459   1.143 -0.3652  0.3112 -0.0854
 4221TIP3    H134154   6.458   5.511   1.222  0.5499 -0.6868  0.4408
 4221TIP3    H234155   6.380   5.392   1.169  2.0087 -1.7830  0.7180
 4222TIP3   OH234156   5.257   1.861   4.419 -0.1201 -0.1260  0.0809
 4222TIP3    H134157   5.197   1.932   4.393 -2.5884 -2.4762 -1.1808
 4222TIP3    H234158   5.315   1.850   4.344 -0.2264  0.0738 -0.0336
 4223TIP3   OH234159   5.829   6.277   0.482 -0.1486  0.1361  0.4306
 4223TIP3    H134160   5.787   6.265   0.397 -0.6120  0.0841  0.6652
 4223TIP3    H234161   5.874   6.194   0.499  0.0073  0.1733  0.2027
 4224TIP3   OH234162   5.244   6.413   5.225 -0.1131 -0.2910  0.3822
 4224TIP3    H134163   5.297   6.487   5.254 -0.8428  0.8768 -1.0941
 4224TIP3    H234164   5.302   6.337   5.232  0.9576  0.5670  1.0456
 4225TIP3   OH234165   2.483   4.373   2.876  0.0291 -0.3651 -0.0268
 4225TIP3    H134166   2.447   4.460   2.859 -1.0914 -0.5338  1.3469
 4225TIP3    H234167   2.539   4.384   2.953  1.1959 -0.5627 -0.8103
 4226TIP3   OH234168   6.019   2.607   5.708 -0.3938  0.2387  0.1729
 4226TIP3    H134169   6.105   2.588   5.671 -1.0006  1.0253 -1.7423
 4226TIP3    H234170   5.999   2.696   5.678 -1.6607  0.2608  1.0206
 4227TIP3   OH234171   6.701   2.896  11.666  0.3847 -0.2401 -0.0197
 4227TIP3    H134172   6.683   2.944  11.747 -1.2136 -0.0621 -0.4405
 4227TIP3    H234173   6.623   2.912  11.612  2.2492  1.4164 -2.4512
 4228TIP3   OH234174   1.426   3.321   3.674  0.4797 -0.1154  0.2966
 4228TIP3    H134175   1.512   3.353   3.647  0.1267 -0.7393 -1.6742
 4228TIP3    H234176   1.413   3.241   3.623 -2.3870  1.3845 -1.5613
 4229TIP3   OH234177   3.629   3.120   5.407 -0.0532 -0.3093 -0.9298
 4229TIP3    H134178   3.580   3.038   5.406 -0.7104  0.0401  0.0118
 4229TIP3    H234179   3.562   3.187   5.422  0.5298  0.3461 -1.1989
 4230TIP3   OH234180   4.965   5.467   1.505 -0.1964  0.0403  0.2542
 4230TIP3    H134181   4.943   5.547   1.458 -0.1929 -1.0654 -1.7384
 4230TIP3    H234182   5.059   5.457   1.493 -0.1277 -0.0544  0.8460
 4231TIP3   OH234183   4.153   2.461  16.236 -0.2589 -0.2876  0.2818
 4231TIP3    H134184   4.246   2.442  16.219 -0.3318  0.0324 -0.5360
 4231TIP3    H234185   4.155   2.534  16.299  0.0212 -1.3943  1.6116
 4232TIP3   OH234186   6.253   2.795  12.431  0.0573  0.0585  0.0456
 4232TIP3    H134187   6.193   2.832  12.496  0.1572 -0.7718  0.6223
 4232TIP3    H234188   6.312   2.868  12.409  0.0197  0.3568  0.8886
 4233TIP3   OH234189   1.810   5.687  17.026  0.2169  0.0863  0.2509
 4233TIP3    H134190   1.778   5.770  17.062 -2.5167 -1.4758  1.7662
 4233TIP3    H234191   1.811   5.627  17.101 -1.4815 -2.1961 -1.4033
 4234TIP3   OH234192   2.318   3.571   0.059 -0.1122 -0.6442  0.1238
 4234TIP3    H134193   2.323   3.479   0.033 -0.5746 -1.3049  2.1526
 4234TIP3    H234194   2.375   3.577   0.136 -0.9164  0.4866  0.6595
 4235TIP3   OH234195   2.997   6.653   3.896  0.0054 -0.8649  0.1845
 4235TIP3    H134196   3.035   6.651   3.808  1.9989  0.5765  0.9193
 4235TIP3    H234197   2.905   6.677   3.882  0.7348  1.3224 -1.4472
 4236TIP3   OH234198   3.721   3.631   4.650 -0.1160  0.7438 -0.1326
 4236TIP3    H134199   3.639   3.587   4.628  0.5851 -0.0900 -1.2075
 4236TIP3    H234200   3.789   3.570   4.621  0.9183  0.4445  2.6138
 4237TIP3   OH234201   6.609   1.398   1.427  0.2426  0.5662 -0.0912
 4237TIP3    H134202   6.595   1.462   1.497 -0.5665  0.4666 -0.1550
 4237TIP3    H234203   6.604   1.313   1.470 -1.1211  0.4679 -0.3797
 4238TIP3   OH234204   3.071   1.413   2.290 -0.4012 -0.5593  0.1886
 4238TIP3    H134205   3.008   1.382   2.355 -0.5788  1.4874  1.0782
 4238TIP3    H234206   3.019   1.429   2.212 -1.0263  0.9741  0.8698
 4239TIP3   OH234207   5.202   1.306   2.794 -0.1746 -0.6760  0.3661
 4239TIP3    H134208   5.287   1.262   2.796  0.3688  0.3050 -0.3566
 4239TIP3    H234209   5.138   1.235   2.792  0.6316 -1.4244  0.5291
 4240TIP3   OH234210   5.902   0.088  12.495  0.1834  0.0553 -0.2509
 4240TIP3    H134211   5.981   0.112  12.543 -0.3594 -1.1378  1.3106
 4240TIP3    H234212   5.918   0.118  12.405  1.6648  1.3845  0.4255
 4241TIP3   OH234213   5.486   0.282   3.170  0.0227 -0.0480 -0.2905
 4241TIP3    H134214   5.487   0.225   3.093  1.1301  2.2202 -2.0794
 4241TIP3    H234215   5.491   0.371   3.135 -0.6399  1.1666  2.3860
 4242TIP3   OH234216   1.792   3.727   2.029 -0.3183 -0.2792  0.2111
 4242TIP3    H134217   1.886   3.710   2.033  0.1471  1.3482 -1.8431
 4242TIP3    H234218   1.755   3.675   2.101  2.1566 -0.7077  1.2890
 4243TIP3   OH234219   2.014   2.212  14.740  0.1041  0.1381 -0.3543
 4243TIP3    H134220   2.038   2.289  14.687  3.2440 -0.0391  0.5997
 4243TIP3    H234221   2.010   2.140  14.677 -0.6197  0.6796 -0.9415
 4244TIP3   OH234222   2.517   6.041  12.503  0.3010  0.4707 -0.1097
 4244TIP3    H134223   2.486   5.965  12.453 -0.1459  0.2869  0.4323
 4244TIP3    H234224   2.553   6.100  12.437 -0.5289  0.3583 -0.6775
 4245TIP3   OH234225   2.944   6.783   4.236 -0.3942  0.0961  0.2148
 4245TIP3    H134226   2.890   6.704   4.234  0.7191 -0.6775 -0.2695
 4245TIP3    H234227   2.918   6.831   4.157 -0.5844 -0.1216  0.1433
 4246TIP3   OH234228   0.065   4.433   1.449 -0.3941 -0.4160 -0.4450
 4246TIP3    H134229   0.114   4.485   1.386 -1.6178  0.6101 -0.5765
 4246TIP3    H234230  -0.026   4.441   1.422 -0.7467 -1.5683  0.3104
 4247TIP3   OH234231   6.256   3.814  16.603 -0.0640  0.1150 -0.0559
 4247TIP3    H134232   6.246   3.873  16.677 -1.8913 -1.9146  1.4258
 4247TIP3    H234233   6.340   3.771  16.617 -0.4754 -0.3779  0.9736
 4248TIP3   OH234234   6.481   2.772  15.225 -0.1635 -0.1673 -0.4126
 4248TIP3    H134235   6.405   2.765  15.282 -0.1086 -1.5468 -0.4813
 4248TIP3    H234236   6.555   2.749  15.280  0.1327  0.4835 -0.5291
 4249TIP3   OH234237   0.152   4.962   6.072  0.0304  0.2075 -0.4582
 4249TIP3    H134238   0.228   5.017   6.054  0.6967 -0.3898  0.4554
 4249TIP3    H234239   0.095   5.016   6.126  1.2006 -0.3153  1.4134
 4250TIP3   OH234240   5.187   4.797   3.175 -0.5351  0.1882 -0.3987
 4250TIP3    H134241   5.175   4.887   3.202 -1.2847  0.3553 -1.2400
 4250TIP3    H234242   5.260   4.800   3.113 -1.4583  0.4526 -1.5012
 4251TIP3   OH234243   1.531   3.137  15.509  0.0400 -0.3217 -0.3623
 4251TIP3    H134244   1.621   3.106  15.521  0.3735  0.5721 -0.4374
 4251TIP3    H234245   1.478   3.058  15.508  0.5947 -0.7645  1.6361
 4252TIP3   OH234246   0.878   6.462   1.718  0.2290  0.7106 -0.2592
 4252TIP3    H134247   0.933   6.476   1.795  0.8553 -0.4672 -0.4666
 4252TIP3    H234248   0.938   6.473   1.644  0.3911 -1.3311 -0.4664
 4253TIP3   OH234249   4.054   4.310   1.604  0.4957  0.2395 -0.0499
 4253TIP3    H134250   4.017   4.325   1.517 -0.5842  0.7903  0.4811
 4253TIP3    H234251   4.105   4.389   1.622  2.5326 -0.7622 -1.0240
 4254TIP3   OH234252   1.905   6.384  15.169 -0.5677 -0.4586 -0.2803
 4254TIP3    H134253   1.978   6.326  15.150  0.1516 -0.0732  1.1667
 4254TIP3    H234254   1.885   6.425  15.085  1.1475 -0.2730 -0.6438
 4255TIP3   OH234255   2.638   2.646   4.892 -0.0166  0.0163  0.3625
 4255TIP3    H134256   2.578   2.713   4.858  0.5237  0.0368 -0.5900
 4255TIP3    H234257   2.627   2.572   4.832  2.0833  0.6084 -0.8554
 4256TIP3   OH234258   5.167   3.251   6.538 -0.4597 -0.1031  0.2556
 4256TIP3    H134259   5.117   3.174   6.564  0.6261 -1.2555 -0.9046
 4256TIP3    H234260   5.105   3.324   6.543 -1.7305 -1.1834  0.5799
 4257TIP3   OH234261   6.074   4.582  11.902 -0.1092 -0.6457  0.3208
 4257TIP3    H134262   6.055   4.637  11.978  0.4200  0.1492 -0.1194
 4257TIP3    H234263   5.988   4.557  11.869 -0.3953  1.2952 -0.4743
 4258TIP3   OH234264   1.593   4.451   3.815  0.1514  0.0721 -0.0352
 4258TIP3    H134265   1.578   4.544   3.797 -0.5120  0.1569  0.8861
 4258TIP3    H234266   1.530   4.430   3.885  1.7791 -0.5113  1.3166
 4259TIP3   OH234267   1.798   4.727  12.193  0.0479 -0.2094 -0.0269
 4259TIP3    H134268   1.862   4.663  12.162  0.3247 -0.0694  0.2434
 4259TIP3    H234269   1.806   4.800  12.132 -0.3758 -0.4922 -0.4240
 4260TIP3   OH234270   3.823   1.606  11.836  0.0956  0.6283  1.1516
 4260TIP3    H134271   3.881   1.681  11.825 -0.3892  1.0886  1.6729
 4260TIP3    H234272   3.877   1.531  11.811 -0.1682  1.3170 -1.8178
 4261TIP3   OH234273   1.748   2.605   6.371  0.2865  0.0430 -0.3589
 4261TIP3    H134274   1.683   2.549   6.414 -1.1264  0.9555 -1.1948
 4261TIP3    H234275   1.749   2.684   6.425  1.9296 -0.5709  0.5596
 4262TIP3   OH234276   5.627   2.204  12.772 -0.1612  0.9299  0.5908
 4262TIP3    H134277   5.641   2.121  12.817 -1.3105  0.6427  0.4615
 4262TIP3    H234278   5.712   2.227  12.736  0.0549 -0.4847  0.1360
 4263TIP3   OH234279   1.802   3.763  13.511  0.2448 -0.2144 -0.2332
 4263TIP3    H134280   1.711   3.737  13.526  0.6581 -1.8226 -0.3520
 4263TIP3    H234281   1.850   3.728  13.585  0.5714  2.1452  0.7770
 4264TIP3   OH234282   5.453   4.616  11.227 -0.2538 -0.5537 -0.4608
 4264TIP3    H134283   5.443   4.548  11.293 -0.1311  0.8203  1.0488
 4264TIP3    H234284   5.545   4.643  11.233 -0.3844 -0.0019 -0.7758
 4265TIP3   OH234285   6.266   0.795   0.006 -0.0225 -0.1556 -0.3561
 4265TIP3    H134286   6.197   0.732   0.026  0.1128  0.0431  0.8515
 4265TIP3    H234287   6.233   0.845  -0.068 -2.3002  1.5306  1.6264
 4266TIP3   OH234288   2.844   0.075   4.871  0.1507  0.3367 -0.5149
 4266TIP3    H134289   2.755   0.041   4.880  0.4682 -0.7285 -1.2130
 4266TIP3    H234290   2.857   0.130   4.948 -0.7173 -0.3947  0.1732
 4267TIP3   OH234291   2.076   2.630  16.727  0.2003 -0.5597  0.3773
 4267TIP3    H134292   1.984   2.642  16.700  0.3991 -2.6397 -1.4781
 4267TIP3    H234293   2.071   2.575  16.805 -0.1202 -1.3811 -0.2105
 4268TIP3   OH234294   1.502   5.127   1.421 -0.2496  0.3742  0.7749
 4268TIP3    H134295   1.575   5.129   1.359 -0.5271 -1.1731  0.3575
 4268TIP3    H234296   1.496   5.217   1.454  0.3872  1.0598 -0.8733
 4269TIP3   OH234297   5.234   5.730  16.667 -0.2380 -0.3098 -0.1830
 4269TIP3    H134298   5.247   5.678  16.587  2.8423 -1.9375  1.1954
 4269TIP3    H234299   5.181   5.674  16.723  1.1383 -1.0721  0.4206
 4270TIP3   OH234300   5.931   1.115  14.313 -0.3247 -0.3427 -0.3833
 4270TIP3    H134301   5.926   1.026  14.279  0.1722 -1.0216  1.2200
 4270TIP3    H234302   5.863   1.120  14.380 -1.0102  0.8153 -1.1298
 4271TIP3   OH234303   3.350   2.390   5.302  0.0159 -0.2907 -0.1753
 4271TIP3    H134304   3.275   2.372   5.247 -0.7839  0.8072  0.5073
 4271TIP3    H234305   3.348   2.323   5.370 -0.0572 -0.5541 -0.4388
 4272TIP3   OH234306   2.344   0.118  13.001  0.2479 -0.1474  0.4602
 4272TIP3    H134307   2.265   0.134  13.052  0.0511  0.1726  0.0667
 4272TIP3    H234308   2.409   0.177  13.039 -0.0594  0.5207 -0.0142
 4273TIP3   OH234309   6.773   5.248  16.996  0.2525  0.1613  0.1856
 4273TIP3    H134310   6.797   5.156  17.007  0.5366  0.0700 -1.0706
 4273TIP3    H234311   6.786   5.286  17.083  0.0399 -0.9982  0.7432
 4274TIP3   OH234312   6.152   0.353   2.385 -0.0502 -0.7190 -0.7136
 4274TIP3    H134313   6.179   0.261   2.388  0.5005 -0.5808 -1.3405
 4274TIP3    H234314   6.233   0.402   2.400 -0.1868 -0.3228 -1.2506
 4275TIP3   OH234315   3.228   6.324  15.646 -0.6728  0.5668 -0.3627
 4275TIP3    H134316   3.174   6.402  15.634 -1.0886  0.4475  0.6433
 4275TIP3    H234317   3.165   6.254  15.667 -0.3930 -0.2517 -2.0537
 4276TIP3   OH234318   2.372   5.547  12.298  0.7862 -0.1991  0.5684
 4276TIP3    H134319   2.409   5.571  12.383 -0.5795  2.4132  0.5141
 4276TIP3    H234320   2.438   5.575  12.234  0.8037 -0.0494  0.6533
 4277TIP3   OH234321   1.272   2.455  16.559  0.2676  0.1700 -0.3220
 4277TIP3    H134322   1.307   2.379  16.605 -0.2209 -0.5319 -1.0726
 4277TIP3    H234323   1.346   2.517  16.555  0.6269 -0.2034  0.4204
 4278TIP3   OH234324   3.099   4.593   1.433 -0.4846  0.2387 -0.5617
 4278TIP3    H134325   3.179   4.576   1.384  0.0412  2.8102 -0.7557
 4278TIP3    H234326   3.039   4.630   1.368 -0.6870  1.2905  0.1956
 4279TIP3   OH234327   3.211   6.414   0.359 -0.0460 -0.5013  0.1027
 4279TIP3    H134328   3.175   6.457   0.437 -0.5192 -0.3365 -0.2061
 4279TIP3    H234329   3.306   6.413   0.375 -0.1505 -0.6403  0.7670
 4280TIP3   OH234330   1.834   1.034   2.550  0.4287  0.2230 -0.0691
 4280TIP3    H134331   1.874   0.947   2.543  2.2809  0.8276  1.8488
 4280TIP3    H234332   1.752   1.019   2.597  1.8500 -0.3074  2.4264
 4281TIP3   OH234333   3.032   4.608  10.978 -0.0380  0.1949  0.3087
 4281TIP3    H134334   2.952   4.641  11.018 -0.3633  0.4217 -0.5000
 4281TIP3    H234335   3.052   4.672  10.909  2.0652  1.3808  1.8694
 4282TIP3   OH234336   2.422   6.614  14.853 -0.6589 -0.3111 -0.8061
 4282TIP3    H134337   2.422   6.520  14.870 -0.3178 -0.0655  0.7736
 4282TIP3    H234338   2.367   6.651  14.922  1.3994  0.8565  0.3348
 4283TIP3   OH234339   0.341   5.102  10.531  0.5475 -0.7404 -0.2276
 4283TIP3    H134340   0.262   5.098  10.476 -0.2723  0.7299  0.7844
 4283TIP3    H234341   0.389   5.023  10.508 -1.5450 -2.0571 -0.3861
 4284TIP3   OH234342   4.208   1.428  13.830  0.4223  0.2916  0.2252
 4284TIP3    H134343   4.144   1.443  13.900 -0.2145 -1.2910  0.0305
 4284TIP3    H234344   4.283   1.388  13.874  1.5011  2.4608  0.5100
 4285TIP3   OH234345   3.246   4.634  11.578  0.7499 -0.9568 -0.6235
 4285TIP3    H134346   3.275   4.544  11.564  0.7517 -1.4561  1.9997
 4285TIP3    H234347   3.314   4.672  11.634 -1.2759 -0.7565  1.9043
 4286TIP3   OH234348   0.505   3.360   5.663  0.4426  0.5035 -0.0365
 4286TIP3    H134349   0.423   3.409   5.651 -0.8883 -1.9615 -1.8310
 4286TIP3    H234350   0.548   3.365   5.578  0.8742 -0.3881  0.1203
 4287TIP3   OH234351   5.753   4.336   5.343 -1.0470  0.0448  0.1550
 4287TIP3    H134352   5.659   4.330   5.325 -1.0775 -0.4690  0.4624
 4287TIP3    H234353   5.770   4.266   5.407  0.1296 -1.9916 -2.2182
 4288TIP3   OH234354   6.368   6.338   3.300 -0.2456 -0.1668  0.2918
 4288TIP3    H134355   6.276   6.362   3.307  0.4122  2.5234  1.4525
 4288TIP3    H234356   6.380   6.267   3.363 -1.4127 -0.1957  0.4945
 4289TIP3   OH234357   3.035   1.723   1.638 -0.1509  0.7191  0.0648
 4289TIP3    H134358   3.020   1.640   1.593 -0.4236  0.6981  0.1923
 4289TIP3    H234359   3.118   1.711   1.685  0.4127  0.9237 -0.8507
 4290TIP3   OH234360   1.718   1.484   1.740 -0.2581  0.2267  0.0681
 4290TIP3    H134361   1.629   1.470   1.770 -0.9347  0.1518 -1.8468
 4290TIP3    H234362   1.763   1.522   1.815 -1.2836 -1.7793  1.8016
 4291TIP3   OH234363   2.333   1.010  13.208  1.3314 -0.0393 -0.3521
 4291TIP3    H134364   2.346   1.036  13.299  4.2446 -1.1800 -0.3404
 4291TIP3    H234365   2.352   1.090  13.158  3.3401 -0.2722 -0.0467
 4292TIP3   OH234366   3.738   3.285  13.446 -0.5416 -0.6590 -0.2680
 4292TIP3    H134367   3.643   3.289  13.440 -0.5860 -1.4740 -0.2640
 4292TIP3    H234368   3.757   3.298  13.539 -0.3882  3.2290 -0.6781
 4293TIP3   OH234369   1.568   1.982  14.324 -0.5648 -0.3027  0.0607
 4293TIP3    H134370   1.621   2.020  14.253  0.1225 -0.3596  0.5321
 4293TIP3    H234371   1.552   2.056  14.383 -0.2299 -0.4849  0.3809
 4294TIP3   OH234372   4.519   5.887   2.096  0.2116  0.2150  0.9091
 4294TIP3    H134373   4.425   5.879   2.080  0.3407  0.7456 -0.2107
 4294TIP3    H234374   4.550   5.797   2.104  0.1012 -0.1651 -1.9482
 4295TIP3   OH234375   1.142   4.860   3.347  1.0350  0.6690 -0.4013
 4295TIP3    H134376   1.131   4.776   3.302 -0.4853  0.1021  0.9261
 4295TIP3    H234377   1.176   4.837   3.433 -3.0450  0.8538  1.5028
 4296TIP3   OH234378   0.655   6.249  13.580 -0.3307  0.2471  0.4713
 4296TIP3    H134379   0.661   6.164  13.622 -0.6451  1.0667  2.2564
 4296TIP3    H234380   0.742   6.264  13.543 -0.3990 -1.0075 -0.2531
 4297TIP3   OH234381   0.296   6.254   2.313 -0.4264  0.2859  0.4369
 4297TIP3    H134382   0.236   6.283   2.244  1.2119  0.2263 -1.0745
 4297TIP3    H234383   0.340   6.334   2.342  1.5837 -0.1190 -1.2845
 4298TIP3   OH234384   5.193   1.591   0.872  0.2883  0.3206 -0.4340
 4298TIP3    H134385   5.266   1.561   0.818  1.3842 -0.2577  1.2539
 4298TIP3    H234386   5.182   1.521   0.937  0.2677  1.7588  1.1767
 4299TIP3   OH234387   0.485   6.413   4.317 -0.0439  0.0421 -0.4552
 4299TIP3    H134388   0.412   6.353   4.303 -0.2633  0.5043 -1.3787
 4299TIP3    H234389   0.563   6.362   4.293 -0.2917  0.3357 -1.9643
 4300TIP3   OH234390   4.936   1.338   1.643  0.0322 -0.3553 -0.0921
 4300TIP3    H134391   4.921   1.287   1.722 -0.3749  1.5817  1.1581
 4300TIP3    H234392   4.855   1.329   1.593 -0.7923  0.5609  1.0258
 4301TIP3   OH234393   0.882   5.242  13.137  0.3506 -0.1737 -0.2180
 4301TIP3    H134394   0.941   5.267  13.065 -0.8896  0.7757 -0.9459
 4301TIP3    H234395   0.797   5.275  13.110 -0.1105  0.4017  1.8168
 4302TIP3   OH234396   3.061   4.995   3.071 -0.1862 -0.1537 -0.0232
 4302TIP3    H134397   3.075   5.089   3.082 -1.2242 -0.0453  0.5626
 4302TIP3    H234398   3.149   4.958   3.065  0.2671  1.1036 -2.8569
 4303TIP3   OH234399   5.431   1.121  13.537 -0.2784 -0.2531  0.3315
 4303TIP3    H134400   5.483   1.080  13.606 -1.2388 -0.0964  1.1590
 4303TIP3    H234401   5.433   1.214  13.558 -0.4371 -0.1863  0.0460
 4304TIP3   OH234402   1.219   5.525  11.571  0.3062  0.1740  0.6499
 4304TIP3    H134403   1.139   5.481  11.600 -0.2645  1.7430  1.5241
 4304TIP3    H234404   1.191   5.613  11.546  1.5070  0.2253 -0.6257
 4305TIP3   OH234405   6.785   2.075   0.063  0.5279 -0.1801  0.2250
 4305TIP3    H134406   6.851   2.140   0.042  0.3595 -0.1515 -0.2195
 4305TIP3    H234407   6.833   1.993   0.072  0.8013  0.0767  1.2145
 4306TIP3   OH234408   0.138   4.369   3.068 -0.4318 -0.6605  0.2914
 4306TIP3    H134409   0.137   4.274   3.073 -0.0041 -0.8017 -1.6375
 4306TIP3    H234410   0.228   4.394   3.092 -0.3112 -0.8084 -0.0041
 4307TIP3   OH234411   3.309   4.721   4.279  0.0262  0.6403  0.1327
 4307TIP3    H134412   3.238   4.768   4.324 -0.2261  1.4432 -1.0549
 4307TIP3    H234413   3.306   4.754   4.189  1.8693  0.6352  0.0333
 4308TIP3   OH234414   0.751   5.944  13.894  0.9015  0.0332 -0.0614
 4308TIP3    H134415   0.656   5.945  13.901  0.7465  0.1427 -1.6904
 4308TIP3    H234416   0.781   6.007  13.959 -0.1987  0.7556 -0.2282
 4309TIP3   OH234417   1.159   1.204  14.982 -0.4414 -0.4903 -0.0254
 4309TIP3    H134418   1.139   1.293  15.008  1.9822  0.7027 -1.8783
 4309TIP3    H234419   1.102   1.188  14.906 -0.2977 -0.2051 -0.1951
 4310TIP3   OH234420   1.682   0.192  13.175 -0.2465  0.1921 -0.0369
 4310TIP3    H134421   1.748   0.259  13.193  0.4581 -0.1746 -1.1128
 4310TIP3    H234422   1.606   0.218  13.226  0.7354  0.6220  1.2645
 4311TIP3   OH234423   1.232   2.990   1.797 -0.0213  0.3148  0.1345
 4311TIP3    H134424   1.237   3.007   1.891 -1.2084 -0.9189  0.4613
 4311TIP3    H234425   1.160   3.046   1.766  0.4475  0.8103 -0.0706
 4312TIP3   OH234426   0.338   6.560   0.678  0.1700 -0.0208 -0.0878
 4312TIP3    H134427   0.422   6.584   0.639  0.2054 -2.2758 -1.6267
 4312TIP3    H234428   0.276   6.565   0.605 -1.0924  1.6400  1.0278
 4313TIP3   OH234429   4.569   2.614   0.924 -0.0720 -0.6209 -0.0317
 4313TIP3    H134430   4.620   2.565   0.859  0.0598 -0.8538  0.2476
 4313TIP3    H234431   4.509   2.549   0.962 -1.9467  0.0204 -1.6965
 4314TIP3   OH234432   0.573   1.097  11.511 -0.4415  0.1365  0.3442
 4314TIP3    H134433   0.613   1.020  11.550 -1.6199 -1.2621 -1.0613
 4314TIP3    H234434   0.637   1.167  11.525  0.9311 -1.2158  1.1559
 4315TIP3   OH234435   1.414   3.489  16.516  0.3049  0.6435  0.1632
 4315TIP3    H134436   1.452   3.425  16.456  1.3833  0.9678  0.4758
 4315TIP3    H234437   1.347   3.533  16.465  1.9622  1.7041 -1.2079
 4316TIP3   OH234438   6.131   5.014  15.090  0.1387  0.5228 -0.0119
 4316TIP3    H134439   6.127   4.919  15.095  0.1772  0.5555  0.6971
 4316TIP3    H234440   6.223   5.035  15.108  0.0582  0.7113  0.1820
 4317TIP3   OH234441   3.374   2.564   4.680 -0.1278 -0.0581  0.2546
 4317TIP3    H134442   3.335   2.480   4.700  1.4377 -0.5841  1.2816
 4317TIP3    H234443   3.342   2.623   4.748 -0.1948 -0.1361  0.2902
 4318TIP3   OH234444   6.385   3.121  11.328  0.8194 -0.6782  0.3144
 4318TIP3    H134445   6.450   3.156  11.267  0.1012  0.4082  0.1474
 4318TIP3    H234446   6.343   3.198  11.365 -0.0992 -1.3641  0.7319
 4319TIP3   OH234447   2.412   3.159   0.969  0.0536 -0.3339 -0.3936
 4319TIP3    H134448   2.386   3.089   1.029 -0.9220 -0.2091 -0.6429
 4319TIP3    H234449   2.464   3.219   1.022 -0.0912 -0.6544  0.1151
 4320TIP3   OH234450   1.886   0.147   5.651 -0.3350  0.3184  0.0338
 4320TIP3    H134451   1.809   0.198   5.677 -1.0463 -1.0000  0.6471
 4320TIP3    H234452   1.952   0.212   5.628 -2.0837  1.5316 -1.9634
 4321TIP3   OH234453   0.664   0.461  14.232 -0.2124  0.1230  0.9509
 4321TIP3    H134454   0.697   0.466  14.143 -1.0661 -1.0515  0.5359
 4321TIP3    H234455   0.704   0.536  14.277 -1.1215  1.7878 -0.8478
 4322TIP3   OH234456   1.337   2.197  16.588  0.3508  0.1853  0.0030
 4322TIP3    H134457   1.412   2.171  16.534  0.2357 -0.7161  0.2762
 4322TIP3    H234458   1.351   2.153  16.671  0.1591  1.0226  0.4898
 4323TIP3   OH234459   6.022   5.762   4.448 -0.7815  0.2449 -0.2314
 4323TIP3    H134460   6.115   5.773   4.429 -0.4300 -1.7247  0.1570
 4323TIP3    H234461   6.014   5.781   4.541 -0.7256  0.2018 -0.2173
 4324TIP3   OH234462   3.403   0.240  12.492 -0.1872 -0.4014  0.2201
 4324TIP3    H134463   3.451   0.173  12.443 -0.4776  0.7166 -1.6925
 4324TIP3    H234464   3.467   0.275  12.554  0.2276 -1.7698  0.6211
 4325TIP3   OH234465   2.860   4.820  12.540  0.0487  0.0378 -0.3031
 4325TIP3    H134466   2.809   4.779  12.610 -0.4515 -1.1487 -1.3056
 4325TIP3    H234467   2.794   4.859  12.483  0.2540 -0.9889 -1.2933
 4326TIP3   OH234468   2.862   6.769  11.693 -0.2575  0.3609 -0.3762
 4326TIP3    H134469   2.825   6.716  11.764 -1.6082  0.2989 -1.0997
 4326TIP3    H234470   2.956   6.751  11.696 -0.5018 -0.8847  0.3651
 4327TIP3   OH234471   6.576   5.156   3.591  0.5226  0.8032 -0.2367
 4327TIP3    H134472   6.482   5.170   3.600  0.3669  0.3570 -1.0313
 4327TIP3    H234473   6.589   5.064   3.615  0.8054  0.9524  0.1886
 4328TIP3   OH234474   0.218   4.375  15.927  0.9954  0.3657 -0.3649
 4328TIP3    H134475   0.257   4.316  15.863 -0.6417  0.7024 -1.7665
 4328TIP3    H234476   0.124   4.354  15.925  0.4010  2.7224 -0.6596
 4329TIP3   OH234477   0.541   1.676  14.731 -0.4093 -0.0841  0.6159
 4329TIP3    H134478   0.497   1.760  14.715  0.7353  0.4701  0.3058
 4329TIP3    H234479   0.469   1.613  14.740 -1.2471  0.5274 -1.3071
 4330TIP3   OH234480   0.296   6.809  14.262  0.0839 -0.2860  0.1242
 4330TIP3    H134481   0.301   6.803  14.167  0.6890 -0.6772  0.1749
 4330TIP3    H234482   0.220   6.865  14.279  1.5344  2.0065 -0.6243
 4331TIP3   OH234483   6.769   2.175   1.338  0.2665  0.0859  0.4208
 4331TIP3    H134484   6.716   2.243   1.379 -1.3485 -0.2505 -0.9557
 4331TIP3    H234485   6.809   2.218   1.262  1.4723  0.1692  1.0886
 4332TIP3   OH234486   0.272   1.542  10.502 -0.4826 -0.2029  0.1230
 4332TIP3    H134487   0.325   1.585  10.568 -1.1108  0.3304  0.2892
 4332TIP3    H234488   0.228   1.613  10.455 -0.7128 -0.6116 -0.2937
 4333TIP3   OH234489   4.574   4.940   1.079  0.1426 -0.0475 -0.1527
 4333TIP3    H134490   4.638   4.951   1.149  1.6082 -0.4588 -1.3837
 4333TIP3    H234491   4.504   4.888   1.118  1.2478 -0.8491  0.8133
 4334TIP3   OH234492   4.375   5.221   1.226 -0.1449 -0.1504  0.6506
 4334TIP3    H134493   4.423   5.210   1.143  1.1862  0.3636  1.3160
 4334TIP3    H234494   4.296   5.169   1.215 -0.7606  1.1004 -1.5390
 4335TIP3   OH234495   0.283   1.283  10.666  0.5728 -0.2516 -0.3714
 4335TIP3    H134496   0.315   1.289  10.576 -0.5566 -2.4305 -0.9806
 4335TIP3    H234497   0.191   1.309  10.659  1.1920  2.6505  0.7758
 4336TIP3   OH234498   3.728   5.940   4.484  0.0547  0.1287  0.5638
 4336TIP3    H134499   3.741   5.960   4.392 -1.9952  2.2478  0.6280
 4336TIP3    H234500   3.636   5.914   4.490  0.5522 -1.5308  1.8253
 4337TIP3   OH234501   3.306   1.748  14.505  0.1459 -0.9106 -0.0194
 4337TIP3    H134502   3.389   1.708  14.531  0.2268 -1.7286 -1.4394
 4337TIP3    H234503   3.243   1.716  14.570  0.4985 -2.2111 -0.2839
 4338TIP3   OH234504   3.784   0.073   3.062 -0.5752 -0.7634 -0.0920
 4338TIP3    H134505   3.699   0.116   3.079  0.8950  4.2462 -3.2518
 4338TIP3    H234506   3.823   0.064   3.149 -2.8595  0.3483  1.1598
 4339TIP3   OH234507   1.548   6.321   5.975 -0.1219  0.7124  0.2575
 4339TIP3    H134508   1.499   6.381   6.032  0.4769  0.5472  0.9556
 4339TIP3    H234509   1.632   6.364   5.962 -1.6659  2.9702 -4.1636
 4340TIP3   OH234510   5.556   2.799  14.818 -0.2492  0.1405  0.2375
 4340TIP3    H134511   5.481   2.740  14.814 -1.6371  1.7597  1.0675
 4340TIP3    H234512   5.528   2.869  14.877  1.7012  1.1183  0.0836
 4341TIP3   OH234513   3.913   2.269  16.988  0.1657  0.1928  0.0620
 4341TIP3    H134514   3.929   2.332  16.918  0.3905  0.8016  0.6541
 4341TIP3    H234515   3.929   2.318  17.068 -0.0068 -0.5235  0.5397
 4342TIP3   OH234516   3.966   6.710   0.314 -0.1043  0.4571 -0.1365
 4342TIP3    H134517   3.932   6.693   0.402 -0.0262 -0.4793 -0.2725
 4342TIP3    H234518   3.941   6.632   0.263  4.1684 -1.5332  0.3098
 4343TIP3   OH234519   5.934   4.119  11.463  0.2306  0.5070  0.3036
 4343TIP3    H134520   5.965   4.136  11.374  2.0923 -3.0092  0.0680
 4343TIP3    H234521   5.842   4.094  11.453 -0.1494  2.0502 -0.2976
 4344TIP3   OH234522   3.509   4.881   5.104  0.1160  0.3624  0.2774
 4344TIP3    H134523   3.554   4.823   5.165  3.1835  1.3835 -0.8030
 4344TIP3    H234524   3.447   4.824   5.058  1.7668 -1.7136  0.4493
 4345TIP3   OH234525   5.729   0.666   1.768 -0.2174 -0.2966  0.7529
 4345TIP3    H134526   5.812   0.644   1.724 -0.8324 -1.3911  0.1158
 4345TIP3    H234527   5.749   0.658   1.861  0.0548 -1.9120  0.5863
 4346TIP3   OH234528   2.076   5.443  16.160 -0.3152 -0.5143 -0.1812
 4346TIP3    H134529   2.012   5.513  16.173 -0.4567 -0.4872 -0.9421
 4346TIP3    H234530   2.058   5.380  16.229 -0.8279 -0.2592 -0.0801
 4347TIP3   OH234531   3.877   3.594   2.599 -0.5109  1.0715 -0.2291
 4347TIP3    H134532   3.805   3.594   2.536  0.5338 -0.0537 -1.4650
 4347TIP3    H234533   3.841   3.551   2.677 -1.0120 -0.0177 -1.0414
 4348TIP3   OH234534   0.478   5.418  13.337 -0.0933 -0.6098  0.5737
 4348TIP3    H134535   0.519   5.441  13.420  0.3348  0.0267  0.1943
 4348TIP3    H234536   0.507   5.328  13.321 -1.3008 -1.2499  1.7799
 4349TIP3   OH234537   1.032   3.902   3.205  0.0386  0.1468  0.7186
 4349TIP3    H134538   1.003   3.966   3.140  0.9110  0.6740  0.8240
 4349TIP3    H234539   1.091   3.952   3.262 -0.1876 -0.4745  1.5087
 4350TIP3   OH234540   0.339   0.562  16.289  0.1706 -0.2979  0.0963
 4350TIP3    H134541   0.419   0.600  16.323  0.5155 -0.5585 -0.4106
 4350TIP3    H234542   0.313   0.496  16.354 -0.3145  0.6324  0.8679
 4351TIP3   OH234543   1.840   6.004   0.444  0.1330 -0.0015  0.4063
 4351TIP3    H134544   1.824   5.956   0.526  0.4607  0.3134  0.6597
 4351TIP3    H234545   1.755   6.007   0.401 -0.2256  0.5509  1.1262
 4352TIP3   OH234546   2.303   3.152   2.502  0.2761  0.6227 -0.7002
 4352TIP3    H134547   2.362   3.089   2.460 -0.3177 -0.4893  0.0993
 4352TIP3    H234548   2.340   3.165   2.589 -0.2415  0.5015 -0.4617
 4353TIP3   OH234549   2.911   1.000  11.532 -0.6318 -0.0902  0.1652
 4353TIP3    H134550   3.003   0.985  11.554 -0.8883 -1.1325  0.6040
 4353TIP3    H234551   2.899   0.955  11.449 -0.7474  0.0264  0.1200
 4354TIP3   OH234552   0.517   4.704   0.625 -0.5361 -0.2052  0.8296
 4354TIP3    H134553   0.575   4.766   0.580  0.8686 -0.8297  1.7171
 4354TIP3    H234554   0.483   4.649   0.555 -1.1498  1.0230  0.1279
 4355TIP3   OH234555   4.234   3.127  15.206 -0.1500  0.4735  0.1880
 4355TIP3    H134556   4.225   3.119  15.301  0.5411 -2.0568  0.1258
 4355TIP3    H234557   4.308   3.186  15.193  0.3268  0.1442  1.2825
 4356TIP3   OH234558   0.599   2.545   0.675  0.7101 -0.2009 -0.1615
 4356TIP3    H134559   0.676   2.602   0.672  0.3868  0.2646  0.2416
 4356TIP3    H234560   0.531   2.593   0.629  0.7118 -0.7021 -0.6995
 4357TIP3   OH234561   2.704   4.434  15.356  0.0116 -0.4319 -0.1813
 4357TIP3    H134562   2.664   4.385  15.428  0.9895  1.4819  1.7738
 4357TIP3    H234563   2.783   4.385  15.334  1.4117  0.5613  2.2994
 4358TIP3   OH234564   1.474   4.923   5.530 -0.0892 -0.3785 -0.1503
 4358TIP3    H134565   1.488   4.852   5.468  1.1066 -1.3997  1.1952
 4358TIP3    H234566   1.562   4.947   5.560 -0.3177  2.6471 -1.5300
 4359TIP3   OH234567   3.760   3.004  15.119  0.2931  0.1570  0.0389
 4359TIP3    H134568   3.810   2.928  15.089  0.7278  1.2863 -2.3671
 4359TIP3    H234569   3.700   2.969  15.185  0.2340 -2.3322 -1.2191
 4360TIP3   OH234570   4.206   1.884   2.173  0.5392 -0.2754  0.3976
 4360TIP3    H134571   4.177   1.808   2.223  1.3549 -0.8752 -0.0190
 4360TIP3    H234572   4.241   1.848   2.092 -0.5395  0.6536 -0.5274
 4361TIP3   OH234573   1.444   2.307   4.590 -0.2224 -0.0181 -0.5537
 4361TIP3    H134574   1.389   2.346   4.658 -0.2016  1.9044 -1.5706
 4361TIP3    H234575   1.383   2.279   4.522 -0.1090 -0.0930 -0.6242
 4362TIP3   OH234576   2.620   5.849   1.240 -0.5664  0.4080  0.7196
 4362TIP3    H134577   2.626   5.910   1.314 -1.8903  0.9358  0.4148
 4362TIP3    H234578   2.604   5.906   1.164  0.3510 -0.1615  0.0883
 4363TIP3   OH234579   0.212   1.745  14.057 -0.2991  0.4532  0.4359
 4363TIP3    H134580   0.212   1.652  14.034  1.3206  0.5175  0.0450
 4363TIP3    H234581   0.148   1.784  13.997  2.3554  0.2855 -2.8142
 4364TIP3   OH234582   1.924   1.213  16.014  0.1994 -0.3032 -0.3750
 4364TIP3    H134583   1.881   1.296  16.037 -0.9722 -0.6668 -1.1742
 4364TIP3    H234584   2.007   1.240  15.975  0.4239  0.4389  0.5581
 4365TIP3   OH234585   3.579   3.793  12.977 -0.2506  0.4617  0.0137
 4365TIP3    H134586   3.581   3.814  13.070  1.4982  2.1323 -0.3503
 4365TIP3    H234587   3.530   3.866  12.938 -0.4770  0.0625 -0.4540
 4366TIP3   OH234588   0.427   4.944   1.021 -0.4417  0.1756 -0.4374
 4366TIP3    H134589   0.518   4.914   1.021  0.2022  1.9044 -2.7051
 4366TIP3    H234590   0.386   4.898   0.948 -0.7604  1.1024 -0.8569
 4367TIP3   OH234591   2.469   5.764  11.066 -0.1480 -0.2800 -0.0580
 4367TIP3    H134592   2.535   5.729  11.125 -1.4369 -1.9378  0.5096
 4367TIP3    H234593   2.519   5.806  10.996  1.5521 -2.0635 -0.0219
 4368TIP3   OH234594   6.440   5.194   1.572  0.3498 -0.1650  0.1300
 4368TIP3    H134595   6.412   5.183   1.481  0.1962  1.8952 -0.1186
 4368TIP3    H234596   6.415   5.113   1.615  0.8961 -1.4064 -1.7656
 4369TIP3   OH234597   6.228   1.545  17.107 -0.7757  0.4222 -0.4135
 4369TIP3    H134598   6.150   1.524  17.054 -0.3363 -0.0052 -0.9075
 4369TIP3    H234599   6.294   1.571  17.042 -0.6771  1.3419  0.0450
 4370TIP3   OH234600   0.249   2.262   4.657  0.3568 -0.1833 -0.6976
 4370TIP3    H134601   0.317   2.327   4.673 -0.1666  0.1664  0.1856
 4370TIP3    H234602   0.246   2.252   4.562  0.1325  1.4211 -0.8815
 4371TIP3   OH234603   0.014   1.372   4.864 -0.0246 -0.3630  0.0948
 4371TIP3    H134604   0.030   1.405   4.775  0.2042 -0.8992 -0.0667
 4371TIP3    H234605  -0.077   1.394   4.882 -0.3630 -1.1206 -0.6526
 4372TIP3   OH234606   5.462   0.662   5.076 -0.2718 -0.0641  0.4268
 4372TIP3    H134607   5.496   0.668   4.987 -1.3805 -1.0190 -0.0949
 4372TIP3    H234608   5.487   0.745   5.117  2.3584 -0.5699  0.0289
 4373TIP3   OH234609   3.153   6.807   2.390 -0.4658  0.3858 -0.3014
 4373TIP3    H134610   3.135   6.717   2.418 -1.0314  0.3780 -0.6785
 4373TIP3    H234611   3.232   6.831   2.438 -0.6081 -0.1284  0.2083
 4374TIP3   OH234612   4.764   0.445   3.622 -0.3084 -0.5180  0.1545
 4374TIP3    H134613   4.756   0.472   3.531  0.2068  0.7359  0.4471
 4374TIP3    H234614   4.736   0.522   3.672 -1.2019 -1.3978  1.0638
 4375TIP3   OH234615   1.359   5.390  15.743 -0.1708 -0.0989 -0.1367
 4375TIP3    H134616   1.428   5.436  15.695  0.4398  0.5876  1.3335
 4375TIP3    H234617   1.367   5.422  15.833 -1.7021 -0.8393  0.2984
 4376TIP3   OH234618   2.285   2.304   2.741  0.4157  0.3301  0.5001
 4376TIP3    H134619   2.220   2.304   2.670  0.7587  0.4389  0.1862
 4376TIP3    H234620   2.275   2.390   2.782 -1.6845 -0.6854  2.3465
 4377TIP3   OH234621   5.569   2.319  17.159  0.3556 -0.2181  0.5860
 4377TIP3    H134622   5.636   2.380  17.128 -2.1399  1.8930 -1.0847
 4377TIP3    H234623   5.554   2.344  17.250  0.3340  0.7970  0.3196
 4378TIP3   OH234624   2.878   4.855   5.968 -0.1504  0.2859  0.3136
 4378TIP3    H134625   2.931   4.930   5.992  0.8338 -0.5647  0.8635
 4378TIP3    H234626   2.935   4.802   5.912 -1.1521  0.3953 -0.8575
 4379TIP3   OH234627   4.231   6.575   3.491  0.5004  0.3458  0.0805
 4379TIP3    H134628   4.302   6.629   3.455  0.2923  0.0500 -0.8029
 4379TIP3    H234629   4.154   6.632   3.490  0.3437  0.1313 -0.5906
 4380TIP3   OH234630   6.818   5.690  13.039 -0.0875  0.3279 -0.3180
 4380TIP3    H134631   6.785   5.686  13.129 -2.5571 -1.9925 -1.1780
 4380TIP3    H234632   6.739   5.699  12.985  1.1334 -0.4730 -2.3549
 4381TIP3   OH234633   3.913   0.488   0.416 -0.7846  0.6245  0.3342
 4381TIP3    H134634   3.885   0.534   0.337  0.1003  1.1792  0.3256
 4381TIP3    H234635   3.832   0.454   0.454 -1.0868 -1.0608 -1.6368
 4382TIP3   OH234636   4.832   1.750  15.247  0.5387 -0.4985 -0.2637
 4382TIP3    H134637   4.926   1.733  15.238  0.2396 -1.3165 -2.6952
 4382TIP3    H234638   4.823   1.844  15.234  1.0484 -0.3246  0.5513
 4383TIP3   OH234639   2.850   6.100   3.466  0.4915  0.1958 -0.1318
 4383TIP3    H134640   2.945   6.087   3.467  0.3610 -1.1641 -1.5351
 4383TIP3    H234641   2.818   6.036   3.403 -1.4624  0.0166  0.9592
 4384TIP3   OH234642   1.165   3.847  11.479 -0.2036  0.0307  0.4716
 4384TIP3    H134643   1.155   3.838  11.384 -0.0478  0.8087  0.3752
 4384TIP3    H234644   1.238   3.908  11.490 -1.4385  1.4632  1.0550
 4385TIP3   OH234645   0.059   4.252  12.698 -0.2184 -0.1412 -0.4040
 4385TIP3    H134646   0.106   4.171  12.676  0.0099 -0.0824 -0.1454
 4385TIP3    H234647  -0.030   4.225  12.717  0.1727 -0.5304  1.0291
 4386TIP3   OH234648   1.433   0.274  16.026  0.2131  0.5377  0.4614
 4386TIP3    H134649   1.415   0.207  15.961 -0.0562  0.3048  0.7737
 4386TIP3    H234650   1.475   0.227  16.098 -1.3527  0.4196  1.3403
 4387TIP3   OH234651   4.276   5.387  13.137 -0.3965  0.1522 -0.3233
 4387TIP3    H134652   4.293   5.479  13.155  0.5015 -0.2217  0.8713
 4387TIP3    H234653   4.334   5.366  13.064  1.0974  0.0157  0.8359
 4388TIP3   OH234654   0.768   6.266   1.552  0.5174 -0.0754 -0.5147
 4388TIP3    H134655   0.836   6.207   1.521  1.4485  1.7071 -2.1384
 4388TIP3    H234656   0.815   6.332   1.603 -0.2750  0.0954  0.0091
 4389TIP3   OH234657   1.647   2.880  11.103 -0.5494  1.0166 -0.4751
 4389TIP3    H134658   1.684   2.796  11.128 -0.6047  0.8083 -1.0756
 4389TIP3    H234659   1.557   2.860  11.079 -0.7418  1.3476 -0.0492
 4390TIP3   OH234660   5.651   0.853  13.457 -0.4391  0.0077 -0.5128
 4390TIP3    H134661   5.556   0.845  13.464 -0.6381  2.0128 -0.4075
 4390TIP3    H234662   5.667   0.866  13.364  0.1107 -3.5311 -1.0707
 4391TIP3   OH234663   1.236   3.683  12.197 -0.5777  0.0496 -0.2768
 4391TIP3    H134664   1.164   3.620  12.194 -0.3025 -0.2967 -3.3711
 4391TIP3    H234665   1.313   3.631  12.220 -0.9105 -0.0082  0.7631
 4392TIP3   OH234666   0.258   5.879  16.955  0.2883 -0.4766 -0.2505
 4392TIP3    H134667   0.311   5.900  16.878  1.1037 -2.4027 -0.2525
 4392TIP3    H234668   0.173   5.855  16.919  0.1000  0.3785 -0.4030
 4393TIP3   OH234669   2.042   2.276   1.356  0.3600  0.8819 -0.4120
 4393TIP3    H134670   1.998   2.322   1.427 -1.7551  0.3347 -1.2784
 4393TIP3    H234671   2.025   2.183   1.374 -0.6405  0.7608 -1.8667
 4394TIP3   OH234672   0.044   6.320   4.041  0.1867 -0.2729  0.5895
 4394TIP3    H134673   0.028   6.281   3.956 -1.1989  1.3205  0.0526
 4394TIP3    H234674   0.110   6.388   4.025  0.2383 -0.2512  0.8773
 4395TIP3   OH234675   0.862   1.536   2.530  0.5823 -0.5985 -0.0849
 4395TIP3    H134676   0.827   1.509   2.445 -0.8407  0.3078  0.1748
 4395TIP3    H234677   0.785   1.546   2.585  1.3571  0.3379  0.8693
 4396TIP3   OH234678   1.792   6.754  10.715 -0.3055  0.3317 -0.4970
 4396TIP3    H134679   1.845   6.831  10.700  0.7038 -0.1693  0.3624
 4396TIP3    H234680   1.853   6.688  10.749 -0.8650 -1.2876 -2.4107
 4397TIP3   OH234681   0.979   6.270  11.615 -0.2095 -0.2208  0.1691
 4397TIP3    H134682   0.937   6.354  11.636 -2.1523 -0.5559 -1.9283
 4397TIP3    H234683   1.051   6.262  11.677 -0.2500  2.7813  0.7186
 4398TIP3   OH234684   4.632   2.711  16.055 -0.6962  0.0831 -0.0524
 4398TIP3    H134685   4.701   2.720  15.989 -0.8453  0.1437 -0.2029
 4398TIP3    H234686   4.678   2.710  16.139 -0.3858 -1.2148 -0.2075
 4399TIP3   OH234687   5.520   1.361   3.346 -0.1630 -0.2213  0.9795
 4399TIP3    H134688   5.577   1.374   3.270 -0.9932 -1.7617  0.0479
 4399TIP3    H234689   5.581   1.349   3.419  0.6608  2.7631  0.9362
 4400TIP3   OH234690   5.939   5.264  12.084  0.0578  0.5262 -0.1382
 4400TIP3    H134691   5.879   5.194  12.058 -0.4382  0.9939 -0.2885
 4400TIP3    H234692   6.010   5.220  12.129 -0.3675 -0.0502 -0.0237
 4401TIP3   OH234693   2.480   1.100  16.141 -0.8024 -0.2036  0.0667
 4401TIP3    H134694   2.388   1.083  16.124 -1.1306  0.9618  0.5410
 4401TIP3    H234695   2.482   1.189  16.177  0.5054 -0.1993  0.0548
 4402TIP3   OH234696   3.206   3.642  15.388 -0.7290  0.1122 -0.2310
 4402TIP3    H134697   3.256   3.723  15.394 -0.5292 -0.0682  0.6639
 4402TIP3    H234698   3.222   3.611  15.299  1.2065 -0.2350  0.1982
 4403TIP3   OH234699   6.046   4.612   5.677 -0.0528  0.0814  0.4518
 4403TIP3    H134700   5.981   4.655   5.732  0.4837 -0.1898  1.3139
 4403TIP3    H234701   6.025   4.518   5.683 -0.9176  0.1365 -1.0295
 4404TIP3   OH234702   2.764   4.242   3.996  0.0964  0.9398 -0.1227
 4404TIP3    H134703   2.771   4.247   3.901  1.5255 -0.0262 -0.0966
 4404TIP3    H234704   2.672   4.264   4.015 -0.5185 -0.0319 -1.8007
 4405TIP3   OH234705   0.685   1.210   1.984 -0.5198 -0.1319  0.3677
 4405TIP3    H134706   0.755   1.180   2.041 -0.2945  1.7634  1.1411
 4405TIP3    H234707   0.668   1.135   1.926  0.5345 -1.4328  1.6580
 4406TIP3   OH234708   6.620   0.560  13.129 -0.2357  0.1912  1.0924
 4406TIP3    H134709   6.653   0.560  13.219 -1.5250  1.1008  1.5832
 4406TIP3    H234710   6.580   0.646  13.117 -0.8477 -0.2278 -0.0629
 4407TIP3   OH234711   3.134   0.693  11.542  1.5651 -0.1432 -0.3217
 4407TIP3    H134712   3.048   0.681  11.500  0.5743 -1.6435  1.9698
 4407TIP3    H234713   3.130   0.780  11.581  1.8021  0.5064 -1.6730
 4408TIP3   OH234714   4.455   0.224   4.295  1.1612  0.1218  0.0949
 4408TIP3    H134715   4.374   0.175   4.312  1.8106 -0.4403  1.8178
 4408TIP3    H234716   4.427   0.315   4.289  0.2568 -0.1808 -0.6285
 4409TIP3   OH234717   4.105   0.638  14.435 -0.0114  0.2899 -0.7242
 4409TIP3    H134718   4.106   0.557  14.487 -0.2009  0.9469  0.3388
 4409TIP3    H234719   4.040   0.621  14.366  1.4784 -1.2275 -1.8394
 4410TIP3   OH234720   2.759   5.207  11.743  0.5159 -0.0424 -0.1296
 4410TIP3    H134721   2.739   5.192  11.836 -0.2039  1.9734  0.0933
 4410TIP3    H234722   2.854   5.197  11.738  0.6751  0.6069  1.0282
 4411TIP3   OH234723   5.131   5.923  14.843 -0.5784  0.0669 -0.0795
 4411TIP3    H134724   5.209   5.877  14.812 -0.8274 -1.2744  1.1712
 4411TIP3    H234725   5.134   6.007  14.798  1.7687  0.1929  0.1510
 4412TIP3   OH234726   4.381   0.214  13.674  0.6111 -0.1151  0.3281
 4412TIP3    H134727   4.326   0.292  13.677 -1.6108 -1.5686  0.3924
 4412TIP3    H234728   4.440   0.223  13.750  0.3314  1.4091  0.4012
 4413TIP3   OH234729   2.111   5.101   0.257 -0.3803 -0.1379  0.6582
 4413TIP3    H134730   2.080   5.086   0.167  0.0659 -1.7518  0.7443
 4413TIP3    H234731   2.092   5.193   0.273 -1.5683 -0.1057 -0.6732
 4414TIP3   OH234732   2.511   0.062   2.226  0.3972 -0.0383 -0.0438
 4414TIP3    H134733   2.508   0.085   2.319 -0.8178 -1.9489  0.4426
 4414TIP3    H234734   2.422   0.076   2.195  0.8142  0.6710 -0.9881
 4415TIP3   OH234735   4.467   1.873   4.574  0.2931  0.1929  0.9857
 4415TIP3    H134736   4.510   1.854   4.658  1.2744  0.2871  0.5237
 4415TIP3    H234737   4.470   1.968   4.566 -1.9638  0.3924  1.9294
 4416TIP3   OH234738   3.727   4.419   3.679  0.1163 -0.2038 -0.0853
 4416TIP3    H134739   3.667   4.437   3.607  2.0922 -0.8504 -1.9868
 4416TIP3    H234740   3.794   4.363   3.641  2.3904  1.1544  1.6852
 4417TIP3   OH234741   4.052   0.392  12.025  0.6595  0.0260 -0.0233
 4417TIP3    H134742   4.130   0.429  11.984  0.6695 -0.3631 -0.3650
 4417TIP3    H234743   4.004   0.350  11.953  0.8231 -0.9194  0.3961
 4418TIP3   OH234744   0.664   4.908   0.516  0.3773  0.3059  0.2448
 4418TIP3    H134745   0.587   4.913   0.461 -0.3838  0.2595  1.2742
 4418TIP3    H234746   0.725   4.971   0.478 -0.2820  0.5640 -0.4027
 4419TIP3   OH234747   4.571   1.422  12.827 -0.0648 -0.6251 -0.0034
 4419TIP3    H134748   4.475   1.425  12.823 -0.0096  0.4588 -2.5666
 4419TIP3    H234749   4.598   1.514  12.827  1.0317 -0.8883  1.7072
 4420TIP3   OH234750   2.635   3.088  14.753  0.4226  0.8227  0.3509
 4420TIP3    H134751   2.623   3.148  14.679 -0.2615 -0.4429 -0.6265
 4420TIP3    H234752   2.555   3.098  14.805 -0.7072 -0.7393 -0.9860
 4421TIP3   OH234753   0.459   4.743   5.267 -0.3307  0.1304 -0.1048
 4421TIP3    H134754   0.484   4.679   5.333  0.4783  1.7983  1.2700
 4421TIP3    H234755   0.540   4.759   5.218 -0.4614  0.2983 -0.2668
 4422TIP3   OH234756   4.409   3.107   1.896 -0.4770  0.2100  0.5663
 4422TIP3    H134757   4.413   3.027   1.844 -2.6660  1.1208 -1.1553
 4422TIP3    H234758   4.401   3.076   1.986 -0.5542 -1.4793  0.0213
 4423TIP3   OH234759   2.037   4.805   3.963 -0.1853 -0.1419  0.0887
 4423TIP3    H134760   1.981   4.763   3.898 -0.0382  0.0069 -0.1354
 4423TIP3    H234761   2.049   4.738   4.031 -0.1276 -0.3899 -0.1628
 4424TIP3   OH234762   3.439   1.237  14.230  0.6236 -0.1405 -0.2119
 4424TIP3    H134763   3.353   1.260  14.266  1.3104 -0.1151  1.5023
 4424TIP3    H234764   3.472   1.168  14.288  1.9281  0.1206 -0.6073
 4425TIP3   OH234765   1.627   2.445  13.214 -0.2744  0.1056  0.3736
 4425TIP3    H134766   1.704   2.422  13.266  0.2421 -0.6298 -0.6856
 4425TIP3    H234767   1.627   2.382  13.141 -1.9522 -0.0123  0.4185
 4426TIP3   OH234768   5.185   0.764   6.603 -0.4458 -0.3190 -0.2463
 4426TIP3    H134769   5.215   0.685   6.556 -1.0118 -0.4883 -0.3314
 4426TIP3    H234770   5.248   0.832   6.578 -1.0354 -0.2672 -1.7026
 4427TIP3   OH234771   0.995   6.773  17.152  0.1130  0.2680  0.0694
 4427TIP3    H134772   0.999   6.849  17.211 -0.6235  1.2345 -1.0707
 4427TIP3    H234773   1.074   6.779  17.099 -0.0254  0.3418 -0.1313
 4428TIP3   OH234774   1.707   6.162   5.105 -0.0027 -0.2836 -0.7032
 4428TIP3    H134775   1.746   6.077   5.126  1.1153  1.2573  5.0105
 4428TIP3    H234776   1.632   6.170   5.164 -0.3599  2.5332 -1.3720
 4429TIP3   OH234777   0.630   0.761  14.005  0.4098  0.5038  0.1546
 4429TIP3    H134778   0.545   0.765  13.961  0.4783  0.6561  0.0343
 4429TIP3    H234779   0.670   0.846  13.987  0.9003  0.1576 -0.4380
 4430TIP3   OH234780   6.241   3.351  11.397 -0.7221 -0.4289  0.4140
 4430TIP3    H134781   6.163   3.348  11.342 -1.1330  1.4455  0.7996
 4430TIP3    H234782   6.237   3.438  11.439  0.9351 -0.7703  1.3723
 4431TIP3   OH234783   4.214   4.075   0.075 -0.1902 -0.3434 -0.0046
 4431TIP3    H134784   4.170   4.111  -0.003  1.7516  2.4062  0.0374
 4431TIP3    H234785   4.274   4.010   0.041 -1.1545 -0.9983 -0.5028
 4432TIP3   OH234786   3.562   4.200  17.220 -0.0724 -0.0396 -0.4048
 4432TIP3    H134787   3.551   4.126  17.280 -1.5041  0.6203  0.1894
 4432TIP3    H234788   3.476   4.210  17.179  1.0785 -1.1275 -3.4193
 4433TIP3   OH234789   6.755   3.133   3.108  0.4144 -0.5936  0.6831
 4433TIP3    H134790   6.766   3.039   3.092 -2.2900 -1.0096  0.7883
 4433TIP3    H234791   6.703   3.138   3.188 -3.0169  0.7539 -1.4101
 4434TIP3   OH234792   1.827   1.067   5.443  0.1643  0.3766  0.0196
 4434TIP3    H134793   1.847   1.153   5.405  0.2737 -0.9671 -3.2829
 4434TIP3    H234794   1.741   1.045   5.407  0.3652 -1.1038  0.4041
 4435TIP3   OH234795   2.829   3.610   2.653 -0.4348 -0.2846  0.0455
 4435TIP3    H134796   2.907   3.575   2.696  0.7461  1.7018 -0.3465
 4435TIP3    H234797   2.823   3.701   2.684 -1.9622 -0.0710 -0.7711
 4436TIP3   OH234798   4.819   5.305   0.025 -0.0916 -0.0757 -0.4541
 4436TIP3    H134799   4.888   5.243   0.002 -0.5623 -2.0457  2.7460
 4436TIP3    H234800   4.865   5.379   0.064  0.4109 -1.8765  2.7467
 4437TIP3   OH234801   0.640   2.176   0.337 -0.1557  0.0189  0.4927
 4437TIP3    H134802   0.591   2.199   0.416  0.7026 -0.3774  1.1568
 4437TIP3    H234803   0.574   2.175   0.267 -1.1460 -0.7745  1.4089
 4438TIP3   OH234804   5.584   5.742   4.010 -0.3356  0.7356  0.5226
 4438TIP3    H134805   5.633   5.768   4.087  3.9538  1.5427 -2.1381
 4438TIP3    H234806   5.518   5.810   3.999  0.1615  1.5838  2.4145
 4439TIP3   OH234807   3.590   3.538  13.295 -0.2909  0.2320 -0.6397
 4439TIP3    H134808   3.553   3.601  13.358 -1.1837 -0.7835 -0.1091
 4439TIP3    H234809   3.676   3.517  13.330 -0.9105 -0.5761  0.4648
 4440TIP3   OH234810   2.487   0.502   5.016  0.6625  0.0989  0.0071
 4440TIP3    H134811   2.505   0.478   5.107  1.8833  0.6506 -0.0610
 4440TIP3    H234812   2.488   0.598   5.016  0.9536  0.1041 -0.6278
 4441TIP3   OH234813   3.340   2.706  10.559 -0.0404 -0.0815  0.4213
 4441TIP3    H134814   3.278   2.729  10.629 -0.0243 -0.2115  0.4790
 4441TIP3    H234815   3.352   2.787  10.510  1.7062  0.6165  1.9146
 4442TIP3   OH234816   6.497   0.388  14.791  0.0273  0.3568 -0.0139
 4442TIP3    H134817   6.408   0.360  14.812  0.0049 -0.7026 -1.3804
 4442TIP3    H234818   6.545   0.307  14.775  0.8183  0.9730 -0.8608
 4443TIP3   OH234819   1.187   0.110  15.142  0.4707 -0.2376  0.5418
 4443TIP3    H134820   1.109   0.096  15.089  0.7794 -0.7437  0.2131
 4443TIP3    H234821   1.223   0.193  15.112  2.0125 -1.6370 -1.8274
 4444TIP3   OH234822   2.935   5.702   0.340  0.1290 -0.1626  0.9419
 4444TIP3    H134823   2.922   5.784   0.388  3.0348  2.0852 -1.6821
 4444TIP3    H234824   3.006   5.658   0.387 -0.1824 -0.2771  1.3100
 4445TIP3   OH234825   3.561   2.048   5.636  0.2801 -0.1255  0.0707
 4445TIP3    H134826   3.643   2.064   5.588  0.4534 -1.2783 -0.0515
 4445TIP3    H234827   3.506   2.002   5.573 -1.4158  2.7164 -0.6675
 4446TIP3   OH234828   4.426   0.936   5.364  0.3288 -0.6743  0.3058
 4446TIP3    H134829   4.514   0.938   5.402 -0.6925 -0.6756  2.9167
 4446TIP3    H234830   4.413   0.844   5.339  1.1938 -0.5940 -0.4812
 4447TIP3   OH234831   1.117   2.190  12.903 -0.0514 -0.5407  0.0911
 4447TIP3    H134832   1.154   2.253  12.965  0.8325  3.2470 -3.8474
 4447TIP3    H234833   1.193   2.143  12.868 -0.0177  0.3238 -1.0403
 4448TIP3   OH234834   5.963   6.198   4.787  0.3766 -0.6623  0.7851
 4448TIP3    H134835   5.934   6.268   4.847 -0.0670 -0.0572 -0.1110
 4448TIP3    H234836   6.051   6.224   4.761  0.2057 -0.4263  0.4396
 4449TIP3   OH234837   3.259   2.042  11.168 -0.3266  0.0421 -0.2635
 4449TIP3    H134838   3.282   1.949  11.168 -0.4603 -0.0639  2.3531
 4449TIP3    H234839   3.196   2.051  11.097  1.3740 -1.3802 -2.0533
 4450TIP3   OH234840   4.515   6.484  16.673  0.0922 -0.3062 -0.4198
 4450TIP3    H134841   4.539   6.406  16.724  0.1404 -0.2305 -0.3256
 4450TIP3    H234842   4.502   6.552  16.739  0.2432 -0.1849 -0.5151
 4451TIP3   OH234843   5.123   6.428   3.310 -0.0978  0.1002 -0.5951
 4451TIP3    H134844   5.094   6.381   3.232 -1.5832 -1.2940  0.7200
 4451TIP3    H234845   5.199   6.379   3.341 -1.1680 -1.0656  0.3248
 4452TIP3   OH234846   3.364   1.866  11.612 -0.5175 -0.2032 -0.3273
 4452TIP3    H134847   3.327   1.798  11.555  1.0647  1.2214 -3.3146
 4452TIP3    H234848   3.350   1.947  11.563 -1.3533  1.5728  2.6006
 4453TIP3   OH234849   4.905   4.750   2.061 -0.7281 -0.4464  0.5442
 4453TIP3    H134850   4.837   4.772   1.997  1.5288  0.4177 -1.7443
 4453TIP3    H234851   4.868   4.677   2.111 -3.0383 -0.5041 -1.0921
 4454TIP3   OH234852   0.215   4.021   3.898  0.0176  0.4738  0.4210
 4454TIP3    H134853   0.295   4.071   3.914  1.1849 -1.1571  0.0090
 4454TIP3    H234854   0.247   3.938   3.862 -1.8065 -0.6774  1.3442
 4455TIP3   OH234855   0.148   3.838  13.046  0.1795 -0.2977 -0.0491
 4455TIP3    H134856   0.119   3.819  13.135  1.2139 -1.0053  0.1589
 4455TIP3    H234857   0.207   3.912  13.056  0.5441 -0.5792 -0.0952
 4456TIP3   OH234858   2.339   2.449  13.133  0.2043  0.3825 -0.1498
 4456TIP3    H134859   2.247   2.475  13.138  0.1149  0.0666 -0.0792
 4456TIP3    H234860   2.388   2.530  13.144 -0.0388  0.3043  2.0125
 4457TIP3   OH234861   1.736   2.867   2.935 -0.2165 -0.4715  0.5632
 4457TIP3    H134862   1.642   2.875   2.921  0.0304  0.8737 -0.5158
 4457TIP3    H234863   1.753   2.773   2.936 -1.2430 -0.7445 -1.7644
 4458TIP3   OH234864   0.881   2.012  15.939  0.7778 -0.0975 -0.6881
 4458TIP3    H134865   0.916   2.098  15.963 -0.5763  0.0039  1.1365
 4458TIP3    H234866   0.788   2.028  15.922  0.5648 -1.1598 -0.5643
 4459TIP3   OH234867   2.381   6.658   3.853  0.1489 -0.4846 -0.3659
 4459TIP3    H134868   2.319   6.588   3.834  1.2915 -1.4748 -0.5204
 4459TIP3    H234869   2.432   6.668   3.773 -0.2408  0.7866 -0.4738
 4460TIP3   OH234870   6.695   1.908   3.140  0.0299 -0.2156 -0.0938
 4460TIP3    H134871   6.663   1.991   3.103  0.6367 -0.8104 -2.1031
 4460TIP3    H234872   6.748   1.934   3.215  1.6160  1.4159 -1.6711
 4461TIP3   OH234873   2.027   1.266   6.413  0.4833  0.1625  0.2211
 4461TIP3    H134874   1.993   1.182   6.384 -1.1500  0.0787  2.1644
 4461TIP3    H234875   2.047   1.254   6.506  3.6169  0.9540 -0.2356
 4462TIP3   OH234876   2.373   4.214   5.268  0.3534  0.4683 -0.7411
 4462TIP3    H134877   2.364   4.119   5.265  2.5705  0.1148  0.9554
 4462TIP3    H234878   2.466   4.228   5.289 -0.5524  2.8996  2.3394
 4463TIP3   OH234879   2.282   2.678  16.949  0.1373  0.4568 -0.2694
 4463TIP3    H134880   2.322   2.753  16.907  0.4395  0.3194 -0.2304
 4463TIP3    H234881   2.201   2.712  16.987  0.5632  0.8948  0.2598
 4464TIP3   OH234882   6.549   6.445  15.340  0.5001  0.1012 -0.0601
 4464TIP3    H134883   6.498   6.460  15.261 -0.9897 -0.5744  0.7297
 4464TIP3    H234884   6.549   6.350  15.352  1.1698  0.1574  0.4436
 4465TIP3   OH234885   0.157   5.096  13.970  0.3166 -0.7124 -0.0799
 4465TIP3    H134886   0.105   5.017  13.980  0.1896 -0.4336  1.6339
 4465TIP3    H234887   0.141   5.147  14.049  1.6616  0.2911 -0.4010
 4466TIP3   OH234888   0.436   4.465   5.699  0.2756  0.0120 -0.0387
 4466TIP3    H134889   0.414   4.550   5.736 -2.8549 -0.0958 -1.3653
 4466TIP3    H234890   0.389   4.402   5.753 -0.3584 -0.5313 -1.1823
 4467TIP3   OH234891   1.389   4.970   3.900 -0.0696  0.4095 -0.5217
 4467TIP3    H134892   1.389   4.950   3.806  1.3302 -1.7274 -0.1389
 4467TIP3    H234893   1.297   4.973   3.924 -0.5424 -3.4166 -1.2178
 4468TIP3   OH234894   6.063   6.361   1.212  0.2841 -0.0041 -0.0284
 4468TIP3    H134895   6.051   6.361   1.307  0.6067 -0.4801  0.0144
 4468TIP3    H234896   6.134   6.299   1.196 -0.7419 -1.0838 -0.6895
 4469TIP3   OH234897   5.508   3.490  15.454  0.5284  0.4467 -0.4180
 4469TIP3    H134898   5.554   3.409  15.433 -1.0428 -0.2957 -1.1724
 4469TIP3    H234899   5.442   3.464  15.518 -1.0901  0.7529 -1.8954
 4470TIP3   OH234900   3.513   4.274   3.458  0.4319 -0.3153  0.2265
 4470TIP3    H134901   3.525   4.250   3.550  2.8763  2.4465  0.7796
 4470TIP3    H234902   3.579   4.222   3.411 -0.5551 -1.4330  0.0181
 4471TIP3   OH234903   5.779   0.887  17.042  0.6132 -0.3348 -0.2532
 4471TIP3    H134904   5.725   0.965  17.054  1.0042 -0.1733  0.5068
 4471TIP3    H234905   5.719   0.814  17.055  0.5490 -0.1553  0.4948
 4472TIP3   OH234906   3.622   6.780  14.383 -0.1676 -0.3312  0.1856
 4472TIP3    H134907   3.635   6.703  14.328 -0.2334  1.5118 -2.6730
 4472TIP3    H234908   3.534   6.769  14.419 -0.2299 -1.5181 -0.2825
 4473TIP3   OH234909   6.687   6.420  11.762  0.0194  0.6570 -0.2597
 4473TIP3    H134910   6.638   6.460  11.690  0.6250  0.6143 -0.7099
 4473TIP3    H234911   6.778   6.443  11.744  0.2335  0.2104  0.2207
 4474TIP3   OH234912   1.275   3.179  10.498 -0.7122  0.0386 -0.5433
 4474TIP3    H134913   1.230   3.109  10.451 -0.6093 -0.9690  0.8075
 4474TIP3    H234914   1.366   3.151  10.501 -0.5820  0.4698 -0.3879
 4475TIP3   OH234915   1.433   0.588  16.695  0.0979  0.1856  0.7546
 4475TIP3    H134916   1.372   0.653  16.731 -1.6306 -1.2865  0.6622
 4475TIP3    H234917   1.452   0.620  16.606 -4.7741 -1.7226 -1.3391
 4476TIP3   OH234918   6.123   1.021   0.430  0.7072 -0.6400  0.5215
 4476TIP3    H134919   6.038   1.061   0.411  1.1454 -0.8729 -2.4005
 4476TIP3    H234920   6.156   1.070   0.505 -1.5413  0.1542  1.0694
 4477TIP3   OH234921   5.249   4.405  12.712  0.3649 -0.0742  0.0060
 4477TIP3    H134922   5.262   4.310  12.714  1.1916  0.0002 -0.8658
 4477TIP3    H234923   5.154   4.417  12.717  0.3242 -0.8758  1.6165
 4478TIP3   OH234924   0.505   2.173   6.250 -0.6525  0.0198  0.3282
 4478TIP3    H134925   0.536   2.096   6.298 -1.5072 -0.6595 -0.1806
 4478TIP3    H234926   0.579   2.234   6.253  0.3598 -1.1379  0.0579
 4479TIP3   OH234927   3.729   6.103   3.634  0.1697 -0.0488 -0.2272
 4479TIP3    H134928   3.758   6.089   3.724  1.4534  3.0843 -0.0551
 4479TIP3    H234929   3.634   6.113   3.640  0.0116 -1.6304  0.4610
 4480TIP3   OH234930   3.865   1.070   4.943  0.2931  0.1181  0.4413
 4480TIP3    H134931   3.875   1.030   4.857 -2.5749  0.9181 -0.3931
 4480TIP3    H234932   3.876   0.998   5.005  0.4892 -0.8617 -0.7116
 4481TIP3   OH234933   6.793   1.529   0.818 -0.2916 -0.0816 -0.0991
 4481TIP3    H134934   6.809   1.442   0.782  0.3809 -0.6764  1.5368
 4481TIP3    H234935   6.880   1.568   0.826 -0.6487  1.0987 -1.5928
 4482TIP3   OH234936   4.824   3.820   4.845 -0.4590  0.5117  0.1416
 4482TIP3    H134937   4.764   3.753   4.876  1.1039 -0.0388  2.2320
 4482TIP3    H234938   4.772   3.900   4.843 -1.7251 -0.2935  0.0331
 4483TIP3   OH234939   5.751   2.248  14.462 -0.2231  0.0221 -0.2621
 4483TIP3    H134940   5.706   2.173  14.500 -0.6304  1.0880  1.4927
 4483TIP3    H234941   5.844   2.226  14.468 -0.3749 -0.8072 -0.8394
 4484TIP3   OH234942   5.948   0.425   4.444 -0.2439  0.2831  0.1784
 4484TIP3    H134943   5.917   0.498   4.390 -0.1185 -0.3511 -0.7687
 4484TIP3    H234944   6.017   0.385   4.392 -2.0129 -2.0801 -0.4955
 4485TIP3   OH234945   0.730   5.719  12.941  0.4343 -0.3526 -0.0074
 4485TIP3    H134946   0.693   5.639  12.979  2.7566 -0.9996  1.0216
 4485TIP3    H234947   0.662   5.749  12.881 -1.2187 -2.1524  0.8309
 4486TIP3   OH234948   0.831   2.184  15.486 -0.4411 -0.1387  0.3640
 4486TIP3    H134949   0.780   2.247  15.435  0.9312 -0.6197 -1.7340
 4486TIP3    H234950   0.910   2.170  15.434 -1.5003 -5.0953 -0.4819
 4487TIP3   OH234951   3.020   4.492   1.668 -0.1564 -0.2022 -0.6397
 4487TIP3    H134952   3.035   4.545   1.590 -0.6887 -0.4836 -0.9359
 4487TIP3    H234953   3.085   4.524   1.731 -1.0097  1.3838 -0.5133
 4488TIP3   OH234954   4.322   4.489   3.302  0.4995 -0.0634  0.2192
 4488TIP3    H134955   4.385   4.518   3.368  0.2944  0.0905  0.3484
 4488TIP3    H234956   4.358   4.406   3.269  0.8937  0.1450  0.1161
 4489TIP3   OH234957   0.112   3.411   3.612 -0.5968 -0.0147 -0.0580
 4489TIP3    H134958   0.037   3.413   3.552 -0.3031 -1.5819 -0.5333
 4489TIP3    H234959   0.081   3.358   3.686 -0.3949  0.4793  0.3818
 4490TIP3   OH234960   4.781   5.500  12.284 -0.6830  0.1895 -0.7763
 4490TIP3    H134961   4.792   5.431  12.350  0.7049  1.0991  0.0180
 4490TIP3    H234962   4.815   5.462  12.203  0.0790 -0.0689 -0.3436
 4491TIP3   OH234963   6.408   2.848  11.835 -0.1240 -0.7258 -0.4298
 4491TIP3    H134964   6.372   2.903  11.765 -1.4929  1.0946  1.5581
 4491TIP3    H234965   6.332   2.802  11.870  0.5812 -1.7770 -0.2435
 4492TIP3   OH234966   3.351   1.882  13.618  0.3309 -0.2810 -0.9980
 4492TIP3    H134967   3.301   1.864  13.698  0.7565 -0.3841 -0.7556
 4492TIP3    H234968   3.422   1.940  13.646  0.3847 -0.1843 -1.3314
 4493TIP3   OH234969   3.008   4.794   0.220  0.1695 -0.1777  0.6207
 4493TIP3    H134970   2.990   4.856   0.291 -1.3172 -1.0658  1.0407
 4493TIP3    H234971   2.954   4.824   0.147 -0.8696 -1.1870  0.9551
 4494TIP3   OH234972   4.496   1.495   0.659  0.3534  0.6180 -0.3524
 4494TIP3    H134973   4.483   1.417   0.714 -1.1590  0.4569 -0.8748
 4494TIP3    H234974   4.584   1.486   0.624 -0.2662 -1.6168 -1.5252
 4495TIP3   OH234975   0.919   2.936  12.941  0.6225 -0.3055  0.5653
 4495TIP3    H134976   0.844   2.991  12.961  0.7269  1.0128 -2.2482
 4495TIP3    H234977   0.921   2.871  13.012 -2.1642  0.5964  1.5855
 4496TIP3   OH234978   6.338   2.074  10.882 -0.1342  0.2988 -0.0178
 4496TIP3    H134979   6.320   1.995  10.831 -1.0840 -0.1712  1.0112
 4496TIP3    H234980   6.413   2.050  10.937 -1.5281 -0.5533  1.6078
 4497TIP3   OH234981   1.011   0.875  13.453  0.0297 -0.3077  0.1144
 4497TIP3    H134982   1.089   0.872  13.397 -0.2077  2.3237 -0.5047
 4497TIP3    H234983   1.046   0.889  13.541  0.2948  1.2356 -0.2117
 4498TIP3   OH234984   1.542   5.518  15.603 -0.7083  0.1453  0.4151
 4498TIP3    H134985   1.539   5.613  15.614 -0.6612  0.3786 -1.3140
 4498TIP3    H234986   1.595   5.504  15.525 -1.4232 -1.2571  0.1326
 4499TIP3   OH234987   6.514   3.657   2.235  0.1011 -0.3910 -0.4631
 4499TIP3    H134988   6.594   3.616   2.201  0.5644  0.6846 -0.7127
 4499TIP3    H234989   6.469   3.691   2.158 -0.0842 -0.0894 -0.2228
 4500TIP3   OH234990   3.284   6.086   2.333 -0.1225  0.1496 -0.2440
 4500TIP3    H134991   3.202   6.079   2.383 -0.4587  0.6971 -0.7132
 4500TIP3    H234992   3.323   5.999   2.341  0.2720  0.4619  1.7094
 4501TIP3   OH234993   3.374   2.964  14.651  0.0035 -0.0346 -0.0336
 4501TIP3    H134994   3.332   2.901  14.593  0.8759  1.4148 -2.4025
 4501TIP3    H234995   3.347   3.049  14.617  0.6542  0.8898  1.6651
 4502TIP3   OH234996   1.351   3.274   5.528  0.3978  0.0963  0.0014
 4502TIP3    H134997   1.309   3.268   5.614 -0.9715 -1.9252 -0.7377
 4502TIP3    H234998   1.283   3.305   5.469  1.0431  0.4906 -0.5597
 4503TIP3   OH234999   5.367   1.137  16.708 -0.3947 -0.0990  0.0597
 4503TIP3    H135000   5.460   1.135  16.728 -0.5688 -0.4361  0.8666
 4503TIP3    H235001   5.353   1.059  16.653  0.1551  1.0445 -1.7746
 4504TIP3   OH235002   1.556   5.851  10.934 -0.4875 -0.3722  0.2055
 4504TIP3    H135003   1.598   5.925  10.891  0.8405 -0.3443  1.4848
 4504TIP3    H235004   1.464   5.877  10.940 -0.0501  1.1961  0.6372
 4505TIP3   OH235005   6.492   1.541  14.053  0.2744  0.8146  0.2899
 4505TIP3    H135006   6.575   1.550  14.006  0.9570  1.7967  1.6237
 4505TIP3    H235007   6.473   1.447  14.050  1.0717  0.6700 -0.6340
 4506TIP3   OH235008   2.077   4.662   5.063 -0.0343  0.3305 -0.7850
 4506TIP3    H135009   2.169   4.637   5.063 -0.1695 -0.3030  0.7803
 4506TIP3    H235010   2.076   4.752   5.029  0.9572 -0.2155 -2.3246
 4507TIP3   OH235011   2.522   1.389   3.755 -0.1578  0.1337  0.0718
 4507TIP3    H135012   2.516   1.469   3.703 -1.9737 -0.4486 -0.6989
 4507TIP3    H235013   2.616   1.371   3.761  0.2198  1.6325 -0.7840
 4508TIP3   OH235014   6.516   3.965  16.922 -0.6403 -0.5856 -0.2115
 4508TIP3    H135015   6.566   3.962  16.840 -0.9573 -0.6477 -0.4035
 4508TIP3    H235016   6.424   3.965  16.894 -0.7505 -0.7374  0.1482
 4509TIP3   OH235017   4.875   6.584   3.886 -0.0495  0.7547 -1.1282
 4509TIP3    H135018   4.906   6.494   3.887 -0.3277  0.6576  0.3758
 4509TIP3    H235019   4.889   6.616   3.975  0.1377  2.2409 -1.6502
 4510TIP3   OH235020   2.871   3.798  10.493 -0.1868  0.1495  0.1877
 4510TIP3    H135021   2.950   3.745  10.508 -0.5867 -0.6887 -0.5528
 4510TIP3    H235022   2.799   3.743  10.525 -0.4568  1.0518  1.1930
 4511TIP3   OH235023   4.271   5.054   5.739  0.2837 -0.2100 -0.2700
 4511TIP3    H135024   4.320   5.072   5.660  2.2451 -0.7586  0.7610
 4511TIP3    H235025   4.238   4.964   5.727 -0.6033  0.2070 -1.0172
 4512TIP3   OH235026   5.361   3.550  15.740  0.5080  0.6519 -0.5179
 4512TIP3    H135027   5.336   3.458  15.754 -2.0315  1.0508 -1.8721
 4512TIP3    H235028   5.305   3.599  15.800  1.4216  1.3566 -0.2356
 4513TIP3   OH235029   4.061   6.008   3.484 -0.1543  0.1626 -0.1795
 4513TIP3    H135030   3.987   6.067   3.501 -0.4774  0.4792 -2.3825
 4513TIP3    H235031   4.137   6.054   3.519 -0.4233  1.8803 -1.6910
 4514TIP3   OH235032   2.099   4.819   5.885 -0.2412 -0.4754  0.2717
 4514TIP3    H135033   2.136   4.893   5.933 -0.7463 -0.3625  0.4972
 4514TIP3    H235034   2.086   4.751   5.952 -1.7235 -0.0274  0.4822
 4515TIP3   OH235035   2.671   1.778   5.509 -0.4978 -0.4079  0.1979
 4515TIP3    H135036   2.741   1.774   5.574 -1.3328  0.8031  1.2167
 4515TIP3    H235037   2.647   1.687   5.493 -0.2224 -0.7353  1.5389
 4516TIP3   OH235038   3.922   2.616   4.197 -0.2114  0.3308 -0.6420
 4516TIP3    H135039   3.930   2.698   4.149  0.9457  0.0605 -0.9465
 4516TIP3    H235040   4.011   2.599   4.230 -0.4914 -0.6527 -0.3633
 4517TIP3   OH235041   1.864   3.307  11.710 -0.6019 -0.0254  0.1990
 4517TIP3    H135042   1.797   3.243  11.735  0.3424 -1.0314  0.2004
 4517TIP3    H235043   1.864   3.371  11.782 -1.4741 -0.0746  0.2500
 4518TIP3   OH235044   5.956   2.788   5.149  0.0459  0.1535 -0.5829
 4518TIP3    H135045   5.879   2.753   5.104 -0.3702  2.3186 -1.7299
 4518TIP3    H235046   6.010   2.826   5.079  1.0819  0.5870  0.4152
 4519TIP3   OH235047   2.286   3.816   0.361  0.1710 -0.2240  0.3533
 4519TIP3    H135048   2.370   3.776   0.343  0.7997  0.9783  0.5033
 4519TIP3    H235049   2.273   3.878   0.288 -0.1936  0.1892  0.7618
 4520TIP3   OH235050   5.080   4.823   3.644 -0.2809 -0.2552  0.5067
 4520TIP3    H135051   5.050   4.760   3.710 -0.0591 -0.1810  0.6816
 4520TIP3    H235052   5.164   4.788   3.615  1.2426  1.3536  2.6118
 4521TIP3   OH235053   2.679   2.529   0.705 -0.7497  0.5513  0.0677
 4521TIP3    H135054   2.604   2.544   0.762 -0.8594 -0.0752  0.1001
 4521TIP3    H235055   2.716   2.446   0.736  0.1107  0.9879  0.2155
 4522TIP3   OH235056   3.804   6.121   1.782 -0.2520 -0.0890 -0.3340
 4522TIP3    H135057   3.805   6.054   1.713  0.4222 -0.2672 -0.1571
 4522TIP3    H235058   3.827   6.202   1.737  0.1831 -0.2045 -0.3185
 4523TIP3   OH235059   2.642   5.077   6.695  0.2712 -0.0051 -0.2102
 4523TIP3    H135060   2.580   5.009   6.722  0.5773 -0.5196 -0.7691
 4523TIP3    H235061   2.727   5.048   6.729  0.3890  0.1483 -0.3687
 4524TIP3   OH235062   5.426   4.866  13.891  0.2025 -0.5248 -0.3544
 4524TIP3    H135063   5.352   4.817  13.854  0.4249 -0.4552 -0.9007
 4524TIP3    H235064   5.475   4.801  13.942 -0.0092 -0.6654 -0.3311
 4525TIP3   OH235065   5.006   3.310   3.675 -0.1137  0.1134 -0.4571
 4525TIP3    H135066   5.024   3.218   3.691  2.0383  0.5628  0.0971
 4525TIP3    H235067   5.053   3.331   3.594  0.0326  0.8815 -0.1864
 4526TIP3   OH235068   2.215   4.962  16.295 -0.6509  0.5283 -0.5524
 4526TIP3    H135069   2.186   4.875  16.319  1.7830 -0.0753  0.5697
 4526TIP3    H235070   2.293   4.947  16.241 -0.9586  1.9981 -1.4613
 4527TIP3   OH235071   5.702   5.967  12.735  0.3405  0.2201 -0.4564
 4527TIP3    H135072   5.776   6.017  12.769  0.4713 -0.2739  0.0014
 4527TIP3    H235073   5.660   5.930  12.813  0.4079 -0.5951 -0.7977
 4528TIP3   OH235074   3.482   0.596   1.000 -0.4749 -0.2210 -0.3440
 4528TIP3    H135075   3.453   0.515   1.041 -1.2050  0.3777  0.3415
 4528TIP3    H235076   3.574   0.603   1.024 -0.1021 -1.3635 -1.2883
 4529TIP3   OH235077   1.738   5.665   1.938 -0.1332  0.1432 -0.6974
 4529TIP3    H135078   1.714   5.596   1.999 -0.2941  0.5936 -0.2502
 4529TIP3    H235079   1.825   5.640   1.906 -0.3941 -0.5121 -0.9029
 4530TIP3   OH235080   1.668   4.942   4.248 -0.3783 -0.1335  0.2857
 4530TIP3    H135081   1.615   4.947   4.327 -2.4099 -1.4709 -0.9008
 4530TIP3    H235082   1.698   4.851   4.244  0.1199  0.0465 -0.2320
 4531TIP3   OH235083   6.531   4.885   5.395 -0.1374  0.7615  0.3459
 4531TIP3    H135084   6.545   4.795   5.367 -4.3497 -0.3871  1.1561
 4531TIP3    H235085   6.562   4.938   5.322  2.2783 -1.2697 -0.2391
 4532TIP3   OH235086   3.102   6.229   0.606 -0.3223 -0.8462 -0.3217
 4532TIP3    H135087   3.069   6.187   0.527  1.7632 -1.0216 -1.1455
 4532TIP3    H235088   3.128   6.316   0.579 -0.0099 -0.7425  0.2835
 4533TIP3   OH235089   0.832   1.030  16.335  0.4488  0.2904  0.0722
 4533TIP3    H135090   0.885   0.960  16.298  1.1297 -0.4569  2.2908
 4533TIP3    H235091   0.770   0.985  16.393 -1.3203  1.3103 -0.9534
 4534TIP3   OH235092   4.532   2.582  13.499  0.2558 -0.0228  0.0333
 4534TIP3    H135093   4.567   2.671  13.494 -2.9845  1.4476  0.9358
 4534TIP3    H235094   4.467   2.578  13.429 -1.5512 -0.6569  1.6488
 4535TIP3   OH235095   4.367   2.068  11.999 -0.0510 -0.6998  0.2269
 4535TIP3    H135096   4.439   2.106  12.048 -0.0292 -0.7110  0.2036
 4535TIP3    H235097   4.348   1.985  12.043 -0.3560 -0.4839  0.5159
 4536TIP3   OH235098   2.773   3.342   4.915 -0.6675  0.3745  0.1211
 4536TIP3    H135099   2.860   3.356   4.953 -0.5081  0.0012 -0.0990
 4536TIP3    H235100   2.789   3.334   4.821 -0.7991 -0.7944  0.1859
 4537TIP3   OH235101   2.342   0.245  11.744  0.3394  0.3332 -0.5186
 4537TIP3    H135102   2.250   0.241  11.767  0.0545 -0.6639 -1.7143
 4537TIP3    H235103   2.346   0.209  11.655  1.5666  2.4390 -1.4129
 4538TIP3   OH235104   1.618   1.911   5.117 -0.1089  0.4109  0.4346
 4538TIP3    H135105   1.588   1.820   5.110 -1.9243  1.0516 -0.7625
 4538TIP3    H235106   1.545   1.957   5.158  0.6372  1.4282  0.6532
 4539TIP3   OH235107   5.861   3.494   4.256 -0.2935 -0.8638  0.1629
 4539TIP3    H135108   5.783   3.497   4.201 -0.6512  1.5156  0.6630
 4539TIP3    H235109   5.934   3.502   4.195 -0.5278 -1.2420 -0.1707
 4540TIP3   OH235110   1.387   0.622   4.317 -0.5944 -0.2807  0.7193
 4540TIP3    H135111   1.302   0.580   4.306  0.7355 -2.7912 -1.1044
 4540TIP3    H235112   1.439   0.559   4.366  1.3945 -0.8329 -1.8567
 4541TIP3   OH235113   0.896   5.063   3.784 -0.4746 -0.2382  0.1710
 4541TIP3    H135114   0.805   5.092   3.786 -0.5356 -0.4259  1.3964
 4541TIP3    H235115   0.947   5.144   3.781 -0.6757 -0.1486 -1.1502
 4542TIP3   OH235116   2.202   0.100   4.059  0.6837 -0.0801 -0.3498
 4542TIP3    H135117   2.190   0.136   3.971 -1.5207  1.4960  0.5258
 4542TIP3    H235118   2.162   0.013   4.054 -0.6749  0.5339 -0.5796
 4543TIP3   OH235119   3.611   1.555   2.764 -0.5159  0.0256 -0.3981
 4543TIP3    H135120   3.623   1.511   2.849  0.0928  1.9820  0.5772
 4543TIP3    H235121   3.639   1.645   2.780  0.8832  0.1366 -3.0252
 4544TIP3   OH235122   0.003   6.011   2.283 -0.3179 -0.1823 -0.3617
 4544TIP3    H135123   0.046   6.082   2.235 -1.3990  1.4668  0.9876
 4544TIP3    H235124   0.023   6.028   2.375 -1.3944 -1.0561  0.0610
 4545TIP3   OH235125   5.971   1.120  16.462  0.1049 -0.2529  0.2529
 4545TIP3    H135126   5.996   1.191  16.403 -1.0345  0.4659  0.6058
 4545TIP3    H235127   5.876   1.112  16.452 -0.1370 -0.0412  2.0486
 4546TIP3   OH235128   1.835   1.064   1.641 -0.6263 -0.5783 -0.1636
 4546TIP3    H135129   1.792   0.979   1.644  0.5070 -1.1534  0.4364
 4546TIP3    H235130   1.820   1.095   1.552 -2.0422 -0.8560 -0.0500
 4547TIP3   OH235131   1.482   3.155   1.939 -0.9126 -0.2441  0.1574
 4547TIP3    H135132   1.455   3.243   1.915 -0.5084 -0.4140 -0.9551
 4547TIP3    H235133   1.455   3.146   2.031  0.1336  1.4446  0.6582
 4548TIP3   OH235134   5.759   6.306  16.620  0.4490  0.1431  0.0920
 4548TIP3    H135135   5.702   6.351  16.682 -0.8745 -0.0776 -0.9146
 4548TIP3    H235136   5.756   6.214  16.647  0.0904  0.0902 -0.1120
 4549TIP3   OH235137   4.793   5.195  12.906 -0.2675  0.3913  0.3401
 4549TIP3    H135138   4.764   5.214  12.995  2.5951  1.2406  1.1908
 4549TIP3    H235139   4.712   5.182  12.857 -1.9865 -1.9374  3.3914
 4550TIP3   OH235140   6.471   3.881   3.022 -0.3075 -0.4038 -0.6736
 4550TIP3    H135141   6.534   3.950   3.004  1.1240 -1.5789 -0.3455
 4550TIP3    H235142   6.396   3.926   3.061  0.0834  1.0864 -1.5752
 4551TIP3   OH235143   0.807   5.095   0.833 -0.0986  0.1926  0.5689
 4551TIP3    H135144   0.781   5.187   0.828  1.9983  0.9015  1.3618
 4551TIP3    H235145   0.892   5.092   0.789 -0.2214 -1.4183  0.3927
 4552TIP3   OH235146   2.720   0.730  17.224 -0.3369 -0.2087  0.3039
 4552TIP3    H135147   2.641   0.733  17.170  0.1783  2.1844 -0.3926
 4552TIP3    H235148   2.788   0.698  17.165  0.0160  1.4861 -0.2590
 4553TIP3   OH235149   3.857   5.389   0.497 -0.4589  0.2606  0.0472
 4553TIP3    H135150   3.834   5.350   0.581 -2.0049 -0.5537 -0.7136
 4553TIP3    H235151   3.916   5.325   0.457  0.1420  0.5707  0.4132
 4554TIP3   OH235152   4.893   5.236   2.347 -0.0586 -0.3967  0.5055
 4554TIP3    H135153   4.985   5.219   2.329  0.6443  1.7105  1.8187
 4554TIP3    H235154   4.846   5.167   2.299  2.1139 -0.9126 -0.9987
 4555TIP3   OH235155   1.665   3.273  14.706 -0.4187 -0.2676  0.1063
 4555TIP3    H135156   1.612   3.228  14.772 -1.3180 -3.0645 -2.3026
 4555TIP3    H235157   1.750   3.286  14.749 -1.4189 -0.4387  2.3018
 4556TIP3   OH235158   0.196   4.670  12.403 -0.0727  0.1629 -0.2608
 4556TIP3    H135159   0.140   4.741  12.433  0.0262 -0.0896  0.5632
 4556TIP3    H235160   0.275   4.678  12.456 -0.2962 -0.9047  0.2776
 4557TIP3   OH235161   0.288   2.439   5.565 -0.3227 -0.0133  0.4415
 4557TIP3    H135162   0.278   2.529   5.597  0.1406  0.3247 -0.3443
 4557TIP3    H235163   0.238   2.386   5.627  0.5145  0.6289  1.6909
 4558TIP3   OH235164   1.374   5.856  13.201  0.2094 -0.2748  0.0720
 4558TIP3    H135165   1.295   5.893  13.161 -0.3708  0.2456  1.6023
 4558TIP3    H235166   1.415   5.805  13.131  0.2419  2.0293 -1.7123
 4559TIP3   OH235167   2.744   6.397  14.261  0.7107 -0.1777  0.5331
 4559TIP3    H135168   2.696   6.478  14.276 -1.0455 -1.0925  0.1101
 4559TIP3    H235169   2.686   6.328  14.295  0.2601 -1.5994 -2.7563
 4560TIP3   OH235170   0.505   0.150  14.021  0.0974  0.1818 -0.3602
 4560TIP3    H135171   0.513   0.206  13.943 -0.0234 -0.6367 -0.9695
 4560TIP3    H235172   0.411   0.138  14.032  0.1493 -0.7345 -0.8464
 4561TIP3   OH235173   3.608   5.691   0.180 -0.0715 -0.3579  0.0753
 4561TIP3    H135174   3.551   5.624   0.219  0.0507 -1.6399 -1.7844
 4561TIP3    H235175   3.685   5.694   0.237 -0.1773 -1.6575  0.3133
 4562TIP3   OH235176   2.517   0.102  15.804 -0.4936  0.1001  0.2461
 4562TIP3    H135177   2.463   0.179  15.790  0.9454  1.1052 -0.0179
 4562TIP3    H235178   2.536   0.069  15.716 -1.7168 -1.0483  0.3733
 4563TIP3   OH235179   6.341   3.380   2.247  0.1908 -0.4217 -0.0593
 4563TIP3    H135180   6.348   3.363   2.153  2.3029 -0.1025  0.0100
 4563TIP3    H235181   6.431   3.377   2.279 -0.3769  0.5999  1.7607
 4564TIP3   OH235182   2.598   3.758   1.289  0.2727  0.1599  0.1473
 4564TIP3    H135183   2.528   3.712   1.242  0.1179  0.3307  0.2138
 4564TIP3    H235184   2.657   3.789   1.220  0.9927 -1.1340  0.1482
 4565TIP3   OH235185   2.776   3.553  16.578 -0.1325  0.2266 -0.5823
 4565TIP3    H135186   2.728   3.477  16.544  0.3778 -0.5950  0.4621
 4565TIP3    H235187   2.795   3.530  16.669  1.5241  0.8833 -0.7365
 4566TIP3   OH235188   5.208   2.715  11.920  0.0664  0.4321  0.3852
 4566TIP3    H135189   5.158   2.778  11.970 -1.4245 -1.7650  1.8131
 4566TIP3    H235190   5.260   2.668  11.985  0.0342 -0.7920 -0.4459
 4567TIP3   OH235191   5.131   4.163  11.603 -0.4104  0.0977  0.3592
 4567TIP3    H135192   5.108   4.075  11.573 -1.7184  0.6336 -0.2912
 4567TIP3    H235193   5.208   4.186  11.552 -0.5616 -0.3468 -0.0815
 4568TIP3   OH235194   0.349   2.399  13.400  0.0518  0.0459 -0.2758
 4568TIP3    H135195   0.290   2.327  13.422 -1.3850  1.4858  0.7982
 4568TIP3    H235196   0.312   2.438  13.321 -0.7659  1.2324  0.6497
 4569TIP3   OH235197   4.334   6.174   0.869  0.0703 -0.4332 -0.4212
 4569TIP3    H135198   4.394   6.191   0.942  0.6986 -0.7689 -0.8596
 4569TIP3    H235199   4.330   6.258   0.822 -1.5406  0.2634  0.8496
 4570TIP3   OH235200   5.811   1.830   4.983  0.1939  0.2433 -0.3571
 4570TIP3    H135201   5.734   1.828   4.926  1.3294  1.6669 -2.0469
 4570TIP3    H235202   5.776   1.851   5.070 -1.4135 -0.1717 -0.8640
 4571TIP3   OH235203   0.702   0.159  17.150  0.1491 -0.7814  0.2436
 4571TIP3    H135204   0.783   0.209  17.149 -0.1624 -0.2722 -0.1674
 4571TIP3    H235205   0.640   0.216  17.196 -0.3449 -0.5562 -0.6738
 4572TIP3   OH235206   3.682   4.212   5.325  0.0912  0.0507 -0.7266
 4572TIP3    H135207   3.730   4.130   5.312  0.6857  0.4494 -1.0618
 4572TIP3    H235208   3.628   4.221   5.246  0.0511 -0.0021 -0.7049
 4573TIP3   OH235209   4.365   4.533   5.785 -0.1408  0.4256  0.3304
 4573TIP3    H135210   4.352   4.445   5.819  0.8660  0.7745  1.6859
 4573TIP3    H235211   4.436   4.525   5.722  0.8904  0.4644  1.4519
 4574TIP3   OH235212   6.261   0.585   3.011  0.0479  0.9596 -0.7494
 4574TIP3    H135213   6.268   0.632   2.929  2.0066  2.0776 -0.0134
 4574TIP3    H235214   6.349   0.589   3.049 -0.5759 -0.2889  0.9857
 4575TIP3   OH235215   4.223   6.572   0.553  0.3836  0.5457  0.2774
 4575TIP3    H135216   4.138   6.607   0.527  0.1029 -0.5109 -0.2956
 4575TIP3    H235217   4.247   6.512   0.482  0.9507 -0.2181  1.0972
 4576TIP3   OH235218   2.632   2.115   1.329 -0.0202 -0.2020  0.2777
 4576TIP3    H135219   2.628   2.108   1.233  2.8202 -0.5185  0.1219
 4576TIP3    H235220   2.627   2.208   1.347 -0.5526 -0.1395 -0.1649
 4577TIP3   OH235221   2.426   2.549   1.529  0.4604  0.8480 -0.3566
 4577TIP3    H135222   2.413   2.467   1.577  1.6176  0.5209 -0.5824
 4577TIP3    H235223   2.338   2.575   1.503  0.0262 -0.0660  0.1383
 4578TIP3   OH235224   2.692   3.754   2.977 -0.1157 -0.3894 -0.0769
 4578TIP3    H135225   2.752   3.773   2.905 -3.0278  2.1768 -2.1049
 4578TIP3    H235226   2.674   3.661   2.970  0.9064 -0.5098 -1.6842
 4579TIP3   OH235227   5.895   0.390   3.243  0.3033  0.1260 -0.5053
 4579TIP3    H135228   5.859   0.444   3.172 -1.0166 -0.7551 -0.5442
 4579TIP3    H235229   5.821   0.335   3.271  1.2143 -0.6134  0.5228
 4580TIP3   OH235230   5.019   1.592  13.316  0.0085  0.4984  0.0758
 4580TIP3    H135231   5.048   1.504  13.293 -2.0789 -0.6030  1.3003
 4580TIP3    H235232   4.929   1.597  13.283 -0.5715  1.4509  1.6645
 4581TIP3   OH235233   2.288   2.129  15.470  0.9521  0.3542  0.0132
 4581TIP3    H135234   2.362   2.072  15.451  2.1740  1.8168  0.2133
 4581TIP3    H235235   2.294   2.200  15.406  0.3258  1.0139  0.6527
 4582TIP3   OH235236   2.003   5.646   6.437  0.5853  0.4528  0.3386
 4582TIP3    H135237   2.032   5.559   6.408 -0.9790  0.2449 -0.7299
 4582TIP3    H235238   2.044   5.707   6.375  1.9858  0.5422  1.3139
 4583TIP3   OH235239   3.185   5.092  15.703 -0.9012 -0.1608  0.2044
 4583TIP3    H135240   3.146   5.091  15.790  2.5554 -0.9969  1.8914
 4583TIP3    H235241   3.179   5.001  15.673 -1.6368  0.0320 -0.2826
 4584TIP3   OH235242   5.177   0.443  14.653 -0.0539  0.1611 -0.0746
 4584TIP3    H135243   5.119   0.429  14.728  0.2749 -1.4535 -0.0810
 4584TIP3    H235244   5.145   0.524  14.613 -1.3057  0.1480  0.8147
 4585TIP3   OH235245   2.717   3.071  12.212  0.3232 -0.5086 -0.2357
 4585TIP3    H135246   2.652   3.060  12.143 -0.1085  0.9693 -0.0882
 4585TIP3    H235247   2.790   3.015  12.185 -0.5440 -1.3108 -0.9757
 4586TIP3   OH235248   4.067   3.816  16.065 -0.2370 -0.3894 -0.0257
 4586TIP3    H135249   4.102   3.905  16.065  2.6977 -1.4120 -1.1267
 4586TIP3    H235250   4.104   3.776  16.144 -1.1716 -0.7690  0.2285
 4587TIP3   OH235251   3.847   6.226  13.873  0.0226  0.2914  0.4254
 4587TIP3    H135252   3.886   6.297  13.821 -0.0584 -0.4937 -0.7520
 4587TIP3    H235253   3.783   6.186  13.814 -1.1249  0.2800  1.6486
 4588TIP3   OH235254   5.578   0.371   4.004  0.3349 -0.0768  0.1560
 4588TIP3    H135255   5.559   0.368   4.098 -1.4384 -0.9768 -0.1840
 4588TIP3    H235256   5.536   0.451   3.973  1.5362  0.6000  0.2249
 4589TIP3   OH235257   6.190   6.619  15.598 -0.3132  0.3529 -0.4734
 4589TIP3    H135258   6.147   6.704  15.590 -0.5956  0.2987  0.3865
 4589TIP3    H235259   6.192   6.602  15.692 -0.8921 -0.9134 -0.6688
 4590TIP3   OH235260   2.836   1.771  11.526 -0.1343 -1.0300  0.0798
 4590TIP3    H135261   2.897   1.781  11.453  1.6708 -0.7260  1.5468
 4590TIP3    H235262   2.754   1.744  11.486  0.4172  0.4067 -2.1809
 4591TIP3   OH235263   0.668   2.928   3.925  0.0659 -0.2937  0.2577
 4591TIP3    H135264   0.670   2.876   3.844 -2.2938  2.1287 -1.5184
 4591TIP3    H235265   0.711   3.010   3.902 -1.6476  0.8803  1.0598
 4592TIP3   OH235266   3.417   2.748  17.118 -0.6658  0.2678  0.1207
 4592TIP3    H135267   3.406   2.831  17.072  0.1778  0.6229  0.5344
 4592TIP3    H235268   3.443   2.686  17.051 -1.8671  0.1827 -0.2969
 4593TIP3   OH235269   2.911   6.506  12.896  0.4736 -0.5139  0.7365
 4593TIP3    H135270   2.927   6.428  12.842  2.8410 -0.7310  1.6107
 4593TIP3    H235271   2.908   6.578  12.833  2.1228 -0.8884  0.1473
 4594TIP3   OH235272   1.303   0.848  11.797  0.0013 -0.1223  0.2507
 4594TIP3    H135273   1.299   0.933  11.840 -0.9381 -0.1824  0.3058
 4594TIP3    H235274   1.392   0.818  11.812 -0.3158 -0.2036  2.3104
 4595TIP3   OH235275   3.331   3.006  13.830  0.5576 -0.1324  0.1568
 4595TIP3    H135276   3.260   2.967  13.779  0.2449 -0.6833  0.9854
 4595TIP3    H235277   3.375   3.066  13.769  0.1273 -0.6832 -0.7134
 4596TIP3   OH235278   3.191   6.283   2.706  0.0037  0.0572 -0.3385
 4596TIP3    H135279   3.252   6.352   2.735  0.3037  0.9253 -2.8351
 4596TIP3    H235280   3.246   6.205   2.698 -0.2017 -0.3783  1.8416
 4597TIP3   OH235281   0.374   0.512  11.728 -0.6710 -0.2740 -0.1609
 4597TIP3    H135282   0.302   0.462  11.765  0.1287 -1.3288  0.0366
 4597TIP3    H235283   0.358   0.602  11.756 -1.7254 -0.5527  0.1515
 4598TIP3   OH235284   5.163   0.862  13.403  0.2605  0.3036 -0.3972
 4598TIP3    H135285   5.220   0.786  13.398 -0.3696 -0.3237  1.1759
 4598TIP3    H235286   5.179   0.898  13.490 -2.4694 -0.5371  0.5634
 4599TIP3   OH235287   3.312   6.817   4.632 -0.3075  0.3014  0.2086
 4599TIP3    H135288   3.357   6.750   4.580  0.2207  1.5931 -1.0619
 4599TIP3    H235289   3.235   6.840   4.579  0.3966  1.8518 -0.1966
 4600TIP3   OH235290   2.285   3.779   6.048 -0.0792  0.0830 -0.5605
 4600TIP3    H135291   2.287   3.874   6.046  1.1157  0.0693 -1.7165
 4600TIP3    H235292   2.301   3.756   6.140  0.5539  0.9971 -0.4276
 4601TIP3   OH235293   0.358   5.451   5.434  0.0150 -0.6125  0.1762
 4601TIP3    H135294   0.349   5.356   5.424  0.3127 -0.7738  1.2155
 4601TIP3    H235295   0.453   5.464   5.442 -0.1200 -0.5273  2.2978
 4602TIP3   OH235296   0.155   3.607  13.989 -0.9147 -0.1101  0.8869
 4602TIP3    H135297   0.241   3.589  14.028 -1.0315  0.6772  1.5343
 4602TIP3    H235298   0.158   3.699  13.964 -2.4560  0.7229  3.3678
 4603TIP3   OH235299   1.671   1.416   5.549  0.0322 -0.2384  0.1909
 4603TIP3    H135300   1.751   1.400   5.498 -0.2547 -0.0797 -0.3128
 4603TIP3    H235301   1.700   1.412   5.640  0.9366  1.4217  0.0194
 4604TIP3   OH235302   4.300   5.601  12.514  0.7253 -0.5350  0.0766
 4604TIP3    H135303   4.263   5.689  12.505  2.5538  0.1209 -2.0659
 4604TIP3    H235304   4.374   5.600  12.453  1.7896 -3.0378  1.2664
 4605TIP3   OH235305   4.189   6.537  13.315  0.1580  0.2653  0.6242
 4605TIP3    H135306   4.277   6.528  13.280 -0.9124 -2.1203 -1.8618
 4605TIP3    H235307   4.179   6.461  13.373 -0.6715 -0.3114 -0.2412
 4606TIP3   OH235308   1.672   2.416  13.973 -0.3019  0.2216  0.4180
 4606TIP3    H135309   1.697   2.467  14.051 -0.9404  0.6498  0.3511
 4606TIP3    H235310   1.577   2.414  13.976 -0.2750 -1.4569  0.7173
 4607TIP3   OH235311   0.651   5.586   2.103  0.1742 -0.0534 -0.1943
 4607TIP3    H135312   0.630   5.621   2.189 -0.4294 -0.6836 -0.0729
 4607TIP3    H235313   0.744   5.565   2.108 -0.1598 -1.4728  0.8290
 4608TIP3   OH235314   0.742   1.866   1.507 -0.7704 -0.1302 -0.7412
 4608TIP3    H135315   0.681   1.916   1.451  0.4674  0.3187 -1.7284
 4608TIP3    H235316   0.769   1.929   1.574 -0.4852  0.0383 -1.0100
 4609TIP3   OH235317   5.052   2.510   3.765  0.7900  0.1734  0.3158
 4609TIP3    H135318   5.060   2.530   3.671  0.4896 -0.4698  0.1463
 4609TIP3    H235319   4.994   2.434   3.768  1.0580 -0.0077  1.0087
 4610TIP3   OH235320   2.824   1.474   1.270  0.2596  0.6070 -0.0992
 4610TIP3    H135321   2.906   1.432   1.242 -0.1075  0.2160 -0.6070
 4610TIP3    H235322   2.830   1.563   1.237  0.7229  0.7529  0.3526
 4611TIP3   OH235323   6.771   5.620  12.643 -0.1934 -0.3943 -0.1197
 4611TIP3    H135324   6.740   5.603  12.554 -1.4535 -2.9988  0.7069
 4611TIP3    H235325   6.816   5.704  12.637 -2.3056  0.7147 -2.6999
 4612TIP3   OH235326   1.815   0.803   0.390  1.0025 -0.6681  0.1027
 4612TIP3    H135327   1.909   0.816   0.402  0.5808  1.2252  2.2473
 4612TIP3    H235328   1.777   0.889   0.406 -1.0536 -1.1065 -1.9257
 4613TIP3   OH235329   2.158   0.725   6.140 -0.2643  0.3539 -0.0763
 4613TIP3    H135330   2.173   0.636   6.172  2.3735  1.2647  1.5913
 4613TIP3    H235331   2.113   0.769   6.212 -0.8696  0.5854 -0.5909
 4614TIP3   OH235332   0.699   1.603  12.861  0.1873 -0.6683  0.2445
 4614TIP3    H135333   0.767   1.575  12.800 -1.3904 -3.7052 -0.3514
 4614TIP3    H235334   0.720   1.558  12.943  0.2393  0.3956  0.8361
 4615TIP3   OH235335   6.394   0.468   2.236  0.3072  0.3383 -0.6472
 4615TIP3    H135336   6.399   0.519   2.155  1.3837 -0.2775 -0.9860
 4615TIP3    H235337   6.431   0.382   2.213  2.3772  0.7341  0.9366
 4616TIP3   OH235338   2.962   2.259  13.886 -0.2176 -0.2446 -0.3335
 4616TIP3    H135339   2.972   2.180  13.939  0.2034 -0.3732 -0.5987
 4616TIP3    H235340   2.981   2.331  13.947  0.8751 -0.4171 -0.4435
 4617TIP3   OH235341   3.827   5.189   4.914  0.2112  0.5987 -0.6919
 4617TIP3    H135342   3.834   5.249   4.988  0.1897  0.5019 -0.6124
 4617TIP3    H235343   3.825   5.102   4.953 -1.3524  0.5964 -0.6943
 4618TIP3   OH235344   4.557   6.645  15.470 -0.2074  0.2658  0.2570
 4618TIP3    H135345   4.582   6.735  15.450 -0.5433  0.3337  0.1206
 4618TIP3    H235346   4.540   6.645  15.564  0.7214  0.1103  0.4343
 4619TIP3   OH235347   4.314   0.019   0.200 -0.6748  0.7312 -0.6416
 4619TIP3    H135348   4.303   0.099   0.148 -1.4837  0.0623 -1.5232
 4619TIP3    H235349   4.256  -0.045   0.159 -0.5848 -0.1106  0.4954
 4620TIP3   OH235350   1.541   1.699   4.751  0.4959 -0.0422 -0.1722
 4620TIP3    H135351   1.590   1.762   4.699 -0.3298  0.2711 -0.5857
 4620TIP3    H235352   1.451   1.705   4.719  0.1556 -0.5216  0.6436
 4621TIP3   OH235353   3.765   0.685   3.917 -0.2244  0.2074  0.3459
 4621TIP3    H135354   3.731   0.631   3.989 -1.8591 -0.0206 -0.5492
 4621TIP3    H235355   3.744   0.636   3.838 -0.6566  1.5623 -0.4193
 4622TIP3   OH235356   5.868   2.230   3.200  0.1487  0.4277  0.2045
 4622TIP3    H135357   5.930   2.185   3.257  0.6650 -1.6616 -1.8634
 4622TIP3    H235358   5.793   2.172   3.196  0.3935  0.1935 -1.7051
 4623TIP3   OH235359   5.803   2.507  17.084 -0.3608  0.0835  0.0582
 4623TIP3    H135360   5.891   2.482  17.112 -0.2803 -0.0661 -0.3223
 4623TIP3    H235361   5.800   2.485  16.991 -1.2180 -1.0710  0.3312
 4624TIP3   OH235362   0.056   5.158   3.721 -0.3946 -0.2393 -1.0297
 4624TIP3    H135363  -0.035   5.183   3.705 -1.2911 -1.5801  1.4282
 4624TIP3    H235364   0.066   5.165   3.816  2.5283  1.2172 -1.3289
 4625TIP3   OH235365   1.806   2.596   4.088  0.5832 -0.1598 -0.1172
 4625TIP3    H135366   1.854   2.595   4.006  0.6194 -0.9128 -0.0944
 4625TIP3    H235367   1.826   2.512   4.129 -2.2235 -1.3912 -0.9937
 4626TIP3   OH235368   1.516   1.835  11.050 -0.7402 -0.0136 -0.0662
 4626TIP3    H135369   1.513   1.741  11.069 -1.3364  0.4093  2.3309
 4626TIP3    H235370   1.425   1.858  11.029 -0.7866  0.1659  0.3079
 4627TIP3   OH235371   5.142   6.034   5.372 -0.2465  0.0602  1.1909
 4627TIP3    H135372   5.140   5.998   5.283 -0.1814  1.0911  0.7585
 4627TIP3    H235373   5.080   6.106   5.370 -0.3624 -0.0112  2.0373
 4628TIP3   OH235374   2.811   2.436   2.440 -0.1634  0.1934  0.6150
 4628TIP3    H135375   2.827   2.363   2.381  0.2055  0.2561  0.6341
 4628TIP3    H235376   2.877   2.501   2.416  0.5100 -0.0941  1.6119
 4629TIP3   OH235377   2.856   1.248   0.866 -0.0497 -0.0856 -0.1074
 4629TIP3    H135378   2.906   1.325   0.891  0.7849 -0.0617 -1.7914
 4629TIP3    H235379   2.892   1.177   0.920  0.3697  0.3464  0.1833
 4630TIP3   OH235380   3.560   5.062  16.259  0.3738 -0.0422 -0.4001
 4630TIP3    H135381   3.551   5.115  16.338  0.4307 -0.8706  0.1707
 4630TIP3    H235382   3.560   5.126  16.188 -3.2727  0.5871 -0.0504
 4631TIP3   OH235383   1.460   5.071  14.777 -0.2733  0.2557  0.3366
 4631TIP3    H135384   1.429   5.154  14.740  2.2918  0.9484 -0.4431
 4631TIP3    H235385   1.506   5.028  14.706  2.2755  0.2644  1.8683
 4632TIP3   OH235386   1.135   6.557   0.083 -0.2317  0.3796  0.7855
 4632TIP3    H135387   1.100   6.614   0.015 -0.4072 -0.8979 -0.2369
 4632TIP3    H235388   1.193   6.613   0.134 -0.2446  1.4184 -0.2995
 4633TIP3   OH235389   6.274   3.005   1.314  0.3558  0.3911  0.2692
 4633TIP3    H135390   6.216   2.966   1.248  0.2234  1.5830 -0.3549
 4633TIP3    H235391   6.258   2.955   1.393  0.2862 -0.8817 -0.5302
 4634TIP3   OH235392   0.631   1.672   2.583  0.0203  0.2387 -0.2345
 4634TIP3    H135393   0.591   1.646   2.666  1.5313  1.1438  0.8186
 4634TIP3    H235394   0.644   1.766   2.591  2.9590 -0.0918 -0.2165
 4635TIP3   OH235395   0.617   3.684  16.838 -0.1010  0.1271  0.0468
 4635TIP3    H135396   0.562   3.742  16.787 -1.4054 -0.9584  0.1591
 4635TIP3    H235397   0.706   3.714  16.821 -0.6329  1.0590 -1.2376
 4636TIP3   OH235398   5.673   4.834  16.551 -0.3041 -0.3283 -0.6288
 4636TIP3    H135399   5.593   4.786  16.569 -0.6183 -0.0412 -1.2172
 4636TIP3    H235400   5.735   4.803  16.616 -0.2969 -2.0143 -1.3744
 4637TIP3   OH235401   1.371   6.187  15.704 -0.3302  0.1973  0.2233
 4637TIP3    H135402   1.322   6.117  15.748 -0.8093  0.4115  0.0433
 4637TIP3    H235403   1.315   6.212  15.631  1.1505 -1.2270 -1.4692
 4638TIP3   OH235404   3.327   0.590   1.347  0.3074  0.8705 -0.3492
 4638TIP3    H135405   3.273   0.537   1.288  0.1120  0.0820  0.5164
 4638TIP3    H235406   3.385   0.527   1.389  1.4382  1.6260 -0.7456
 4639TIP3   OH235407   4.943   3.400  14.684 -0.1526  0.0225  0.1235
 4639TIP3    H135408   4.923   3.378  14.775 -2.7118 -0.4164 -0.4646
 4639TIP3    H235409   4.989   3.323  14.651 -2.9731 -1.7491 -0.0318
 4640TIP3   OH235410   3.079   6.274   2.114 -0.1544 -0.8148  0.2771
 4640TIP3    H135411   3.137   6.198   2.120  0.8552 -0.1461 -0.6240
 4640TIP3    H235412   3.033   6.263   2.031 -0.5009 -0.7723  0.4598
 4641TIP3   OH235413   5.171   1.849  16.803  0.4094 -0.3110 -0.1151
 4641TIP3    H135414   5.140   1.930  16.762 -0.4545 -0.3138  0.4908
 4641TIP3    H235415   5.094   1.816  16.851  0.7410 -1.5083 -0.3836
 4642TIP3   OH235416   3.223   3.675   5.903 -0.0208  0.3161  0.4763
 4642TIP3    H135417   3.285   3.725   5.956  1.0092  0.4143 -0.7740
 4642TIP3    H235418   3.139   3.683   5.949  0.7124  0.8766  1.7551
 4643TIP3   OH235419   2.265   0.287  16.242  0.6312  0.4557  0.0061
 4643TIP3    H135420   2.212   0.209  16.224  3.5405 -1.4361 -1.1488
 4643TIP3    H235421   2.263   0.336  16.160 -1.1666  1.6831  0.7193
 4644TIP3   OH235422   3.095   4.398  14.363 -0.1079 -0.2452  0.0162
 4644TIP3    H135423   3.114   4.436  14.277 -1.5259 -1.3963 -0.8252
 4644TIP3    H235424   3.179   4.362  14.392  0.3529  0.0448 -0.9256
 4645TIP3   OH235425   0.703   0.257  13.725  0.2289 -0.6047  0.7234
 4645TIP3    H135426   0.753   0.177  13.712 -0.6530 -0.7378 -3.0559
 4645TIP3    H235427   0.762   0.327  13.696  0.0011 -0.1877  1.2517
 4646TIP3   OH235428   2.366   3.913  15.139  0.2294  0.1428 -0.0235
 4646TIP3    H135429   2.419   3.907  15.060  0.3438 -1.5239  0.1366
 4646TIP3    H235430   2.335   4.004  15.141  1.8330  0.7414 -0.9076
 4647TIP3   OH235431   3.757   6.291   4.526 -0.4358  0.3319  0.0421
 4647TIP3    H135432   3.835   6.342   4.548 -0.4962  1.4946 -2.1278
 4647TIP3    H235433   3.736   6.244   4.606  2.2734  0.2498  0.8150
 4648TIP3   OH235434   0.747   6.545  16.819 -0.3751  0.1985  0.2110
 4648TIP3    H135435   0.730   6.634  16.849 -0.0542 -0.1071  1.3545
 4648TIP3    H235436   0.789   6.502  16.894 -0.0591 -0.7672 -0.4963
 4649TIP3   OH235437   3.343   3.487  10.432  0.2139 -0.0597  0.3788
 4649TIP3    H135438   3.274   3.456  10.372  2.0293 -2.3416 -0.7137
 4649TIP3    H235439   3.392   3.552  10.381 -0.3418  0.6230  0.7014
 4650TIP3   OH235440   3.039   3.563  10.434  0.7900 -0.1298  0.0391
 4650TIP3    H135441   2.978   3.491  10.414 -0.8649  1.5431 -1.2590
 4650TIP3    H235442   3.034   3.572  10.529 -1.5230  0.3066 -0.0532
 4651TIP3   OH235443   6.314   5.286   5.456 -0.7186  0.0554  0.3119
 4651TIP3    H135444   6.247   5.253   5.396 -0.4136 -0.6358  0.3505
 4651TIP3    H235445   6.314   5.381   5.441  0.5349 -0.2448 -2.0199
 4652TIP3   OH235446   2.721   4.913   5.036 -0.1554  0.0248  0.3275
 4652TIP3    H135447   2.704   4.929   4.943 -0.7073  0.8126  0.5466
 4652TIP3    H235448   2.660   4.972   5.081 -0.5398 -1.0053  1.1936
 4653TIP3   OH235449   2.568   3.698  14.380 -0.2228 -0.2581  0.3204
 4653TIP3    H135450   2.539   3.764  14.318 -0.4003 -0.4169  0.2353
 4653TIP3    H235451   2.513   3.622  14.363 -1.9585  0.4677  2.2716
 4654TIP3   OH235452   0.175   4.365   2.633 -0.0709  0.3998  0.0404
 4654TIP3    H135453   0.116   4.332   2.565 -0.1551  0.1913  0.2104
 4654TIP3    H235454   0.184   4.291   2.694  1.6941 -0.1570 -0.8252
 4655TIP3   OH235455   1.745   5.751   0.632 -0.3089 -0.6021 -0.1453
 4655TIP3    H135456   1.755   5.822   0.695 -0.1116 -1.5357  0.9051
 4655TIP3    H235457   1.654   5.723   0.641 -0.5580 -0.0972 -0.9923
 4656TIP3   OH235458   3.279   3.464   2.055  0.3440 -0.2454 -0.6649
 4656TIP3    H135459   3.312   3.450   2.144 -2.4782  1.0688  0.7007
 4656TIP3    H235460   3.346   3.518   2.013  0.8466  0.7204  1.3000
 4657TIP3   OH235461   0.270   1.297  16.126 -0.0574 -0.1530  0.3086
 4657TIP3    H135462   0.248   1.383  16.160 -1.3501 -0.4620  0.3039
 4657TIP3    H235463   0.295   1.312  16.035  0.0351  0.2450  0.3971
 4658TIP3   OH235464   4.476   3.035  13.485  0.4759 -0.4001  0.0816
 4658TIP3    H135465   4.481   3.112  13.541 -0.2897 -0.8885  0.8319
 4658TIP3    H235466   4.391   3.043  13.441  0.2987 -0.9267  0.3289
 4659TIP3   OH235467   4.038   2.833   2.106  0.3239  0.2745  0.4054
 4659TIP3    H135468   3.962   2.841   2.048  0.7283 -1.2082 -0.3834
 4659TIP3    H235469   4.113   2.840   2.047  0.7381 -2.0295  0.5699
 4660TIP3   OH235470   1.358   0.482  11.995 -0.0189 -0.2262  0.2577
 4660TIP3    H135471   1.440   0.510  11.953  0.1243 -0.5745  0.3019
 4660TIP3    H235472   1.289   0.520  11.941  0.1703  0.0651  0.2143
 4661TIP3   OH235473   6.279   3.821  14.815  0.1493 -1.0504 -0.3220
 4661TIP3    H135474   6.301   3.878  14.889  0.9234 -0.5988 -0.8869
 4661TIP3    H235475   6.264   3.735  14.855 -0.3247 -0.6171  0.4545
 4662TIP3   OH235476   3.226   0.456   5.532  0.4884 -0.4698 -0.3672
 4662TIP3    H135477   3.305   0.487   5.576  0.8284 -0.0336 -1.2500
 4662TIP3    H235478   3.249   0.456   5.439 -1.3395  2.2469 -0.9570
 4663TIP3   OH235479   1.844   3.948   2.754 -0.5316  0.3684 -0.0406
 4663TIP3    H135480   1.914   3.891   2.724 -1.5353 -1.2165  0.4751
 4663TIP3    H235481   1.808   3.986   2.674  1.1304  1.5441 -0.2840
 4664TIP3   OH235482   4.046   0.319   1.102 -0.1560 -0.2746 -0.1539
 4664TIP3    H135483   4.057   0.225   1.112 -4.0091 -0.8569  0.1198
 4664TIP3    H235484   4.005   0.330   1.016  1.0966  1.2957 -0.6082
 4665TIP3   OH235485   0.837   0.196   2.272 -0.1991 -0.0683  0.1239
 4665TIP3    H135486   0.747   0.179   2.245 -0.3062 -1.7442  1.3418
 4665TIP3    H235487   0.881   0.227   2.193 -1.7687  0.4998 -0.5467
 4666TIP3   OH235488   2.473   5.985  15.212 -0.0886  0.4366  0.1804
 4666TIP3    H135489   2.548   6.030  15.252 -0.3002  0.3699  0.6545
 4666TIP3    H235490   2.494   5.983  15.118  0.4945  0.4319  0.3087
 4667TIP3   OH235491   4.076   4.976   2.505  0.3877  0.8215  0.1232
 4667TIP3    H135492   4.149   5.017   2.551 -0.1902  0.8079  1.0867
 4667TIP3    H235493   4.000   5.029   2.529 -0.1112  0.1283  0.1070
 4668TIP3   OH235494   5.922   1.188  15.338  0.0537  0.0295 -0.5157
 4668TIP3    H135495   5.988   1.120  15.325 -0.8085 -0.9212 -0.1033
 4668TIP3    H235496   5.946   1.230  15.420  1.3004  1.1039 -1.3756
 4669TIP3   OH235497   2.750   5.248  12.154  0.3414  0.3409  0.2172
 4669TIP3    H135498   2.681   5.213  12.097  0.2685  0.3985  0.2700
 4669TIP3    H235499   2.703   5.296  12.222  0.4599  1.2744 -0.3440
 4670TIP3   OH235500   4.475   1.911   5.043 -0.1222  0.0233  0.0158
 4670TIP3    H135501   4.419   1.920   4.966 -0.2155 -0.3749  0.0343
 4670TIP3    H235502   4.443   1.978   5.104 -1.6352 -1.2232  0.6476
 4671TIP3   OH235503   2.216   4.344   2.622  0.3918 -0.3487 -0.3980
 4671TIP3    H135504   2.277   4.273   2.602  0.4259  0.0696 -1.9145
 4671TIP3    H235505   2.273   4.420   2.635  0.4370 -0.7496  2.2925
 4672TIP3   OH235506   5.469   3.270   1.361  0.0166 -0.0163  0.0923
 4672TIP3    H135507   5.526   3.284   1.286 -0.5588 -0.0691 -0.3645
 4672TIP3    H235508   5.428   3.356   1.376  1.1407  0.3491  1.2062
 4673TIP3   OH235509   0.975   5.540   0.645 -0.2133  0.3110 -0.0574
 4673TIP3    H135510   1.058   5.581   0.619 -0.0426 -0.1853 -0.2998
 4673TIP3    H235511   0.990   5.513   0.736 -0.4558  1.1152  0.2292
 4674TIP3   OH235512   0.461   3.085   2.060  0.2249  0.2735  0.2032
 4674TIP3    H135513   0.509   3.080   2.143 -0.3625  0.7912  0.5890
 4674TIP3    H235514   0.372   3.111   2.086  0.6791  3.1403 -0.7806
 4675TIP3   OH235515   5.208   6.369   4.190 -0.1920  0.3761 -0.4084
 4675TIP3    H135516   5.293   6.397   4.155 -0.7807  1.1840 -1.2593
 4675TIP3    H235517   5.191   6.429   4.262 -0.2352  0.5012 -0.5214
 4676TIP3   OH235518   5.651   3.309  13.828 -0.2562  0.0424 -0.1972
 4676TIP3    H135519   5.732   3.274  13.866 -0.2449  0.5004  0.2159
 4676TIP3    H235520   5.680   3.384  13.776 -0.5304  0.9899  0.9744
 4677TIP3   OH235521   0.833   3.464   0.941  0.0414  0.1958  0.3296
 4677TIP3    H135522   0.817   3.372   0.921  0.1351  0.2991 -0.2481
 4677TIP3    H235523   0.914   3.485   0.894  0.6149  0.2886  1.3390
 4678TIP3   OH235524   3.674   1.164  16.465 -0.2709 -0.4135  0.2720
 4678TIP3    H135525   3.629   1.131  16.387  0.5644 -0.8495 -0.0367
 4678TIP3    H235526   3.630   1.246  16.484 -0.1778 -0.0487 -0.9554
 4679TIP3   OH235527   5.098   5.333   2.085  0.5129 -0.5606 -0.1602
 4679TIP3    H135528   5.113   5.242   2.109  1.2781 -0.4820 -0.3130
 4679TIP3    H235529   5.055   5.328   1.999 -0.5534 -0.7932  0.3700
 4680TIP3   OH235530   3.207   6.363  16.302  0.5501  0.4621  0.0836
 4680TIP3    H135531   3.112   6.353  16.310  0.5954  0.4315  0.6637
 4680TIP3    H235532   3.228   6.442  16.353  0.7492  0.9119 -0.6731
 4681TIP3   OH235533   6.024   6.424   6.299  0.3567 -0.0250  0.0461
 4681TIP3    H135534   5.956   6.405   6.364 -1.1903 -0.8947 -1.7377
 4681TIP3    H235535   6.011   6.516   6.278 -1.6610 -0.6166 -1.6814
 4682TIP3   OH235536   2.124   3.032  13.827  0.3326  0.2668 -0.5940
 4682TIP3    H135537   2.200   2.994  13.870 -0.7189 -0.2039  0.9326
 4682TIP3    H235538   2.086   2.960  13.777 -0.0134  0.0680 -0.0511
 4683TIP3   OH235539   0.333   0.738  10.889  0.2566  0.3889 -0.1828
 4683TIP3    H135540   0.400   0.805  10.875  0.2066  0.2421 -1.1961
 4683TIP3    H235541   0.294   0.725  10.803 -1.0852  0.4613  0.3855
 4684TIP3   OH235542   0.426   0.195  16.276  0.3259  0.2670  0.5965
 4684TIP3    H135543   0.445   0.106  16.307  0.5771  0.3586  0.7109
 4684TIP3    H235544   0.484   0.206  16.201 -0.4898 -0.0606 -0.0930
 4685TIP3   OH235545   3.374   0.855   4.033  0.0145  0.0611 -0.1738
 4685TIP3    H135546   3.292   0.867   4.080 -0.5585  0.8474 -1.3054
 4685TIP3    H235547   3.432   0.811   4.095 -1.7696 -2.0198  0.1051
 4686TIP3   OH235548   3.818   2.804   4.415 -0.1587 -0.2539  0.1343
 4686TIP3    H135549   3.726   2.784   4.428  0.1324 -2.4280 -0.6762
 4686TIP3    H235550   3.848   2.739   4.350  2.0121  0.1259  0.6603
 4687TIP3   OH235551   0.775   6.801   4.122 -0.4826 -0.7801  0.2070
 4687TIP3    H135552   0.783   6.714   4.162  0.2003 -0.4116  0.8995
 4687TIP3    H235553   0.832   6.857   4.174 -2.4031  0.5305  1.0143
 4688TIP3   OH235554   0.412   0.283   2.942 -0.3195 -0.2034 -0.1932
 4688TIP3    H135555   0.421   0.189   2.926 -2.4476 -0.4798 -0.0798
 4688TIP3    H235556   0.367   0.288   3.027  0.2538  0.9481  0.0619
 4689TIP3   OH235557   1.632   5.325  14.813  0.3124  0.6972 -0.1289
 4689TIP3    H135558   1.573   5.299  14.884  0.1666 -0.1670 -0.5462
 4689TIP3    H235559   1.591   5.401  14.773  0.0598  0.7835  0.2949
 4690TIP3   OH235560   3.968   2.020   0.753 -0.2917  0.2110 -0.1258
 4690TIP3    H135561   3.910   1.945   0.764  0.3772 -0.0971  1.6337
 4690TIP3    H235562   3.960   2.069   0.835  2.3118 -0.1485  0.4325
 4691TIP3   OH235563   0.294   3.527   4.505  0.0941 -0.2473  0.4161
 4691TIP3    H135564   0.328   3.468   4.438  0.4179 -1.9221  1.9525
 4691TIP3    H235565   0.364   3.531   4.571 -0.9129 -0.1794  1.5242
 4692TIP3   OH235566   0.732   0.598  11.832  0.7699  0.1801  0.2615
 4692TIP3    H135567   0.687   0.658  11.891  1.7932  0.5575  0.6631
 4692TIP3    H235568   0.758   0.525  11.887  0.4725 -0.1417 -0.0167
 4693TIP3   OH235569   3.983   6.679  12.785 -0.4526 -0.1623  0.0377
 4693TIP3    H135570   4.001   6.768  12.755 -1.1726  0.6282  1.7964
 4693TIP3    H235571   3.937   6.690  12.868  1.0674 -2.1884  1.2510
 4694TIP3   OH235572   3.028   2.115  10.474  0.7457  0.0822 -0.4885
 4694TIP3    H135573   3.015   2.206  10.449  2.3311  0.8489  1.3039
 4694TIP3    H235574   2.969   2.066  10.416 -0.3799  2.2408 -1.2733
 4695TIP3   OH235575   0.755   2.298  12.247  0.5210 -0.4038  0.7468
 4695TIP3    H135576   0.763   2.257  12.333  0.2310 -0.0319  0.9550
 4695TIP3    H235577   0.661   2.313  12.237  0.6525  0.5847  0.8587
 4696TIP3   OH235578   2.538   0.559  13.898  0.2027  0.3776 -0.4165
 4696TIP3    H135579   2.534   0.513  13.814  1.4741  1.1179 -0.9139
 4696TIP3    H235580   2.620   0.608  13.894  0.0467  0.7936  1.0774
 4697TIP3   OH235581   5.263   5.545  14.975  0.4047  0.3824  0.4499
 4697TIP3    H135582   5.224   5.471  15.023 -1.6471  0.0098 -1.6469
 4697TIP3    H235583   5.238   5.622  15.026 -3.2169  0.1593 -0.7121
 4698TIP3   OH235584   2.123   5.052  15.529  0.0992 -0.5325  0.5505
 4698TIP3    H135585   2.106   5.146  15.527 -1.8766 -0.7777  2.5321
 4698TIP3    H235586   2.185   5.039  15.601  0.0211 -0.8115  0.5702
 4699TIP3   OH235587   1.012   1.216  14.033 -0.2554 -0.3477 -0.3880
 4699TIP3    H135588   1.054   1.130  14.033 -1.0561 -0.7584 -1.4151
 4699TIP3    H235589   1.084   1.278  14.042  0.2589 -1.1373  1.2738
 4700TIP3   OH235590   3.564   2.931   2.036  0.4437  0.2347  0.2393
 4700TIP3    H135591   3.583   2.839   2.054  0.0460  0.0820 -0.1103
 4700TIP3    H235592   3.469   2.938   2.038  0.3399  0.1763 -1.7953
 4701TIP3   OH235593   3.415   0.910   3.550 -0.2269 -0.4544  0.5697
 4701TIP3    H135594   3.495   0.951   3.518 -0.5167 -0.3542 -0.0513
 4701TIP3    H235595   3.381   0.972   3.615 -0.8661  0.5140 -0.6380
 4702TIP3   OH235596   4.963   4.851   4.837 -0.3112 -0.3803  0.3505
 4702TIP3    H135597   5.022   4.781   4.863  2.0183  1.0531 -0.7095
 4702TIP3    H235598   4.940   4.831   4.746  0.8749  0.4886 -0.1680
 4703TIP3   OH235599   4.075   3.346  12.989 -0.0287  0.3186  0.1154
 4703TIP3    H135600   3.983   3.362  13.012  0.2318 -0.5920  1.9785
 4703TIP3    H235601   4.071   3.292  12.910 -1.1102  0.0532  0.3335
 4704TIP3   OH235602   3.985   0.101  15.538 -0.3315  0.3689  0.1765
 4704TIP3    H135603   4.048   0.092  15.466  0.0503 -1.6984  0.7021
 4704TIP3    H235604   3.911   0.046  15.511 -0.4647  0.1083  1.0652
 4705TIP3   OH235605   1.505   2.255  11.660 -0.0330  0.4766 -0.0744
 4705TIP3    H135606   1.597   2.244  11.637 -0.5893 -0.7878 -2.0116
 4705TIP3    H235607   1.494   2.208  11.742  1.0951  0.9415  0.3624
 4706TIP3   OH235608   4.516   3.231  12.039  0.3725  0.2553 -0.4309
 4706TIP3    H135609   4.581   3.266  11.977 -1.1458  0.9963 -1.6703
 4706TIP3    H235610   4.470   3.163  11.989 -1.2829  1.2806 -0.3620
 4707TIP3   OH235611   1.147   1.363   5.094 -0.5472 -0.2113 -0.0560
 4707TIP3    H135612   1.109   1.449   5.078 -2.2083 -1.0788 -1.0155
 4707TIP3    H235613   1.073   1.302   5.092  0.5056 -1.6246  1.1386
 4708TIP3   OH235614   6.752   1.167  11.539 -0.1379 -0.6513  0.3344
 4708TIP3    H135615   6.763   1.249  11.490 -2.0515 -0.8079 -0.4700
 4708TIP3    H235616   6.809   1.105  11.495  0.7715  0.0660  0.4814
 4709TIP3   OH235617   1.264   3.963  14.644  0.2057  0.4294  0.3354
 4709TIP3    H135618   1.244   4.029  14.577  0.5209  0.3931  0.2039
 4709TIP3    H235619   1.311   3.895  14.597 -1.6465 -0.7494  0.0927
 4710TIP3   OH235620   2.247   0.623  11.109  0.3177 -0.0663  0.4254
 4710TIP3    H135621   2.257   0.539  11.064  0.5438 -0.2679  0.8557
 4710TIP3    H235622   2.192   0.604  11.184  1.1429 -0.0137  1.0506
 4711TIP3   OH235623   3.174   5.689  12.120 -0.4440  0.0441 -0.4581
 4711TIP3    H135624   3.168   5.635  12.041 -0.5611 -0.2170 -0.2715
 4711TIP3    H235625   3.260   5.732  12.113  0.1434 -1.0282 -0.0631
 4712TIP3   OH235626   2.542   2.282  13.885 -0.2721 -0.3382 -0.2533
 4712TIP3    H135627   2.541   2.373  13.854 -3.5017  0.0011  0.5443
 4712TIP3    H235628   2.556   2.230  13.806 -0.2132  0.7663 -0.9982
 4713TIP3   OH235629   6.125   6.374   4.246  0.2128 -0.1953  0.2326
 4713TIP3    H135630   6.218   6.394   4.256  0.2595  0.5167 -1.3345
 4713TIP3    H235631   6.100   6.418   4.165 -1.3029 -1.0563  0.2071
 4714TIP3   OH235632   6.518   6.308   3.008  0.2005  0.2045  0.0878
 4714TIP3    H135633   6.536   6.311   2.914 -0.6112  0.8536 -0.0569
 4714TIP3    H235634   6.444   6.368   3.020 -0.8359 -1.1968  0.8907
 4715TIP3   OH235635   0.425   2.185   5.365 -0.2324 -0.3107  0.0198
 4715TIP3    H135636   0.514   2.218   5.377  0.2692 -2.1027  1.7432
 4715TIP3    H235637   0.376   2.259   5.329  1.6814  1.0422  0.0648
 4716TIP3   OH235638   2.945   5.177   2.608 -0.0306  0.1528 -0.3032
 4716TIP3    H135639   2.913   5.266   2.624  1.7102  0.6734  0.6285
 4716TIP3    H235640   2.939   5.165   2.514  0.1712  1.4577 -0.4972
 4717TIP3   OH235641   3.503   2.732   2.827  0.5655 -0.1544 -0.1360
 4717TIP3    H135642   3.429   2.709   2.772  0.7351 -1.1610  0.0408
 4717TIP3    H235643   3.482   2.695   2.913  1.6493 -1.1965 -0.3013
 4718TIP3   OH235644   0.935   4.418   6.463  0.0380 -0.5811  0.1042
 4718TIP3    H135645   0.927   4.476   6.388 -1.1373 -1.1499 -0.2348
 4718TIP3    H235646   0.946   4.477   6.538  2.1122 -0.0271 -0.5622
 4719TIP3   OH235647   3.125   4.005  14.472  0.2240 -0.2532  0.3404
 4719TIP3    H135648   3.083   4.080  14.514  0.2267 -0.1838  0.2196
 4719TIP3    H235649   3.141   3.943  14.543  1.6809  0.5164  0.7185
 4720TIP3   OH235650   5.362   2.119   3.698  0.0881  0.2583 -0.4571
 4720TIP3    H135651   5.333   2.207   3.671  1.6792  0.2724 -2.2832
 4720TIP3    H235652   5.454   2.131   3.722  0.4957 -1.0249 -1.3260
 4721TIP3   OH235653   4.784   4.581   5.103 -0.3797  0.3607  0.0253
 4721TIP3    H135654   4.730   4.502   5.107 -0.3199  0.3391  0.3898
 4721TIP3    H235655   4.870   4.549   5.073 -0.2377  0.2280  0.5726
 4722TIP3   OH235656   3.761   3.824  11.335 -0.0493  0.4670 -0.1527
 4722TIP3    H135657   3.778   3.858  11.247  2.3334 -2.8332 -1.1725
 4722TIP3    H235658   3.834   3.858  11.388  0.8249 -0.7495 -0.5254
 4723TIP3   OH235659   2.556   5.598  13.775  0.0350 -0.7715  0.0395
 4723TIP3    H135660   2.539   5.625  13.865 -1.4689  2.2547 -1.0256
 4723TIP3    H235661   2.638   5.640  13.752 -0.7620  0.4604 -0.6724
 4724TIP3   OH235662   1.273   4.463  12.780  1.0364  0.3850  0.8772
 4724TIP3    H135663   1.279   4.416  12.863  1.8130 -1.7940 -0.3168
 4724TIP3    H235664   1.297   4.398  12.714  0.2301  1.9678 -1.0930
 4725TIP3   OH235665   1.890   5.252  11.614 -0.3476  0.2482 -0.2939
 4725TIP3    H135666   1.978   5.282  11.638 -1.3583  4.4057 -1.0846
 4725TIP3    H235667   1.841   5.254  11.696 -0.8414  2.7940 -0.5865
 4726TIP3   OH235668   5.418   3.910  16.336 -0.0272  0.2183  0.2304
 4726TIP3    H135669   5.408   3.912  16.241  0.3713 -1.5162  0.1105
 4726TIP3    H235670   5.335   3.942  16.371  0.1306  1.6838 -0.6823
 4727TIP3   OH235671   3.667   6.770   2.270 -0.1517  0.5557 -0.4693
 4727TIP3    H135672   3.738   6.835   2.271  0.2552  0.1099  0.2092
 4727TIP3    H235673   3.709   6.689   2.243 -0.7511  0.6479 -1.7842
 4728TIP3   OH235674   1.668   0.190   1.870  0.0465 -0.6203 -0.1590
 4728TIP3    H135675   1.708   0.112   1.906  0.4623 -0.8524 -1.0839
 4728TIP3    H235676   1.600   0.158   1.811 -0.5549 -0.2555  0.3189
 4729TIP3   OH235677   6.461   0.989   4.871  0.4926 -0.0449  0.0726
 4729TIP3    H135678   6.520   1.045   4.923 -0.3526 -0.3434  1.3884
 4729TIP3    H235679   6.474   0.901   4.906  0.7017 -0.4452 -0.9758
 4730TIP3   OH235680   1.945   1.549   4.605 -0.1732  0.2527  0.1878
 4730TIP3    H135681   2.024   1.523   4.557  0.1477 -1.0431  1.3375
 4730TIP3    H235682   1.974   1.617   4.665  0.1391 -0.3849  0.7716
 4731TIP3   OH235683   5.497   0.042   5.311  0.0807 -0.5729  0.4131
 4731TIP3    H135684   5.562   0.103   5.346 -1.2792  1.6402 -0.6937
 4731TIP3    H235685   5.413   0.085   5.325 -0.9260 -1.9931 -0.8328
 4732TIP3   OH235686   0.875   2.683  14.732  0.4305  0.3681 -0.0414
 4732TIP3    H135687   0.848   2.612  14.674  2.1122 -1.3691  1.1678
 4732TIP3    H235688   0.830   2.761  14.698 -0.0027 -0.8851 -2.5645
 4733TIP3   OH235689   3.811   0.964  15.686 -0.0908  0.1286 -0.2182
 4733TIP3    H135690   3.846   0.970  15.775 -2.7934  0.5961  0.9036
 4733TIP3    H235691   3.874   0.909  15.639 -0.2998 -3.2305  2.9452
 4734TIP3   OH235692   4.918   0.877  14.264  0.1859 -0.2271 -0.1629
 4734TIP3    H135693   4.991   0.929  14.229  0.4277  0.5241  1.3432
 4734TIP3    H235694   4.943   0.860  14.355 -0.5929 -1.7366 -0.1999
 4735TIP3   OH235695   4.444   0.501  12.082 -0.4535  0.0356 -0.0381
 4735TIP3    H135696   4.493   0.453  12.148  0.9557  0.8905 -0.4184
 4735TIP3    H235697   4.421   0.584  12.125  0.1633  0.4502 -0.4938
 4736TIP3   OH235698   1.512   5.888   2.897  0.2959  0.0763  0.6044
 4736TIP3    H135699   1.536   5.863   2.808  1.2799 -0.9963  1.1439
 4736TIP3    H235700   1.462   5.969   2.887 -0.0464 -0.3026 -0.9535
 4737TIP3   OH235701   1.628   2.890   5.210 -0.7531  0.2087  0.2494
 4737TIP3    H135702   1.618   2.974   5.253 -1.6180  0.3330 -0.1753
 4737TIP3    H235703   1.541   2.871   5.173 -0.8241 -1.2718  1.0804
 4738TIP3   OH235704   1.972   5.041   2.494  0.1108 -0.2066  0.2412
 4738TIP3    H135705   2.045   4.980   2.505 -0.0413 -0.4730 -0.1835
 4738TIP3    H235706   2.011   5.128   2.501  0.0549 -0.3215  2.7356
 4739TIP3   OH235707   6.604   1.519  16.998 -0.4081  0.0599  0.0487
 4739TIP3    H135708   6.509   1.514  16.987 -0.5638  0.3975  1.0859
 4739TIP3    H235709   6.632   1.582  16.932 -0.9226  0.0514 -0.1830
 4740TIP3   OH235710   4.344   6.734  13.876 -1.0372 -0.4589 -0.3107
 4740TIP3    H135711   4.321   6.778  13.794  0.0178  1.6942  0.4586
 4740TIP3    H235712   4.436   6.754  13.888 -1.1234 -0.9158  1.2918
 4741TIP3   OH235713   0.799   5.486   5.146 -0.2022 -0.6848  0.5152
 4741TIP3    H135714   0.712   5.457   5.121  0.5369 -2.0694 -0.5697
 4741TIP3    H235715   0.826   5.425   5.215 -0.1265 -0.1885  0.9335
 4742TIP3   OH235716   5.046   2.305  12.580  0.2342  0.6281 -0.1325
 4742TIP3    H135717   4.957   2.276  12.603 -0.0090  0.4484 -1.2101
 4742TIP3    H235718   5.043   2.400  12.585  0.4098  0.5701  1.2848
 4743TIP3   OH235719   1.211   1.375  14.332 -0.7724 -0.2243 -0.3479
 4743TIP3    H135720   1.179   1.295  14.291  1.1171 -0.9951 -0.4023
 4743TIP3    H235721   1.285   1.403  14.277  1.1184 -0.6519  1.8073
 4744TIP3   OH235722   3.523   1.001   5.090  0.1074  0.0117  0.1052
 4744TIP3    H135723   3.561   1.082   5.122 -2.4134  2.0175 -1.5745
 4744TIP3    H235724   3.547   0.998   4.997 -0.8378 -0.4951 -0.1397
 4745TIP3   OH235725   3.367   3.116  15.364  0.4367  0.0160  0.0604
 4745TIP3    H135726   3.300   3.102  15.431  1.2708  0.1490  0.9564
 4745TIP3    H235727   3.327   3.177  15.301 -0.1003  0.4940  0.8468
 4746TIP3   OH235728   6.713   3.554  14.777 -0.0411 -0.1549  0.6973
 4746TIP3    H135729   6.711   3.513  14.691 -1.1850  0.5268  0.3748
 4746TIP3    H235730   6.790   3.611  14.775 -1.0551  1.2652 -0.5936
 4747TIP3   OH235731   2.960   1.400  14.694 -0.2385 -0.0280  0.3103
 4747TIP3    H135732   2.892   1.393  14.761 -0.3784  0.1883  0.1938
 4747TIP3    H235733   2.960   1.493  14.669 -1.1918 -0.3553 -1.0123
 4748TIP3   OH235734   6.171   4.905   1.967 -0.0123 -0.6311 -0.0605
 4748TIP3    H135735   6.189   4.935   2.056  1.5280  1.6524 -1.0527
 4748TIP3    H235736   6.114   4.829   1.979 -0.3578 -0.0459  2.8330
 4749TIP3   OH235737   3.398   3.605   1.166  0.2838  0.2669 -0.1261
 4749TIP3    H135738   3.386   3.684   1.219 -0.2399  1.3936 -1.8547
 4749TIP3    H235739   3.329   3.610   1.099 -0.5957 -2.3207  0.4604
 4750TIP3   OH235740   4.539   3.396   3.164  0.1144  0.1894  0.2387
 4750TIP3    H135741   4.511   3.437   3.246 -0.0481 -0.4528  0.5127
 4750TIP3    H235742   4.610   3.451   3.133  1.2589 -0.4234  1.6347
 4751TIP3   OH235743   3.370   0.162  13.524  0.2987 -0.0183 -0.3620
 4751TIP3    H135744   3.461   0.176  13.550 -0.5696  1.5012  2.2770
 4751TIP3    H235745   3.347   0.077  13.562  0.3844  0.0136 -0.2369
 4752TIP3   OH235746   1.082   5.767  11.128 -0.0047  0.1844  0.1213
 4752TIP3    H135747   1.028   5.724  11.194  0.2061  0.4552  0.4709
 4752TIP3    H235748   1.043   5.740  11.044 -0.5440  0.1972  0.3633
 4753TIP3   OH235749   1.028   4.385   0.384 -0.1596 -0.1218 -0.3032
 4753TIP3    H135750   1.049   4.412   0.295 -2.7460  1.2479 -0.5814
 4753TIP3    H235751   1.065   4.454   0.439  0.1661 -0.2123 -0.4038
 4754TIP3   OH235752   1.567   2.903   1.800  0.2360  0.3205  0.1152
 4754TIP3    H135753   1.542   2.832   1.741  2.6222 -1.8281  1.5016
 4754TIP3    H235754   1.539   2.982   1.755 -2.9622 -1.4520 -1.3120
 4755TIP3   OH235755   0.146   1.675   2.240  0.0100 -0.1498 -0.3401
 4755TIP3    H135756   0.091   1.724   2.301  0.3433  1.7494 -1.4712
 4755TIP3    H235757   0.169   1.595   2.287 -0.9295  0.5701  1.4419
 4756TIP3   OH235758   1.161   1.167   1.745  0.2458  0.2549  0.3146
 4756TIP3    H135759   1.092   1.224   1.710  0.7473  0.7211  0.0694
 4756TIP3    H235760   1.120   1.081   1.751 -0.4242  0.5734  0.3832
 4757TIP3   OH235761   6.656   4.722   0.918  0.1205 -0.5480 -0.4694
 4757TIP3    H135762   6.723   4.718   0.850  0.2238 -2.6817 -0.3041
 4757TIP3    H235763   6.592   4.785   0.885  1.4360  0.3936 -1.3223
 4758TIP3   OH235764   3.828   5.460   0.877  0.0432  0.6005  0.6444
 4758TIP3    H135765   3.904   5.485   0.825  1.3620 -0.8321  1.7646
 4758TIP3    H235766   3.863   5.448   0.966 -0.8832 -2.7617  0.6755
 4759TIP3   OH235767   1.424   2.881  15.841  0.4989  0.2357 -0.4296
 4759TIP3    H135768   1.428   2.799  15.794  0.6482 -0.0647  0.0937
 4759TIP3    H235769   1.515   2.898  15.867  0.0256 -1.6446  3.1499
 4760TIP3   OH235770   6.104   2.726  14.568  0.4418 -0.0440  0.0028
 4760TIP3    H135771   6.074   2.772  14.489 -1.0722 -0.9780  0.0068
 4760TIP3    H235772   6.026   2.683  14.602  1.2993 -0.5230  1.4377
 4761TIP3   OH235773   1.416   2.605  15.724  0.3643  0.3724  0.3829
 4761TIP3    H135774   1.425   2.526  15.671  2.6700  1.0837 -0.4049
 4761TIP3    H235775   1.330   2.639  15.702  0.9184  0.2383 -2.4208
 4762TIP3   OH235776   5.515   4.640   6.178  1.0624 -0.3266 -0.2659
 4762TIP3    H135777   5.438   4.694   6.194  0.5429 -0.9127 -0.7543
 4762TIP3    H235778   5.588   4.691   6.214  0.4139  0.0882  0.5053
 4763TIP3   OH235779   3.773   5.649  12.835 -0.1028  0.4998  0.1807
 4763TIP3    H135780   3.751   5.616  12.748 -0.9030  2.1337 -0.2764
 4763TIP3    H235781   3.842   5.590  12.866  0.6296  0.2324 -1.7933
 4764TIP3   OH235782   4.101   4.057  16.200  0.4159 -0.3299 -0.5087
 4764TIP3    H135783   4.025   4.017  16.241 -0.2664  1.0702 -0.3466
 4764TIP3    H235784   4.075   4.148  16.185  2.2047  0.3064 -0.0281
 4765TIP3   OH235785   0.466   0.622   3.771 -0.0384  0.3928 -0.3740
 4765TIP3    H135786   0.445   0.666   3.689 -0.9611  0.9955  0.1720
 4765TIP3    H235787   0.553   0.586   3.757 -0.2844  0.2611 -1.7107
 4766TIP3   OH235788   4.565   1.262   4.634 -0.4771  0.3842 -0.3773
 4766TIP3    H135789   4.607   1.324   4.574 -0.3387 -0.4254 -1.1459
 4766TIP3    H235790   4.622   1.186   4.633 -1.3961 -0.3193 -0.6103
 4767TIP3   OH235791   5.220   1.263  13.818 -0.2996  0.2236  0.0668
 4767TIP3    H135792   5.308   1.235  13.844  0.1928 -0.5061 -2.1684
 4767TIP3    H235793   5.222   1.358  13.828  1.0280  0.2967 -0.6954
 4768TIP3   OH235794   0.782   5.057   3.382 -0.1468  0.3722  0.0221
 4768TIP3    H135795   0.800   4.985   3.443  0.1001 -0.0348 -0.5250
 4768TIP3    H235796   0.854   5.054   3.320  1.1211  2.5331  1.2627
 4769TIP3   OH235797   5.906   2.423  16.242  0.8611  0.1765 -0.5959
 4769TIP3    H135798   5.964   2.348  16.250 -0.1729 -0.5980 -0.1693
 4769TIP3    H235799   5.888   2.431  16.148  2.5336  1.1434 -0.8843
 4770TIP3   OH235800   5.169   0.991   3.366 -0.1142 -0.5662 -0.0827
 4770TIP3    H135801   5.246   1.031   3.407  0.0824 -0.3483 -0.6676
 4770TIP3    H235802   5.172   1.019   3.275 -0.5016 -1.1312 -0.2770
 4771TIP3   OH235803   4.654   3.145  14.076  0.1245 -0.4376 -0.4521
 4771TIP3    H135804   4.723   3.207  14.099 -3.5915  2.9094  3.4409
 4771TIP3    H235805   4.657   3.079  14.146 -1.0122  0.2557  0.2941
 4772TIP3   OH235806   3.759   6.778   3.444 -0.4282  0.5651  0.3391
 4772TIP3    H135807   3.696   6.755   3.513 -0.9934 -1.0291 -0.6653
 4772TIP3    H235808   3.714   6.757   3.362  1.0510  0.2975 -0.4400
 4773TIP3   OH235809   0.281   3.460  12.235  0.1111 -0.1872 -0.2364
 4773TIP3    H135810   0.330   3.537  12.209 -1.7698  1.6946  1.4155
 4773TIP3    H235811   0.321   3.388  12.186 -0.0312  2.2054 -4.3172
 4774TIP3   OH235812   2.869   3.382  17.150  0.4077  0.0514 -0.1044
 4774TIP3    H135813   2.774   3.378  17.164  0.3487  0.5849 -0.3302
 4774TIP3    H235814   2.889   3.303  17.100  0.3264 -0.8778  1.2649
 4775TIP3   OH235815   0.383   3.984   1.269 -0.3688  0.4161 -0.0608
 4775TIP3    H135816   0.385   4.061   1.325  1.5166  0.1858  0.2280
 4775TIP3    H235817   0.384   4.020   1.180  2.3809  0.7725  0.0456
 4776TIP3   OH235818   2.768   1.268  11.545 -0.0671 -0.3343 -0.0930
 4776TIP3    H135819   2.828   1.194  11.533  0.7935  0.6247 -2.0170
 4776TIP3    H235820   2.688   1.241  11.500 -0.2703 -0.6602  0.4527
 4777TIP3   OH235821   1.675   6.358   5.632  0.0729 -0.2066 -0.3071
 4777TIP3    H135822   1.742   6.364   5.563 -1.3579 -1.0502 -1.8433
 4777TIP3    H235823   1.640   6.447   5.639  0.8711  0.0879  0.0177
 4778TIP3   OH235824   3.629   3.044  16.267  0.4228  0.1775 -0.2685
 4778TIP3    H135825   3.653   3.128  16.306  0.8340 -0.1923  0.2976
 4778TIP3    H235826   3.537   3.055  16.242  0.0686  0.3799  1.0034
 4779TIP3   OH235827   5.128   3.288   5.106  0.0677  0.3393  0.3633
 4779TIP3    H135828   5.165   3.204   5.135  0.2636  1.0072  2.2193
 4779TIP3    H235829   5.074   3.316   5.180 -1.8304  0.7924 -1.1325
 4780TIP3   OH235830   6.765   0.621   0.967 -0.3713  0.7238  0.6281
 4780TIP3    H135831   6.846   0.616   0.916  0.0636 -0.3440  1.3718
 4780TIP3    H235832   6.695   0.619   0.901  0.1940  0.9243  0.0074
 4781TIP3   OH235833   1.551   1.591  14.579  0.1475  1.0067 -0.2417
 4781TIP3    H135834   1.533   1.499  14.561  1.9013  0.6337 -0.2466
 4781TIP3    H235835   1.465   1.633  14.575 -0.7397 -0.6719  0.1241
 4782TIP3   OH235836   3.562   5.260  11.405  0.7309  0.4997  0.9337
 4782TIP3    H135837   3.475   5.270  11.367  0.1653 -0.0784  2.0362
 4782TIP3    H235838   3.547   5.221  11.491  2.1281 -0.1891  0.8971
 4783TIP3   OH235839   0.201   3.288   0.225 -0.4047 -0.3973 -0.1397
 4783TIP3    H135840   0.241   3.237   0.295  0.0285 -3.0360 -2.1352
 4783TIP3    H235841   0.108   3.268   0.231 -0.3927 -0.4679 -0.1818
 4784TIP3   OH235842   0.140   2.783  14.424  0.4080 -0.0694 -0.1825
 4784TIP3    H135843   0.053   2.787  14.385 -0.2151 -0.7900  1.0463
 4784TIP3    H235844   0.127   2.734  14.506  1.7225  0.9605  0.6834
 4785TIP3   OH235845   3.097   1.899   5.517  0.8628 -0.3393 -0.1718
 4785TIP3    H135846   3.183   1.875   5.552 -0.3584 -2.8799  1.3456
 4785TIP3    H235847   3.034   1.853   5.572 -1.4231 -0.6425 -2.7756
 4786TIP3   OH235848   0.005   0.951   1.498  0.2210  0.3925 -0.0767
 4786TIP3    H135849   0.093   0.981   1.520  1.5395 -1.4248 -2.3629
 4786TIP3    H235850  -0.008   0.872   1.549 -0.7557  1.4308  1.3608
 4787TIP3   OH235851   4.161   5.412  16.576  0.3758  0.7017 -0.2682
 4787TIP3    H135852   4.117   5.371  16.501  1.2134 -1.7207  0.4804
 4787TIP3    H235853   4.089   5.448  16.628 -0.3092  1.2389 -1.5278
 4788TIP3   OH235854   1.823   5.368   3.125  0.1048 -0.0272 -0.0700
 4788TIP3    H135855   1.782   5.408   3.048  0.8667  2.7096  0.8298
 4788TIP3    H235856   1.790   5.419   3.199 -1.9562 -3.6550  1.7313
 4789TIP3   OH235857   0.777   3.793  11.483 -0.3245  0.2759 -0.2596
 4789TIP3    H135858   0.734   3.708  11.479 -0.7949  0.5280 -0.6904
 4789TIP3    H235859   0.762   3.831  11.396  0.9829  0.2634 -0.5122
 4790TIP3   OH235860   0.558   2.634   2.890  0.2030  0.5121  0.5638
 4790TIP3    H135861   0.643   2.591   2.902  1.2997  2.5478  0.6460
 4790TIP3    H235862   0.507   2.609   2.968  0.2291 -1.7287 -0.0881
 4791TIP3   OH235863   0.444   3.158  15.019  0.5991  0.1677 -0.0280
 4791TIP3    H135864   0.512   3.118  14.963 -0.5057 -2.3377  0.2711
 4791TIP3    H235865   0.375   3.183  14.958  0.7403  0.4061 -0.0903
 4792TIP3   OH235866   2.614   5.791  13.457 -0.1877  0.1532 -0.0819
 4792TIP3    H135867   2.635   5.698  13.455  0.8947  0.3800 -1.4000
 4792TIP3    H235868   2.567   5.805  13.539 -1.0160 -1.6768 -0.2124
 4793TIP3   OH235869   6.278   3.491  11.743  0.2322  0.6037  0.4096
 4793TIP3    H135870   6.340   3.468  11.673  2.9200  0.2453  2.7336
 4793TIP3    H235871   6.250   3.580  11.722 -1.0479 -0.3596 -2.4068
 4794TIP3   OH235872   5.246   1.835   4.695 -0.2875 -0.1785  0.6354
 4794TIP3    H135873   5.236   1.827   4.600 -0.7331 -2.1687  0.8061
 4794TIP3    H235874   5.307   1.908   4.706  1.5115 -1.2657 -1.2909
 4795TIP3   OH235875   5.382   6.648   1.023 -0.3300 -0.1399 -0.3923
 4795TIP3    H135876   5.398   6.596   0.944  0.4274 -2.4587  1.1846
 4795TIP3    H235877   5.455   6.710   1.026 -1.5750  1.5835 -2.6288
 4796TIP3   OH235878   1.713   0.777  16.783  0.1428  0.0561 -0.0297
 4796TIP3    H135879   1.702   0.781  16.878 -1.0832  1.7174 -0.1966
 4796TIP3    H235880   1.803   0.806  16.768 -0.2867  1.8292  0.5408
 4797TIP3   OH235881   5.094   4.275  15.576 -0.4450  0.0951 -0.0095
 4797TIP3    H135882   5.039   4.263  15.654 -0.3848 -0.3485 -0.0304
 4797TIP3    H235883   5.092   4.190  15.533  1.4789 -0.4146  0.7955
 4798TIP3   OH235884   6.285   0.676   3.965 -0.0897  0.0207 -0.3902
 4798TIP3    H135885   6.369   0.647   4.001 -1.1726 -1.8199  0.8352
 4798TIP3    H235886   6.252   0.602   3.915 -3.1628 -1.4035  3.2108
 4799TIP3   OH235887   0.670   5.095  10.448  0.0774 -0.6892 -0.2577
 4799TIP3    H135888   0.631   5.057  10.369 -1.2939 -2.1743  1.0416
 4799TIP3    H235889   0.654   5.189  10.440  0.1902 -0.7686 -1.8372
 4800TIP3   OH235890   3.759   3.957   5.471 -0.3110  0.0266 -0.6599
 4800TIP3    H135891   3.757   3.881   5.413  0.9625 -0.3454 -0.2449
 4800TIP3    H235892   3.751   3.920   5.559  0.8841  0.2994 -0.4174
 4801TIP3   OH235893   0.169   5.527   4.073 -0.2729 -0.0078  0.3238
 4801TIP3    H135894   0.181   5.435   4.049  1.4373  0.0195  0.9154
 4801TIP3    H235895   0.182   5.529   4.167 -2.2248  0.5930  0.6261
 4802TIP3   OH235896   4.689   5.437   5.036  0.3164 -0.0744  0.1072
 4802TIP3    H135897   4.772   5.419   4.992  0.7573  0.2746  0.7876
 4802TIP3    H235898   4.702   5.521   5.079 -0.4243  0.0259  0.1517
 4803TIP3   OH235899   3.013   1.177  15.684 -0.5067 -0.7638 -0.0808
 4803TIP3    H135900   2.998   1.085  15.709  0.5691 -0.7870  0.5540
 4803TIP3    H235901   3.079   1.207  15.747  0.1030  0.0654 -1.1063
 4804TIP3   OH235902   4.559   5.419  11.191  0.4366 -0.3817 -0.2794
 4804TIP3    H135903   4.573   5.325  11.181  1.5270 -0.3570  0.8454
 4804TIP3    H235904   4.577   5.455  11.104 -1.0696 -1.2964 -1.0206
 4805TIP3   OH235905   0.212   4.915  12.783 -0.6996 -0.3614  0.1600
 4805TIP3    H135906   0.249   4.988  12.833 -0.6780 -0.0840 -0.2496
 4805TIP3    H235907   0.277   4.898  12.714 -1.5157  0.4300 -0.8460
 4806TIP3   OH235908   0.255   6.505   0.947 -0.8019  0.2723  0.2139
 4806TIP3    H135909   0.166   6.483   0.921 -0.8652  0.8232 -0.0555
 4806TIP3    H235910   0.293   6.546   0.869 -0.4493  0.4167  0.4587
 4807TIP3   OH235911   4.896   1.475  12.665  0.2730  0.2122  0.2840
 4807TIP3    H135912   4.899   1.413  12.738 -1.1078 -0.5410 -0.2631
 4807TIP3    H235913   4.862   1.424  12.592  0.1577  1.3516 -0.4808
 4808TIP3   OH235914   1.838   4.436   0.095 -0.8682  0.4668 -0.6103
 4808TIP3    H135915   1.892   4.456   0.019  0.8952 -0.5416  0.3077
 4808TIP3    H235916   1.901   4.414   0.164 -2.4413 -0.9826  0.4616
 4809TIP3   OH235917   2.428   2.687  13.292 -0.2864  0.6079 -0.1504
 4809TIP3    H135918   2.355   2.739  13.260 -0.3385  0.7690  0.2146
 4809TIP3    H235919   2.388   2.625  13.353 -0.3123 -0.3233 -1.1016
 4810TIP3   OH235920   5.207   1.166  13.357 -0.0852 -0.1085  0.2542
 4810TIP3    H135921   5.297   1.162  13.324  0.2001  0.1998  0.9895
 4810TIP3    H235922   5.179   1.074  13.361  0.8224 -0.3509  1.7004
 4811TIP3   OH235923   2.583   2.151   1.056 -0.5948 -0.1607 -0.1245
 4811TIP3    H135924   2.593   2.229   1.000  2.4179  0.1873  0.7428
 4811TIP3    H235925   2.493   2.158   1.089 -0.1478  3.6547  0.8321
 4812TIP3   OH235926   1.226   6.587   1.663 -0.3475 -0.2322 -0.3326
 4812TIP3    H135927   1.255   6.598   1.754 -0.9241 -0.1209 -0.1541
 4812TIP3    H235928   1.305   6.564   1.615  0.0956  0.3956  0.0793
 4813TIP3   OH235929   4.498   1.783  12.262  0.6818 -0.2764  0.1938
 4813TIP3    H135930   4.468   1.736  12.339  1.0972 -1.5959 -0.4100
 4813TIP3    H235931   4.593   1.773  12.263  0.6253 -1.3903 -1.0928
 4814TIP3   OH235932   1.655   3.674   1.824 -0.2387  0.4479  0.3644
 4814TIP3    H135933   1.594   3.743   1.848 -0.1808  0.7078 -0.2254
 4814TIP3    H235934   1.726   3.682   1.888 -1.3540 -0.6133  1.7901
 4815TIP3   OH235935   4.514   1.518  16.916  0.6089 -0.1926  0.4253
 4815TIP3    H135936   4.555   1.589  16.966  0.1071  0.6829 -0.3552
 4815TIP3    H235937   4.586   1.461  16.890  1.3344  1.1652 -0.6830
 4816TIP3   OH235938   0.212   3.069   5.411 -0.2025  0.1910  0.3701
 4816TIP3    H135939   0.297   3.071   5.455 -1.2147  0.7121  2.4249
 4816TIP3    H235940   0.207   2.982   5.371  0.7040 -0.3861  1.4809
 4817TIP3   OH235941   4.871   2.718  16.286  0.1118 -0.0186  0.6534
 4817TIP3    H135942   4.938   2.701  16.352  1.1160 -1.2063 -0.6095
 4817TIP3    H235943   4.912   2.780  16.225 -0.2248 -0.1444  0.2924
 4818TIP3   OH235944   0.376   4.074  11.846  0.2513  0.5326 -0.1003
 4818TIP3    H135945   0.351   4.161  11.814 -1.7690 -0.4156 -1.3269
 4818TIP3    H235946   0.428   4.037  11.775  0.5665  0.5136  0.1434
 4819TIP3   OH235947   0.829   3.287   2.066 -0.1389 -0.1483  0.5028
 4819TIP3    H135948   0.806   3.379   2.052 -2.1244 -0.5032  1.1423
 4819TIP3    H235949   0.802   3.244   1.985  0.9219 -0.1783  0.1463
 4820TIP3   OH235950   3.309   6.432  13.050  0.1762  0.2098 -0.1229
 4820TIP3    H135951   3.324   6.446  12.957 -1.7489 -0.4766 -0.5810
 4820TIP3    H235952   3.359   6.352  13.071 -0.2374 -0.2492 -0.8377
 4821TIP3   OH235953   6.197   1.914  16.471 -0.7975 -0.2686  0.0231
 4821TIP3    H135954   6.249   1.949  16.398 -0.6899 -1.1472 -0.3293
 4821TIP3    H235955   6.240   1.949  16.549 -0.1876 -0.2986 -0.2932
 4822TIP3   OH235956   2.104   3.887  14.551  0.0485  0.0796 -0.4986
 4822TIP3    H135957   2.140   3.809  14.510  0.4360  1.5688 -3.1871
 4822TIP3    H235958   2.173   3.916  14.611 -0.2096 -1.7001  0.7577
 4823TIP3   OH235959   2.996   5.890   6.241 -0.3312  0.2163 -0.0094
 4823TIP3    H135960   2.908   5.922   6.262  0.1933  0.6673  1.6754
 4823TIP3    H235961   3.013   5.821   6.305  0.7783  0.5737  0.1024
 4824TIP3   OH235962   3.383   1.117   3.970  0.0126 -0.7984  0.3996
 4824TIP3    H135963   3.378   1.044   4.031  0.4159  0.0019  1.4156
 4824TIP3    H235964   3.343   1.190   4.017  2.2239  0.3781  0.5862
 4825TIP3   OH235965   1.828   3.734   0.868  1.1912 -0.5808  1.1865
 4825TIP3    H135966   1.906   3.742   0.923  2.0804 -1.9910  0.1878
 4825TIP3    H235967   1.759   3.709   0.929  1.8886 -0.8987  1.8718
 4826TIP3   OH235968   2.024   3.386  11.235 -0.3231  0.1859 -0.3407
 4826TIP3    H135969   1.947   3.413  11.185 -0.0345  2.5395  0.3225
 4826TIP3    H235970   1.991   3.375  11.324 -0.2756 -1.0099 -0.4564
 4827TIP3   OH235971   3.124   2.812  15.291 -0.0271  0.0653  0.3476
 4827TIP3    H135972   3.052   2.772  15.340  1.1061  0.1974  2.2110
 4827TIP3    H235973   3.198   2.810  15.352  0.8217  2.3954 -0.5164
 4828TIP3   OH235974   0.917   0.351  17.209 -0.0885 -0.1458  0.5467
 4828TIP3    H135975   0.844   0.399  17.249 -0.5937 -1.4327  1.2466
 4828TIP3    H235976   0.962   0.311  17.283  0.1642 -0.9380 -0.0199
 4829TIP3   OH235977   0.247   5.953   2.511  0.2289  0.1715 -0.2118
 4829TIP3    H135978   0.279   5.940   2.422  0.6920  1.3837 -0.2436
 4829TIP3    H235979   0.176   6.017   2.502 -0.2965 -0.3401  0.2004
 4830TIP3   OH235980   3.772   5.742   4.957 -0.1315 -0.5451  0.3448
 4830TIP3    H135981   3.699   5.802   4.973  0.3463 -0.1610  1.1304
 4830TIP3    H235982   3.767   5.722   4.863 -1.8740 -1.3398  0.5661
 4831TIP3   OH235983   4.533   4.699  12.419  0.4598 -0.4591 -0.2201
 4831TIP3    H135984   4.499   4.615  12.387 -4.1572  0.2060  2.0883
 4831TIP3    H235985   4.480   4.765  12.374  1.0316  0.9713  1.1338
 4832TIP3   OH235986   3.391   2.967  16.926 -0.0051  0.1181  0.1190
 4832TIP3    H135987   3.460   3.033  16.926  0.6292 -0.5133 -0.4915
 4832TIP3    H235988   3.390   2.934  16.836 -1.5283  0.5341 -0.0434
 4833TIP3   OH235989   3.144   6.486  12.717 -0.6594  0.2383 -0.6124
 4833TIP3    H135990   3.167   6.577  12.731  0.7499 -0.3142  1.0537
 4833TIP3    H235991   3.106   6.483  12.629  0.6044  2.1757 -1.2661
 4834TIP3   OH235992   1.989   3.352   0.747  0.0328  0.2237 -0.2384
 4834TIP3    H135993   1.911   3.370   0.800 -0.2224  1.8774 -1.1139
 4834TIP3    H235994   1.980   3.409   0.671  1.8902  0.1350 -0.5689
 4835TIP3   OH235995   3.100   6.526  14.724  0.2529 -0.0451  0.1326
 4835TIP3    H135996   3.194   6.509  14.729  0.0132 -1.2361  1.2582
 4835TIP3    H235997   3.070   6.478  14.647  0.5632  0.3921 -0.2674
 4836TIP3   OH235998   1.655   3.608  11.697  0.2551 -0.3879  0.1740
 4836TIP3    H135999   1.630   3.699  11.680  0.8611 -0.1026  0.7196
 4836TIP3    H236000   1.740   3.616  11.741  0.4806 -1.2378 -0.0996
 4837TIP3   OH236001   6.524   1.719  15.443 -0.1343  0.2967 -0.0306
 4837TIP3    H136002   6.522   1.625  15.426  0.3489  0.1529  0.6745
 4837TIP3    H236003   6.460   1.732  15.513 -0.9663  0.6528 -0.8422
 4838TIP3   OH236004   0.545   2.987   4.964 -0.0685 -0.0326  0.4614
 4838TIP3    H136005   0.634   3.008   4.933 -1.0819  4.3909 -0.1971
 4838TIP3    H236006   0.501   2.953   4.887  0.7340 -1.2114  0.5004
 4839TIP3   OH236007   0.705   6.053  14.685  0.0629 -0.6477 -0.4800
 4839TIP3    H136008   0.737   6.099  14.608  0.0683 -1.3210 -0.8928
 4839TIP3    H236009   0.611   6.043  14.669 -0.6438  2.3077  1.2354
 4840TIP3   OH236010   0.737   3.748   3.827 -0.7126  0.1234  0.0945
 4840TIP3    H136011   0.702   3.667   3.792  2.2552 -0.9993 -0.4976
 4840TIP3    H236012   0.766   3.798   3.751 -1.8685  1.5040  0.4955
 4841TIP3   OH236013   6.145   0.467  16.513  0.5125 -0.1662 -0.3542
 4841TIP3    H136014   6.192   0.529  16.457  1.2400  1.4661  1.9182
 4841TIP3    H236015   6.076   0.432  16.457  2.1042  0.2095 -2.6854
 4842TIP3   OH236016   6.198   6.594  12.320 -0.4188  0.2659 -0.1493
 4842TIP3    H136017   6.130   6.528  12.334 -0.1698 -0.7927 -3.1588
 4842TIP3    H236018   6.188   6.619  12.228  1.0260  2.7357  0.2825
 4843TIP3   OH236019   6.317   2.531  15.030  0.3944 -0.6510 -0.3202
 4843TIP3    H136020   6.228   2.506  15.054  0.7529 -2.3343 -0.6032
 4843TIP3    H236021   6.310   2.563  14.941  0.2464 -2.2185 -0.9160
 4844TIP3   OH236022   1.023   1.857  16.254  0.4138  0.6052  0.5611
 4844TIP3    H136023   1.037   1.829  16.163  4.4261 -0.1216  1.2488
 4844TIP3    H236024   0.927   1.857  16.263 -0.1605 -3.2503 -2.4592
 4845TIP3   OH236025   0.324   4.046  14.957  0.2902 -0.2465  0.2664
 4845TIP3    H136026   0.353   4.137  14.957  4.3117 -1.3010 -0.9574
 4845TIP3    H236027   0.376   4.004  14.889 -1.4687 -3.4907  0.6889
 4846TIP3   OH236028   5.372   5.237   5.471  0.2808  0.7575  0.4303
 4846TIP3    H136029   5.282   5.263   5.491  0.0120 -1.7415  3.2619
 4846TIP3    H236030   5.370   5.212   5.379 -2.1689  0.1247  0.5844
 4847TIP3   OH236031   3.034   0.819   5.233  0.2849 -0.0901 -0.1886
 4847TIP3    H136032   3.033   0.727   5.259 -0.3071  0.0229  0.1929
 4847TIP3    H236033   3.127   0.841   5.229  0.4528 -0.8847 -0.9523
 4848TIP3   OH236034   1.393   0.970  15.981  0.8075  0.8135 -0.9227
 4848TIP3    H136035   1.460   1.038  15.979  2.0690 -0.3049  0.7510
 4848TIP3    H236036   1.377   0.954  16.074  0.5492 -1.1520 -1.2592
 4849TIP3   OH236037   4.259   5.386   2.637  0.0796  0.4105 -0.0533
 4849TIP3    H136038   4.337   5.433   2.607 -0.3342  0.5305 -0.9855
 4849TIP3    H236039   4.252   5.408   2.730  1.4785 -0.0714  0.1950
 4850TIP3   OH236040   3.734   4.919   3.874  0.0529  0.0500 -0.3722
 4850TIP3    H136041   3.673   4.929   3.800  1.5145  1.6484 -1.4241
 4850TIP3    H236042   3.770   4.831   3.863 -0.8149 -0.2800 -0.6958
 4851TIP3   OH236043   2.999   2.906   5.449  0.0001  0.0304  0.2327
 4851TIP3    H136044   3.019   2.889   5.357 -2.7709 -2.1165 -0.0912
 4851TIP3    H236045   3.083   2.932   5.487  1.1076  1.6535 -2.9693
 4852TIP3   OH236046   6.011   1.402   2.334 -0.0472 -0.2762  1.1145
 4852TIP3    H136047   5.939   1.466   2.328  0.0117 -0.2403  0.7404
 4852TIP3    H236048   6.082   1.443   2.286  1.1145  0.8477  3.5972
 4853TIP3   OH236049   4.997   5.683   5.353  0.1460 -0.2456  0.1739
 4853TIP3    H136050   4.962   5.705   5.440 -0.6105  0.6429 -0.3354
 4853TIP3    H236051   5.091   5.673   5.367  0.3442  1.9370  0.7549
 4854TIP3   OH236052   5.949   1.970  16.349  0.2148  0.2541  0.0518
 4854TIP3    H136053   5.896   1.897  16.316 -0.4113  0.7711 -0.0966
 4854TIP3    H236054   6.008   1.929  16.412  0.6874 -0.5748 -0.8921
 4855TIP3   OH236055   6.423   6.310  11.524 -0.4244 -0.3949 -0.4351
 4855TIP3    H136056   6.459   6.399  11.528 -3.6591  1.0551  0.0575
 4855TIP3    H236057   6.495   6.256  11.493  2.0169  2.1973  0.2975
 4856TIP3   OH236058   2.252   4.633   6.150 -0.3484  0.1302  0.3727
 4856TIP3    H136059   2.183   4.595   6.204  0.2009 -0.3944  0.7141
 4856TIP3    H236060   2.293   4.558   6.107 -0.4119  0.4953 -0.3400
 4857TIP3   OH236061   4.809   6.673  15.159 -0.1278 -0.5318  0.3052
 4857TIP3    H136062   4.840   6.597  15.207  1.4564 -0.0431  0.1362
 4857TIP3    H236063   4.876   6.740  15.175  0.6062 -0.3965 -2.6724
 4858TIP3   OH236064   6.691   5.208  14.408 -0.0480  0.3309 -0.1238
 4858TIP3    H136065   6.683   5.283  14.468  0.2452  0.2616  0.0073
 4858TIP3    H236066   6.653   5.239  14.326  1.9768  1.4138 -0.7458
 4859TIP3   OH236067   2.946   4.251   5.431 -0.6588 -0.0392  0.3943
 4859TIP3    H136068   2.870   4.197   5.449  0.1494 -0.4734  2.9724
 4859TIP3    H236069   2.928   4.292   5.346 -2.9530 -1.4310  0.1404
 4860TIP3   OH236070   2.834   4.475  13.264 -0.5739  0.5118 -0.6362
 4860TIP3    H136071   2.790   4.471  13.349  0.2564  1.4708 -0.1497
 4860TIP3    H236072   2.791   4.548  13.219 -0.0240  0.9353 -0.4726
 4861TIP3   OH236073   4.070   6.760  14.475 -0.1113 -0.3559 -0.1318
 4861TIP3    H136074   4.052   6.742  14.383  2.6667  0.3492 -0.9109
 4861TIP3    H236075   4.042   6.851  14.488 -0.2069 -0.3497 -0.3827
 4862TIP3   OH236076   1.070   4.247  16.040  0.0876  0.0551  0.1171
 4862TIP3    H136077   1.070   4.200  16.124  0.2059 -0.4400 -0.1523
 4862TIP3    H236078   1.127   4.322  16.055  0.7330 -0.4456  0.2651
 4863TIP3   OH236079   3.153   4.975  14.297 -0.2463  0.1970 -0.4972
 4863TIP3    H136080   3.070   4.928  14.306 -0.7680  0.9740 -1.2086
 4863TIP3    H236081   3.130   5.067  14.304  0.9571  0.3891  2.4375
 4864TIP3   OH236082   3.225   3.603  12.276  0.1352  0.4763  0.0673
 4864TIP3    H136083   3.221   3.537  12.345  0.5212  0.0887 -0.2803
 4864TIP3    H236084   3.149   3.659  12.293  1.3436  1.6418  2.0625
 4865TIP3   OH236085   1.846   1.580  13.597 -0.3239 -0.3453 -0.2091
 4865TIP3    H136086   1.894   1.609  13.675 -0.6077 -2.8187  0.9844
 4865TIP3    H236087   1.898   1.610  13.523  1.5473 -0.4644  1.0046
 4866TIP3   OH236088   0.409   5.320   3.341 -0.3767 -0.2740  0.2570
 4866TIP3    H136089   0.380   5.411   3.341  1.5897  0.4164  0.5856
 4866TIP3    H236090   0.388   5.287   3.428  2.3883  1.1776  1.6164
 4867TIP3   OH236091   6.416   0.353   3.183 -0.1511  0.5436 -0.1130
 4867TIP3    H136092   6.395   0.278   3.127  0.2494 -0.7863  1.4609
 4867TIP3    H236093   6.452   0.418   3.123 -1.7618  0.0322 -1.7392
 4868TIP3   OH236094   4.018   5.592   3.562 -0.3755  0.6402 -0.4873
 4868TIP3    H136095   4.085   5.649   3.523  1.4220 -0.1507  1.2631
 4868TIP3    H236096   3.999   5.528   3.494 -0.4939  1.7655 -1.5516
 4869TIP3   OH236097   3.838   4.224  12.379 -0.6553 -0.1748 -0.2845
 4869TIP3    H136098   3.774   4.274  12.327 -0.1937  2.5935  1.5759
 4869TIP3    H236099   3.784   4.170  12.437 -1.1770 -1.5190 -1.9285
 4870TIP3   OH236100   6.082   1.920   1.872 -0.2905 -0.0880  0.1546
 4870TIP3    H136101   5.989   1.906   1.888 -1.3179  0.1145 -4.4351
 4870TIP3    H236102   6.126   1.870   1.941 -3.7005 -0.4765  2.2752
 4871TIP3   OH236103   6.523   5.359  11.595 -0.2180 -0.2591  0.1570
 4871TIP3    H136104   6.595   5.302  11.567  0.5667  0.9855 -0.4724
 4871TIP3    H236105   6.462   5.357  11.521 -0.2964 -0.4431  0.2253
 4872TIP3   OH236106   1.006   2.278   0.051 -0.0155  0.1554 -0.8569
 4872TIP3    H136107   0.996   2.238   0.138  0.0905 -1.1628 -1.4204
 4872TIP3    H236108   0.941   2.349   0.050  1.2679  1.4527  0.9690
 4873TIP3   OH236109   6.519   3.681  13.519  0.5769 -0.1233  0.1126
 4873TIP3    H136110   6.532   3.690  13.613 -0.4500  1.1319  0.1725
 4873TIP3    H236111   6.460   3.754  13.496  2.3054  0.7717 -1.8082
 4874TIP3   OH236112   0.464   5.615  16.834 -0.3412  0.2260  0.1113
 4874TIP3    H136113   0.468   5.575  16.747 -0.5388 -1.7361  0.9358
 4874TIP3    H236114   0.370   5.617  16.856 -0.3166  0.9708  0.1736
 4875TIP3   OH236115   2.998   5.940  12.668  0.4141  0.4199  0.3414
 4875TIP3    H136116   2.914   5.983  12.683  0.1293 -0.2194  0.6418
 4875TIP3    H236117   3.018   5.899  12.752  0.7593  0.1184  0.1122
 4876TIP3   OH236118   3.964   3.319  12.285  0.7628  0.2012  0.3265
 4876TIP3    H136119   4.018   3.398  12.284  1.0571  0.0249 -1.4818
 4876TIP3    H236120   4.028   3.247  12.286  0.5697  0.0014 -0.5005
 4877TIP3   OH236121   2.536   4.625   1.249  0.1524 -0.4294 -0.1014
 4877TIP3    H136122   2.608   4.649   1.307  0.8313 -1.8695 -0.3138
 4877TIP3    H236123   2.536   4.529   1.248 -0.3733 -0.4491 -1.8192
 4878TIP3   OH236124   4.941   3.544   2.303  0.1372  0.1008  0.4210
 4878TIP3    H136125   4.866   3.577   2.353  1.3013 -0.5211  2.6924
 4878TIP3    H236126   4.955   3.456   2.337  0.8019 -0.4792 -1.2721
 4879TIP3   OH236127   4.997   6.273  11.938  0.1770 -0.6400 -0.0421
 4879TIP3    H136128   4.988   6.210  11.867  0.0003 -1.2333  0.4936
 4879TIP3    H236129   4.994   6.358  11.895  0.6333 -0.9942 -0.8013
 4880TIP3   OH236130   2.632   4.692  12.379 -0.1625  0.6905  0.2048
 4880TIP3    H136131   2.621   4.667  12.287 -2.3942  1.1434  0.2787
 4880TIP3    H236132   2.718   4.658  12.403 -0.4894 -1.5449 -1.3858
 4881TIP3   OH236133   0.527   0.559  12.788  0.6968 -0.1566 -0.5378
 4881TIP3    H136134   0.473   0.480  12.796 -1.0926  1.0845 -0.0142
 4881TIP3    H236135   0.549   0.582  12.878 -1.8089  1.9247 -0.3772
 4882TIP3   OH236136   1.262   2.246  13.549 -0.2169 -0.4831 -0.3051
 4882TIP3    H136137   1.240   2.329  13.508  0.4953  0.2012  0.6535
 4882TIP3    H236138   1.182   2.221  13.597 -0.3849 -0.2805 -0.4790
 4883TIP3   OH236139   6.237   5.996   5.529  0.8047  0.1996 -0.2616
 4883TIP3    H136140   6.328   6.026   5.530  0.4837  1.3131 -1.5521
 4883TIP3    H236141   6.185   6.075   5.542 -0.0541 -0.8385  4.9086
 4884TIP3   OH236142   1.877   4.947  11.673 -0.0176  0.3832 -0.1745
 4884TIP3    H136143   1.924   5.031  11.675  0.1994  0.3132 -1.3790
 4884TIP3    H236144   1.822   4.952  11.594  0.7225 -0.9764 -0.8148
 4885TIP3   OH236145   4.988   2.467  15.213  0.3644 -0.1516 -0.2759
 4885TIP3    H136146   4.952   2.515  15.288  1.3559  1.1568 -0.5950
 4885TIP3    H236147   4.919   2.407  15.187 -0.2301 -0.2115  1.3070
 4886TIP3   OH236148   1.132   5.298   5.935  0.2156 -0.5081 -0.5921
 4886TIP3    H136149   1.063   5.355   5.900  0.7963 -0.0106 -0.9382
 4886TIP3    H236150   1.101   5.274   6.022  0.2923  0.9227 -0.1530
 4887TIP3   OH236151   5.941   5.363   2.889  0.7110 -0.2504 -0.4808
 4887TIP3    H136152   6.026   5.403   2.906  0.6101 -0.9369  1.9213
 4887TIP3    H236153   5.960   5.271   2.874  0.2901 -0.8981  2.4009
 4888TIP3   OH236154   1.827   6.550  15.955 -0.0758  0.7779 -0.6064
 4888TIP3    H136155   1.777   6.625  15.984  0.5171  0.9398  0.0235
 4888TIP3    H236156   1.796   6.477  16.009  0.2006  0.8290 -0.3776
 4889TIP3   OH236157   5.763   0.064   1.442 -0.2565 -0.1637 -0.2070
 4889TIP3    H136158   5.765   0.106   1.356 -3.1452 -1.4975 -1.0501
 4889TIP3    H236159   5.767  -0.030   1.423 -1.4584 -0.4993  1.0260
 4890TIP3   OH236160   2.171   3.505  12.531  0.7084  0.3050  0.1493
 4890TIP3    H136161   2.133   3.566  12.594 -0.1006  0.6099 -0.6059
 4890TIP3    H236162   2.229   3.559  12.478 -1.1560  0.8259 -1.5127
 4891TIP3   OH236163   6.139   1.903   5.367  0.2381  0.6299 -0.5059
 4891TIP3    H136164   6.164   1.963   5.437  1.3054 -0.4062  0.0392
 4891TIP3    H236165   6.049   1.927   5.345  0.4158  1.9690  0.1583
 4892TIP3   OH236166   0.120   4.565  16.670  0.4913  0.3669 -0.0609
 4892TIP3    H136167   0.039   4.571  16.619 -0.5549  1.3537  1.6427
 4892TIP3    H236168   0.120   4.475  16.704  1.0007 -0.1725 -1.4032
 4893TIP3   OH236169   4.549   5.420  13.363  0.0900  0.3525 -0.4925
 4893TIP3    H136170   4.536   5.424  13.457 -0.6782  0.8617 -0.6058
 4893TIP3    H236171   4.479   5.363  13.332 -0.0096  0.6454 -0.8127
 4894TIP3   OH236172   0.782   0.403  14.493  0.4029 -0.0313 -0.1264
 4894TIP3    H136173   0.855   0.344  14.476 -0.5882 -1.3881  0.1525
 4894TIP3    H236174   0.708   0.345  14.509 -0.7793  1.3083 -0.5560
 4895TIP3   OH236175   6.595   5.964   3.654 -0.6357 -0.0566  0.0549
 4895TIP3    H136176   6.505   5.932   3.653 -0.2616 -1.6741  3.2497
 4895TIP3    H236177   6.603   6.011   3.737  1.8448 -1.5647  0.8008
 4896TIP3   OH236178   1.543   0.920  13.450 -0.1430  0.1169 -0.1770
 4896TIP3    H136179   1.588   0.945  13.370 -0.2713 -1.4876 -0.7898
 4896TIP3    H236180   1.534   1.002  13.499  1.3201  0.8673 -1.0888
 4897TIP3   OH236181   1.266   5.849  14.002  0.4365  0.4040  0.9483
 4897TIP3    H136182   1.190   5.827  14.055 -0.0960  0.1606  0.1063
 4897TIP3    H236183   1.254   5.800  13.921  0.9093  1.2399  0.3497
 4898TIP3   OH236184   4.229   3.003  16.652 -0.5379 -0.7148  0.1067
 4898TIP3    H136185   4.141   3.040  16.654 -1.0429 -1.8822  0.2433
 4898TIP3    H236186   4.247   2.977  16.743  0.0723 -0.2229  0.1379
 4899TIP3   OH236187   1.264   2.178   4.415 -0.9479 -0.0702  0.3034
 4899TIP3    H136188   1.290   2.170   4.323 -0.7866  0.0467  0.3385
 4899TIP3    H236189   1.235   2.090   4.439 -0.7135 -0.1706  0.2245
 4900TIP3   OH236190   3.706   6.036   6.102  0.2172 -0.0727  0.0393
 4900TIP3    H136191   3.751   6.019   6.185 -0.3256  0.6711  0.4945
 4900TIP3    H236192   3.651   6.112   6.120  2.2373  1.9869 -1.7827
 4901TIP3   OH236193   5.080   4.066  15.410 -0.4204 -0.5093  0.0014
 4901TIP3    H136194   5.165   4.026  15.391 -0.0195 -0.2683  1.1612
 4901TIP3    H236195   5.037   4.073  15.325  0.5343 -1.0537 -0.5504
 4902TIP3   OH236196   6.066   4.335   3.029 -0.6275 -0.4083 -0.1778
 4902TIP3    H136197   6.044   4.379   2.946 -1.0993  0.3319  0.3299
 4902TIP3    H236198   6.033   4.394   3.097  0.8413 -0.4217  0.5738
 4903TIP3   OH236199   1.698   4.972   5.291  0.4446 -0.3609 -0.6562
 4903TIP3    H136200   1.646   5.047   5.261  0.1575 -0.6550 -0.9097
 4903TIP3    H236201   1.633   4.902   5.304  0.7529 -0.6697 -0.7713
 4904TIP3   OH236202   4.391   3.168  16.492 -0.1339  0.7837  0.3004
 4904TIP3    H136203   4.346   3.116  16.559 -1.1756  1.5972  0.2624
 4904TIP3    H236204   4.409   3.252  16.535  0.6615  0.7384  0.0639
 4905TIP3   OH236205   4.688   4.836   5.572 -0.3827 -0.2798  0.0660
 4905TIP3    H136206   4.769   4.830   5.622 -0.5248 -0.7682  0.2417
 4905TIP3    H236207   4.706   4.902   5.504 -0.2117  0.4349  0.7912
 4906TIP3   OH236208   3.781   6.068  12.875  0.3585  0.3658 -0.0922
 4906TIP3    H136209   3.876   6.068  12.892  0.0598 -1.0119  1.9982
 4906TIP3    H236210   3.743   6.095  12.959 -1.1183  1.3266 -1.0335
 4907TIP3   OH236211   6.412   5.968   0.721 -0.1958  0.0844 -0.6704
 4907TIP3    H136212   6.361   6.027   0.777  1.3570  0.2351  0.6232
 4907TIP3    H236213   6.442   6.024   0.649 -2.4795 -0.1875 -1.9367
 4908TIP3   OH236214   6.258   1.335   3.202 -1.2295 -0.8694 -0.4917
 4908TIP3    H136215   6.219   1.319   3.288 -0.3544  1.5841  0.4660
 4908TIP3    H236216   6.183   1.349   3.144 -1.8460  0.2097  0.5190
 4909TIP3   OH236217   5.164   3.007   0.289  0.5863  0.1357 -0.5325
 4909TIP3    H136218   5.207   3.022   0.374  0.8413 -1.0306 -0.4459
 4909TIP3    H236219   5.109   3.085   0.277 -1.3393 -0.7096  1.8644
 4910TIP3   OH236220   5.256   2.176   3.110  0.4251  0.3142 -0.5288
 4910TIP3    H136221   5.221   2.175   3.021  0.8892  1.0480 -0.7276
 4910TIP3    H236222   5.253   2.268   3.136 -0.5722 -0.0061  0.5675
 4911TIP3   OH236223   3.284   5.869   3.123  0.3084 -0.4053 -0.4426
 4911TIP3    H136224   3.269   5.930   3.050 -3.5953 -1.4678 -0.7491
 4911TIP3    H236225   3.321   5.924   3.192 -2.2985  2.2762 -0.9521
 4912TIP3   OH236226   0.646   5.993   5.009  0.9742 -0.3237  0.5049
 4912TIP3    H136227   0.704   5.917   4.997 -1.0212 -1.9602  0.6949
 4912TIP3    H236228   0.633   6.027   4.920  1.9306 -0.1414  0.4235
 4913TIP3   OH236229   2.225   2.648  12.334 -0.1341  0.0570  0.2883
 4913TIP3    H136230   2.314   2.624  12.360  0.0262  0.5265  0.1904
 4913TIP3    H236231   2.238   2.716  12.267 -0.5665  0.2054  0.3552
 4914TIP3   OH236232   5.973   2.906   1.992 -0.0408  0.1247  0.1314
 4914TIP3    H136233   5.975   2.912   2.087 -1.6679  0.7907  0.1542
 4914TIP3    H236234   6.023   2.982   1.962  0.9738 -0.4059  0.4305
 4915TIP3   OH236235   4.358   5.417   2.191 -0.8760 -0.1870  0.0340
 4915TIP3    H136236   4.317   5.460   2.266  1.4627 -0.4781  1.5875
 4915TIP3    H236237   4.405   5.343   2.228 -0.7399 -1.1729 -1.9471
 4916TIP3   OH236238   0.366   4.305   1.294 -0.1896 -0.2581  0.2323
 4916TIP3    H136239   0.284   4.334   1.254 -0.6788 -1.1863  0.5358
 4916TIP3    H236240   0.426   4.296   1.220 -0.6339 -0.4658 -0.1079
 4917TIP3   OH236241   2.210   6.100  16.787 -0.0344  0.6019  0.6573
 4917TIP3    H136242   2.290   6.091  16.735  0.1544  2.5038  0.5526
 4917TIP3    H236243   2.205   6.019  16.838  1.7703  0.2933  0.4011
 4918TIP3   OH236244   3.338   2.903  15.779  0.2881 -0.0273  0.0902
 4918TIP3    H136245   3.389   2.935  15.853  0.4141 -0.0608  0.0177
 4918TIP3    H236246   3.247   2.924  15.802  0.3234 -0.0728  0.2732
 4919TIP3   OH236247   6.461   3.500  15.567 -0.3165 -0.1332 -0.1154
 4919TIP3    H136248   6.523   3.518  15.637  0.2840 -2.0910 -0.0789
 4919TIP3    H236249   6.384   3.553  15.588 -0.7587 -1.7261  2.8764
 4920TIP3   OH236250   0.230   5.856  15.661 -0.1816  0.4828 -0.2857
 4920TIP3    H136251   0.248   5.858  15.755 -0.5690  1.4345 -0.2162
 4920TIP3    H236252   0.155   5.797  15.652 -0.5372  0.8679  0.0862
 4921TIP3   OH236253   0.242   6.333   0.441 -0.4106 -0.4891 -0.5079
 4921TIP3    H136254   0.192   6.252   0.432 -1.0131 -0.0317 -1.3648
 4921TIP3    H236255   0.181   6.402   0.415  0.1305  0.2419  0.1049
 4922TIP3   OH236256   5.178   6.471  15.296  0.2033 -0.0824  0.2454
 4922TIP3    H136257   5.086   6.446  15.292 -0.2122  1.3959  0.2326
 4922TIP3    H236258   5.178   6.566  15.292  1.8313 -0.0820 -1.7198
 4923TIP3   OH236259   6.714   0.415  15.215  0.1117 -0.0701  0.1722
 4923TIP3    H136260   6.751   0.336  15.256 -1.5446 -2.0183 -1.7844
 4923TIP3    H236261   6.668   0.460  15.286  1.1457 -0.8164  1.3615
 4924TIP3   OH236262   1.095   5.778  11.956 -0.1792 -0.7291 -0.3871
 4924TIP3    H136263   1.021   5.797  11.898 -1.3918 -2.9625  0.2973
 4924TIP3    H236264   1.115   5.686  11.940  0.7487 -0.8694  1.3212
 4925TIP3   OH236265   4.807   5.961   6.347  0.0111 -0.5514 -0.3101
 4925TIP3    H136266   4.843   6.021   6.412 -1.2285 -1.2466  1.0637
 4925TIP3    H236267   4.860   5.881   6.356 -0.9189 -1.0704  0.7124
 4926TIP3   OH236268   1.567   1.302   5.220  0.2279  0.2305 -0.4638
 4926TIP3    H136269   1.494   1.303   5.159  1.2294  0.3550 -1.7183
 4926TIP3    H236270   1.563   1.215   5.260 -1.2472  0.6400  0.3398
 4927TIP3   OH236271   3.325   3.237  11.054  0.2464  0.0771  0.3858
 4927TIP3    H136272   3.396   3.256  10.992  0.0702  1.4750  0.5646
 4927TIP3    H236273   3.254   3.297  11.028 -0.7041 -0.9612  0.5018
 4928TIP3   OH236274   2.899   5.441  16.618 -0.4610  0.4642  0.0211
 4928TIP3    H136275   2.940   5.504  16.559  2.4145  0.5831  1.9096
 4928TIP3    H236276   2.953   5.362  16.609 -1.4746 -0.3319  0.6786
 4929TIP3   OH236277   5.817   4.965  13.429 -0.0654  0.7549 -0.0955
 4929TIP3    H136278   5.795   4.874  13.446  0.2923  0.9241  1.3780
 4929TIP3    H236279   5.802   5.010  13.512  0.0307  1.9936 -0.7226
 4930TIP3   OH236280   2.406   0.385   2.267 -0.0331  0.0556 -0.0088
 4930TIP3    H136281   2.492   0.374   2.308 -0.7916 -0.1091  1.6002
 4930TIP3    H236282   2.426   0.407   2.176  1.7228  0.9006  0.5342
 4931TIP3   OH236283   0.086   3.718  12.655  0.5762  0.2599 -0.1373
 4931TIP3    H136284   0.066   3.776  12.729  0.0306  1.0852 -0.9068
 4931TIP3    H236285   0.108   3.634  12.695 -1.8249  0.0477  0.9285
 4932TIP3   OH236286   0.516   2.153  12.013  0.6218 -0.7986  0.1731
 4932TIP3    H136287   0.449   2.210  11.974  1.5873 -0.2395 -0.7070
 4932TIP3    H236288   0.510   2.170  12.107 -0.9029 -1.2406  0.1899
 4933TIP3   OH236289   5.162   6.113  12.080  0.1265  0.1849  0.3814
 4933TIP3    H136290   5.151   6.106  12.174  0.2509 -1.4778  0.3093
 4933TIP3    H236291   5.127   6.199  12.057 -0.2906  0.4328  1.8723
 4934TIP3   OH236292   2.821   4.866  15.350  0.1562  0.3893 -0.2142
 4934TIP3    H136293   2.898   4.874  15.293 -0.8630  1.3890 -1.5163
 4934TIP3    H236294   2.765   4.939  15.324 -0.6801  0.4307  1.5926
 4935TIP3   OH236295   4.123   5.785  14.829 -0.6108 -0.0516 -0.2735
 4935TIP3    H136296   4.188   5.856  14.839  0.0057 -0.5171 -0.8917
 4935TIP3    H236297   4.060   5.801  14.899  0.0231  0.5773  0.1724
 4936TIP3   OH236298   2.453   6.075  15.538  0.1185 -0.2597  0.5225
 4936TIP3    H136299   2.536   6.075  15.491 -0.5955  0.8724 -0.8082
 4936TIP3    H236300   2.430   6.168  15.546 -0.9662 -0.5540  0.9730
 4937TIP3   OH236301   4.764   1.851   5.608 -0.0839 -0.1062  0.1863
 4937TIP3    H136302   4.770   1.855   5.513  2.1913  0.7475  0.3067
 4937TIP3    H236303   4.837   1.903   5.639  0.5109 -2.0669  2.3967
 4938TIP3   OH236304   1.816   6.271  16.897  0.2991 -0.6167  0.1531
 4938TIP3    H136305   1.805   6.341  16.833 -0.8295 -0.7761  0.1591
 4938TIP3    H236306   1.911   6.255  16.899  0.3141 -1.2056 -2.1274
 4939TIP3   OH236307   4.235   3.020   0.744 -0.1815 -0.2763 -0.4896
 4939TIP3    H136308   4.285   3.088   0.790 -0.5862  0.6787 -1.4145
 4939TIP3    H236309   4.202   2.963   0.814 -0.7768  1.1266  0.4154
 4940TIP3   OH236310   3.667   2.129  16.844 -0.4618 -0.5927  0.1792
 4940TIP3    H136311   3.753   2.166  16.866 -1.1272  1.1700 -0.0266
 4940TIP3    H236312   3.684   2.074  16.767  0.3879  0.2381 -0.2496
 4941TIP3   OH236313   5.331   4.299  16.289  0.6185 -0.1335  0.1904
 4941TIP3    H136314   5.311   4.392  16.280  3.4944  0.5390 -0.3451
 4941TIP3    H236315   5.325   4.266  16.199  2.4507  0.2547 -0.1058
 4942TIP3   OH236316   1.212   2.407  13.064 -0.0426  0.6961 -0.0012
 4942TIP3    H136317   1.274   2.468  13.104  0.0063  0.0159  1.0054
 4942TIP3    H236318   1.143   2.398  13.129  1.1970 -2.2809  1.0741
 4943TIP3   OH236319   2.385   1.303  15.004 -0.6335 -0.6825  0.2277
 4943TIP3    H136320   2.371   1.218  14.963  0.9102 -0.0943 -1.6271
 4943TIP3    H236321   2.464   1.291  15.057 -0.5880 -0.4880  0.2045
 4944TIP3   OH236322   2.950   4.774  12.988  0.2495 -0.0730 -0.0992
 4944TIP3    H136323   2.908   4.829  12.922 -0.1796 -0.6404 -0.3073
 4944TIP3    H236324   2.878   4.732  13.034  0.5799 -0.8029 -0.2414
 4945TIP3   OH236325   1.291   1.472   1.616  0.3334  0.1460 -0.1574
 4945TIP3    H136326   1.313   1.412   1.687 -1.0435  0.2458  0.3680
 4945TIP3    H236327   1.325   1.429   1.537 -0.3992 -1.2016  0.2389
 4946TIP3   OH236328   2.097   6.660  11.575  0.5936  0.0430  0.2181
 4946TIP3    H136329   2.084   6.681  11.482 -0.0808  1.8627  0.6867
 4946TIP3    H236330   2.068   6.569  11.583 -2.4104  0.7780 -0.7790
 4947TIP3   OH236331   6.755   4.336   2.778  0.2891  0.6604 -0.2631
 4947TIP3    H136332   6.752   4.242   2.764 -0.6676  0.5383  0.6454
 4947TIP3    H236333   6.847   4.355   2.798  0.4828 -0.0762 -0.4545
 4948TIP3   OH236334   0.964   3.900   5.171 -0.1553 -0.3838 -0.2246
 4948TIP3    H136335   1.009   3.961   5.112  0.3235 -0.3376  0.1737
 4948TIP3    H236336   0.922   3.956   5.236  1.9174 -0.4753  1.3119
 4949TIP3   OH236337   5.302   4.660   0.518  0.6407  0.1733  0.7737
 4949TIP3    H136338   5.217   4.656   0.564  0.0786  0.3396 -0.2233
 4949TIP3    H236339   5.316   4.571   0.487 -0.6283  0.6910 -1.5633
 4950TIP3   OH236340   3.066   5.924  16.243  0.0591  0.1702  0.1880
 4950TIP3    H136341   3.062   6.010  16.201  0.8622  0.1552  0.0668
 4950TIP3    H236342   2.988   5.921  16.299 -0.4828  0.5905 -0.5241
 4951TIP3   OH236343   6.314   5.278   5.067  0.2743  0.4905 -0.0868
 4951TIP3    H136344   6.238   5.228   5.098 -0.3278  2.2899  1.5275
 4951TIP3    H236345   6.276   5.351   5.018  0.9212  1.4654  0.8239
 4952TIP3   OH236346   4.986   0.960   0.344  0.7322 -0.1317  0.2779
 4952TIP3    H136347   4.936   1.019   0.401  1.6379 -0.3087  1.2932
 4952TIP3    H236348   4.948   0.874   0.360 -0.4248  0.0995 -1.0182
 4953TIP3   OH236349   3.462   4.885  15.114  0.1711  0.7214 -0.1702
 4953TIP3    H136350   3.479   4.793  15.095 -0.6253  0.5424 -0.0676
 4953TIP3    H236351   3.400   4.883  15.186  0.7010  1.3552  0.3100
 4954TIP3   OH236352   3.807   2.889   1.939  0.1916  0.3787  0.8022
 4954TIP3    H136353   3.727   2.939   1.955 -0.9174 -0.7409 -0.8995
 4954TIP3    H236354   3.791   2.804   1.980  0.9066  0.4362  1.2273
 4955TIP3   OH236355   2.114   5.087   1.597 -0.1957  0.3852 -0.3759
 4955TIP3    H136356   2.041   5.025   1.604  0.6570 -0.7748 -1.2779
 4955TIP3    H236357   2.170   5.067   1.671 -0.5452  0.9510  0.0461
 4956TIP3   OH236358   4.461   3.589  12.440  0.7224 -0.2776  0.5553
 4956TIP3    H136359   4.394   3.588  12.509  2.0700  2.6984  2.1138
 4956TIP3    H236360   4.443   3.668  12.390  2.5808  0.2111  0.5782
 4957TIP3   OH236361   6.223   1.599   3.400  0.3698 -0.1252  0.2460
 4957TIP3    H136362   6.318   1.611   3.399  0.4924 -0.5930  2.3005
 4957TIP3    H236363   6.210   1.517   3.447 -0.9541 -1.9911 -3.0821
 4958TIP3   OH236364   3.980   4.432  10.898 -0.4015  0.1083  0.7264
 4958TIP3    H136365   3.936   4.490  10.835 -1.4573 -0.3781  0.9919
 4958TIP3    H236366   4.063   4.410  10.856 -0.5550  0.7893  0.0495
 4959TIP3   OH236367   3.526   4.029   0.382 -0.1421  0.4374 -0.2184
 4959TIP3    H136368   3.603   3.996   0.429  1.0921  2.1921 -0.8532
 4959TIP3    H236369   3.553   4.117   0.353 -2.5873  1.3050 -0.0369
 4960TIP3   OH236370   6.379   0.911   4.144 -0.1020 -0.3184  0.1111
 4960TIP3    H136371   6.300   0.935   4.192 -0.4470  0.2296 -0.6953
 4960TIP3    H236372   6.351   0.842   4.084  0.2942 -0.9141  0.6115
 4961TIP3   OH236373   0.314   5.470  11.375 -0.3355 -0.4515  0.2714
 4961TIP3    H136374   0.264   5.443  11.297 -0.4266  0.0861  0.1394
 4961TIP3    H236375   0.263   5.543  11.411  0.5616  0.3900 -0.1030
 4962TIP3   OH236376   6.815   2.703  11.816 -0.6070 -0.3240 -0.4513
 4962TIP3    H136377   6.768   2.745  11.744  0.2081 -0.8901 -1.3439
 4962TIP3    H236378   6.905   2.734  11.807 -0.6590  0.2754  0.8629
 4963TIP3   OH236379   1.263   3.545   5.506  0.1013 -0.5964 -0.4996
 4963TIP3    H136380   1.241   3.593   5.586 -3.1880 -2.5456 -0.0328
 4963TIP3    H236381   1.335   3.487   5.532  0.5046  0.2873  0.4214
 4964TIP3   OH236382   2.104   5.715  11.063 -1.2813  0.3854 -0.6104
 4964TIP3    H136383   2.150   5.799  11.066 -1.5019  0.4947  0.1913
 4964TIP3    H236384   2.170   5.651  11.090 -1.8278  0.6774  1.6568
 4965TIP3   OH236385   5.595   4.192  11.310  0.3643  0.1784  0.3934
 4965TIP3    H136386   5.561   4.226  11.228 -2.9353  0.6067  1.7765
 4965TIP3    H236387   5.588   4.266  11.371  0.2597 -0.8392  1.6587
 4966TIP3   OH236388   0.161   1.352  12.569 -0.0261 -0.5188 -0.0232
 4966TIP3    H136389   0.110   1.350  12.488  0.8937 -0.0353 -0.6235
 4966TIP3    H236390   0.252   1.348  12.540  0.2982 -1.0085  1.0225
 4967TIP3   OH236391   1.871   3.083  13.605 -0.5109 -0.3797 -0.0728
 4967TIP3    H136392   1.896   2.992  13.622  1.2727  0.2959  1.2321
 4967TIP3    H236393   1.799   3.100  13.666  0.1906 -0.4716  0.7878
 4968TIP3   OH236394   4.071   4.618   3.302  0.8445 -0.3669  0.7396
 4968TIP3    H136395   4.154   4.571   3.294  0.9674 -0.1619  0.8029
 4968TIP3    H236396   4.087   4.702   3.260 -0.1313 -1.3021 -1.6427
 4969TIP3   OH236397   4.236   1.179  11.383  0.6575 -0.4286 -0.3682
 4969TIP3    H136398   4.288   1.257  11.399  0.6517 -0.4905 -0.0498
 4969TIP3    H236399   4.183   1.168  11.462 -1.2583  0.7449 -1.4198
 4970TIP3   OH236400   4.358   4.491  13.987 -0.3328 -0.1919 -0.4174
 4970TIP3    H136401   4.386   4.556  14.052 -0.9782 -0.8671  0.5501
 4970TIP3    H236402   4.269   4.467  14.013 -1.2070  0.6064 -2.4074
 4971TIP3   OH236403   6.309   4.363  12.989 -0.1195 -0.4267  0.3955
 4971TIP3    H136404   6.343   4.451  12.969 -0.6090  0.1188  1.8286
 4971TIP3    H236405   6.378   4.323  13.042 -0.6168 -0.2437  1.2014
 4972TIP3   OH236406   5.956   4.368  12.922  0.3569 -0.2700  0.1928
 4972TIP3    H136407   5.942   4.451  12.876 -0.9020  0.3944  1.6564
 4972TIP3    H236408   5.909   4.303  12.869 -2.1391  0.6849  1.0736
 4973TIP3   OH236409   1.975   2.025  15.169 -0.5857 -0.3228  0.0332
 4973TIP3    H136410   1.954   1.932  15.155 -2.4736 -0.5307  3.3060
 4973TIP3    H236411   1.992   2.032  15.263  1.0814  2.4331 -0.3638
 4974TIP3   OH236412   2.426   2.630  12.761  0.1101  0.2093  0.0394
 4974TIP3    H136413   2.442   2.714  12.803  0.3626  0.0915  0.1832
 4974TIP3    H236414   2.431   2.648  12.667 -3.2154  1.0366 -0.0749
 4975TIP3   OH236415   6.152   5.758  15.364 -0.0659 -0.8551 -0.6503
 4975TIP3    H136416   6.165   5.759  15.459 -0.3300 -1.2899 -0.6081
 4975TIP3    H236417   6.081   5.695  15.350 -0.6708 -0.0911 -1.0606
 4976TIP3   OH236418   6.314   2.369  16.539  0.0938 -0.3974 -0.0675
 4976TIP3    H136419   6.320   2.285  16.585  1.1180  0.9131  2.3811
 4976TIP3    H236420   6.393   2.416  16.565 -0.1749  1.1407 -1.8251
 4977TIP3   OH236421   5.494   5.659   1.048 -0.1173 -0.3084  0.6956
 4977TIP3    H136422   5.430   5.672   1.118 -0.7166 -0.1394  0.1274
 4977TIP3    H236423   5.500   5.744   1.004  0.9298 -0.1586  1.0895
 4978TIP3   OH236424   5.038   1.906  15.822 -0.0845 -0.3910 -0.1238
 4978TIP3    H136425   5.114   1.961  15.806  0.9773 -1.3436  1.3545
 4978TIP3    H236426   5.012   1.926  15.912 -3.0917  1.6151 -1.2975
 4979TIP3   OH236427   1.590   1.524  16.250 -0.4073 -0.1763 -0.1354
 4979TIP3    H136428   1.600   1.470  16.329  1.3564  0.2664 -0.0087
 4979TIP3    H236429   1.653   1.489  16.188 -0.2880  0.7874 -0.5852
 4980TIP3   OH236430   6.801   3.301   3.804  0.1814  0.3670 -0.7592
 4980TIP3    H136431   6.739   3.233   3.779  0.3191 -0.1785  0.3101
 4980TIP3    H236432   6.765   3.337   3.885  1.4016 -0.1956  0.0742
 4981TIP3   OH236433   1.026   1.707   0.853 -0.5164  0.6632  1.1158
 4981TIP3    H136434   0.945   1.693   0.902 -0.1794 -0.9194  1.2543
 4981TIP3    H236435   1.043   1.801   0.863 -1.3405  0.6926  2.6401
 4982TIP3   OH236436   1.635   6.566   3.779  0.4876 -0.3004 -0.5365
 4982TIP3    H136437   1.546   6.575   3.744 -0.4447  0.4897  1.8287
 4982TIP3    H236438   1.682   6.642   3.744 -0.0353 -0.1846 -1.0064
 4983TIP3   OH236439   6.642   6.018  16.593  0.0034 -0.0195 -0.1045
 4983TIP3    H136440   6.618   6.018  16.501 -0.2629  0.7786 -0.0399
 4983TIP3    H236441   6.560   6.037  16.639  0.4150  1.0428  0.2096
 4984TIP3   OH236442   3.605   1.799   2.365 -0.1309 -0.1475  0.0946
 4984TIP3    H136443   3.530   1.778   2.310  1.1588  0.3535 -1.9658
 4984TIP3    H236444   3.679   1.754   2.323  0.5956 -1.5826  2.6991
 4985TIP3   OH236445   4.701   3.183  11.398 -0.3077  0.7267 -0.1852
 4985TIP3    H136446   4.688   3.099  11.441  1.2895  2.0685  3.2844
 4985TIP3    H236447   4.778   3.170  11.342 -0.1227 -0.1405  0.2598
 4986TIP3   OH236448   0.796   3.522  13.139  0.0412 -0.3677 -0.1901
 4986TIP3    H136449   0.712   3.562  13.162 -0.2407 -1.4268  0.7724
 4986TIP3    H236450   0.775   3.429  13.130  1.1946 -0.7321  0.6187
 4987TIP3   OH236451   5.660   6.241   5.437  0.0574 -0.2451 -0.3633
 4987TIP3    H136452   5.684   6.274   5.351  3.0382 -0.9599  0.0843
 4987TIP3    H236453   5.733   6.186   5.463 -2.2848 -2.8938  1.2058
 4988TIP3   OH236454   6.078   2.533   3.627 -0.0949 -0.1270 -0.0653
 4988TIP3    H136455   6.152   2.537   3.567  0.3554  1.8950  0.5576
 4988TIP3    H236456   6.114   2.496   3.707  0.2713  0.8283  0.2274
 4989TIP3   OH236457   5.819   4.528   1.491  0.0183  0.2689  0.2116
 4989TIP3    H136458   5.789   4.452   1.541 -0.2949  0.0499 -0.3012
 4989TIP3    H236459   5.764   4.600   1.521 -1.3027 -0.1968 -0.9618
 4990TIP3   OH236460   3.674   4.941  13.819 -0.0140  0.3097 -0.1385
 4990TIP3    H136461   3.747   4.986  13.861  0.2784 -1.9280  1.9433
 4990TIP3    H236462   3.604   4.942  13.883 -0.2950 -1.3654 -0.3722
 4991TIP3   OH236463   2.265   0.966  16.246 -0.0749  0.2685  0.1269
 4991TIP3    H136464   2.234   0.876  16.239  0.3402  0.1894 -0.7518
 4991TIP3    H236465   2.186   1.017  16.264 -0.5119 -0.1050 -0.7022
 4992TIP3   OH236466   3.640   2.599   6.316 -0.0015 -0.3384 -0.2728
 4992TIP3    H136467   3.702   2.658   6.274  0.8561 -0.1482  1.1806
 4992TIP3    H236468   3.597   2.653   6.383 -1.0705 -0.7157 -0.6358
 4993TIP3   OH236469   1.306   0.505   0.374 -0.5948  0.0794 -0.1266
 4993TIP3    H136470   1.363   0.433   0.344 -1.1569 -0.6503  0.5037
 4993TIP3    H236471   1.231   0.502   0.315  1.1218  2.7577 -2.7143
 4994TIP3   OH236472   4.275   0.942   5.049  0.4504 -0.0362 -0.0654
 4994TIP3    H136473   4.240   0.853   5.038  1.1011 -0.0931 -2.0011
 4994TIP3    H236474   4.246   0.989   4.971  0.1412  1.4632  0.9225
 4995TIP3   OH236475   6.737   1.868   2.056  0.3315 -0.0197 -0.1584
 4995TIP3    H136476   6.802   1.932   2.026  0.7193 -0.0427  0.6186
 4995TIP3    H236477   6.661   1.883   1.999  0.5217  0.9291 -0.1794
 4996TIP3   OH236478   1.266   6.666   1.936  0.2474  0.0439  0.0708
 4996TIP3    H136479   1.353   6.671   1.974 -0.3656  0.8520  1.4698
 4996TIP3    H236480   1.216   6.733   1.983 -0.5730  1.1313 -2.1979
 4997TIP3   OH236481   4.822   1.406   4.204  0.5892 -0.0110  0.2989
 4997TIP3    H136482   4.822   1.502   4.194 -1.1049 -0.0301 -0.2046
 4997TIP3    H236483   4.908   1.379   4.171 -0.3215  1.0361 -3.4467
 4998TIP3   OH236484   4.775   0.492  15.208  0.3581  0.1910 -0.0940
 4998TIP3    H136485   4.745   0.431  15.141  1.0448 -1.3890  0.9748
 4998TIP3    H236486   4.810   0.566  15.159  0.8852 -0.9338 -1.4935
 4999TIP3   OH236487   0.944   3.545  13.364  0.5337  0.1298 -0.1084
 4999TIP3    H136488   0.891   3.553  13.285  0.6972 -1.5979 -0.4377
 4999TIP3    H236489   1.004   3.473  13.345 -0.9819 -1.9688  2.3866
 5000TIP3   OH236490   4.423   1.491   4.795  0.7447  0.4935 -0.2779
 5000TIP3    H136491   4.456   1.480   4.884  0.0824 -1.5022 -0.2320
 5000TIP3    H236492   4.488   1.450   4.739  0.8634  1.2032 -0.6791
 5001TIP3   OH236493   1.317   0.453   5.258 -0.2610 -0.0848  0.1343
 5001TIP3    H136494   1.367   0.449   5.176  0.0862  1.7015  0.2038
 5001TIP3    H236495   1.248   0.517   5.240  0.5066  1.2025  1.5627
 5002TIP3   OH236496   5.025   3.634   5.961 -0.6102 -0.4435 -0.3071
 5002TIP3    H136497   5.073   3.590   6.030 -1.1564 -1.1106 -0.3420
 5002TIP3    H236498   5.032   3.576   5.886 -0.3055  0.1175 -0.7212
 5003TIP3   OH236499   0.933   2.441   2.170  0.3450 -0.1322 -0.0138
 5003TIP3    H136500   0.842   2.446   2.140  0.2391 -2.2119 -0.1884
 5003TIP3    H236501   0.984   2.447   2.089  0.3836  0.9833  0.0793
 5004TIP3   OH236502   1.778   3.424   5.770  0.2262  0.2259  0.2348
 5004TIP3    H136503   1.769   3.395   5.680 -1.5615 -0.2407  0.5292
 5004TIP3    H236504   1.747   3.514   5.771  1.7303  0.7749  0.1229
 5005TIP3   OH236505   1.601   2.486  15.977  0.6134  0.1018 -0.0990
 5005TIP3    H136506   1.547   2.563  15.963 -0.6902 -0.3108  2.0808
 5005TIP3    H236507   1.626   2.491  16.070 -0.3639 -2.5400  0.3983
 5006TIP3   OH236508   3.686   2.479  17.033 -0.2967 -0.1658 -0.3564
 5006TIP3    H136509   3.606   2.468  16.982 -0.5447  0.5042 -0.1312
 5006TIP3    H236510   3.756   2.461  16.971 -0.5997  0.5250 -0.9224
 5007TIP3   OH236511   6.517   0.997  14.856  0.5705  0.4418  0.2227
 5007TIP3    H136512   6.607   0.967  14.839  0.1419  0.0564 -1.5934
 5007TIP3    H236513   6.511   1.082  14.812  0.1690  0.6514  0.6802
 5008TIP3   OH236514   4.055   3.990   6.032 -0.3736 -0.2096 -0.1566
 5008TIP3    H136515   4.008   4.011   5.951  0.9724 -1.3684 -1.2919
 5008TIP3    H236516   4.147   3.997   6.009  0.0599  1.6177  1.9259
 5009TIP3   OH236517   1.149   2.442  15.763 -0.3035 -0.3584 -0.3445
 5009TIP3    H136518   1.117   2.513  15.817  1.2215  1.4210 -1.6548
 5009TIP3    H236519   1.080   2.427  15.699 -0.2042  0.6921 -0.7125
 5010TIP3   OH236520   3.625   4.348  15.667 -0.0751  0.2976 -0.2756
 5010TIP3    H136521   3.674   4.298  15.602 -0.6373  0.8328 -1.1387
 5010TIP3    H236522   3.543   4.371  15.623 -0.1158  1.3874  0.3215
 5011TIP3   OH236523   3.648   0.604   2.578 -0.5738  0.1459  0.5051
 5011TIP3    H136524   3.693   0.573   2.657  0.3859  1.4047  0.4862
 5011TIP3    H236525   3.640   0.526   2.523 -0.8638 -0.6582  1.6577
 5012TIP3   OH236526   5.763   4.876  12.934  0.2686 -0.6555  0.6083
 5012TIP3    H136527   5.755   4.932  12.856  0.7746 -1.3089  0.0788
 5012TIP3    H236528   5.774   4.938  13.006 -1.2147 -0.0059  0.3096
 5013TIP3   OH236529   4.920   4.647  16.663 -0.3074 -0.6013 -0.3478
 5013TIP3    H136530   4.858   4.580  16.635  0.6308 -1.4421 -0.4507
 5013TIP3    H236531   4.901   4.660  16.756  0.6286 -2.2923  0.1248
 5014TIP3   OH236532   2.723   4.891  13.876 -0.5359 -0.0148 -0.0102
 5014TIP3    H136533   2.631   4.890  13.851 -0.1949 -0.1657 -1.3662
 5014TIP3    H236534   2.726   4.846  13.961 -1.7914  0.6928  0.4202
 5015TIP3   OH236535   4.116   2.941  12.524 -0.2565  0.2149 -0.5581
 5015TIP3    H136536   4.072   3.004  12.467 -0.7836  1.9273  1.6055
 5015TIP3    H236537   4.209   2.958  12.512 -0.3940  2.7241  1.2384
 5016TIP3   OH236538   4.870   6.148   5.085 -0.4583 -0.5064  0.8973
 5016TIP3    H136539   4.834   6.168   4.999 -2.1248 -2.2753  1.1321
 5016TIP3    H236540   4.960   6.119   5.068  0.2624  1.9154  0.0999
 5017TIP3   OH236541   5.495   1.597  12.576  0.2897  0.4486 -0.1121
 5017TIP3    H136542   5.533   1.642  12.652 -1.3307  0.7991  0.5240
 5017TIP3    H236543   5.510   1.504  12.594  0.8925  0.5784  0.0897
 5018TIP3   OH236544   2.518   6.325   2.713  0.1789  0.1105 -0.3230
 5018TIP3    H136545   2.516   6.419   2.732  1.0352 -0.0026  0.3826
 5018TIP3    H236546   2.482   6.284   2.791  1.9328 -0.2531  0.3461
 5019TIP3   OH236547   6.538   4.710  13.956  0.3216  0.0489 -0.0357
 5019TIP3    H136548   6.451   4.675  13.940  1.1499 -1.4115 -1.6828
 5019TIP3    H236549   6.578   4.649  14.018 -0.0488  1.1240  1.2946
 5020TIP3   OH236550   3.990   0.458  14.653  0.1590 -0.3324 -0.0196
 5020TIP3    H136551   4.057   0.391  14.646  0.4312  0.0487 -1.6555
 5020TIP3    H236552   3.910   0.416  14.621 -0.1827 -0.5101  1.0397
 5021TIP3   OH236553   5.449   1.400  13.586 -0.4017  0.0053 -0.3644
 5021TIP3    H136554   5.488   1.428  13.504 -0.0674 -1.8068 -0.8849
 5021TIP3    H236555   5.366   1.447  13.591 -0.7137 -0.3017 -2.0745
 5022TIP3   OH236556   0.429   5.296   3.933  0.3891  0.2316  0.1813
 5022TIP3    H136557   0.487   5.337   3.997  2.5342  0.8414 -2.0032
 5022TIP3    H236558   0.477   5.218   3.904  1.4882  2.0600 -3.4929
 5023TIP3   OH236559   0.859   0.629  15.855 -0.2804  0.4792  0.1153
 5023TIP3    H136560   0.785   0.687  15.873 -0.1163  0.2019  1.8158
 5023TIP3    H236561   0.820   0.543  15.839 -0.3257  0.2177  1.5350
 5024TIP3   OH236562   1.785   6.038  12.599 -0.3461 -0.3185 -0.3197
 5024TIP3    H136563   1.695   6.042  12.633 -0.0054  1.3887  0.5071
 5024TIP3    H236564   1.833   5.988  12.664 -0.7600 -1.6315 -0.9888
 5025TIP3   OH236565   2.851   2.902  12.489 -0.7695  0.1271 -0.2172
 5025TIP3    H136566   2.887   2.859  12.567 -0.4038  0.8428  0.0152
 5025TIP3    H236567   2.887   2.851  12.416  0.1367  0.3798  0.0346
 5026TIP3   OH236568   0.581   0.310   2.677 -0.1148 -0.0846  0.1428
 5026TIP3    H136569   0.492   0.316   2.711 -0.6071 -0.7282 -0.9829
 5026TIP3    H236570   0.605   0.401   2.657 -0.5188  0.0885  0.4347
 5027TIP3   OH236571   0.695   3.104  14.518 -0.4468  0.3297 -0.0428
 5027TIP3    H136572   0.785   3.132  14.500  0.9901 -2.0157  2.7683
 5027TIP3    H236573   0.656   3.090  14.431  2.2508  0.3309 -1.3461
 5028TIP3   OH236574   3.016   4.130   3.581 -0.4442  0.1480 -0.3244
 5028TIP3    H136575   3.039   4.154   3.670 -1.8206  2.2817 -0.4650
 5028TIP3    H236576   3.067   4.190   3.526  1.5320 -2.1025 -1.1397
 5029TIP3   OH236577   4.065   4.521  12.484  0.2197 -0.6281  0.1076
 5029TIP3    H136578   3.976   4.553  12.498  0.3824 -0.6810  1.3859
 5029TIP3    H236579   4.121   4.586  12.527  0.7919 -0.6926 -0.5228
 5030TIP3   OH236580   4.797   4.286  16.859 -0.1354  1.0921 -0.0543
 5030TIP3    H136581   4.815   4.199  16.824  1.4830  0.5871  1.8302
 5030TIP3    H236582   4.882   4.330  16.860 -0.3025  1.4982  1.9583
 5031TIP3   OH236583   1.571   3.337  16.326  0.3426 -0.2530 -0.4754
 5031TIP3    H136584   1.522   3.297  16.255  0.2893  1.3351 -1.3817
 5031TIP3    H236585   1.628   3.401  16.283  1.1259 -0.0498  0.8083
 5032TIP3   OH236586   5.574   2.809  15.482  0.0649  0.1797  0.0341
 5032TIP3    H136587   5.664   2.809  15.514 -0.5191 -0.7777  1.8144
 5032TIP3    H236588   5.558   2.719  15.454 -0.3709  0.3251 -0.1918
 5033TIP3   OH236589   1.557   2.422   6.504 -0.0839  0.5209  0.4542
 5033TIP3    H136590   1.489   2.381   6.450  0.2802 -0.0424  0.4201
 5033TIP3    H236591   1.538   2.390   6.593  0.4447 -0.0546  0.3651
 5034TIP3   OH236592   2.933   1.317  14.424 -0.1768 -0.3715 -0.9183
 5034TIP3    H136593   2.870   1.376  14.382 -2.2380 -1.6673  0.1395
 5034TIP3    H236594   2.925   1.336  14.517 -2.2105 -3.3072 -0.3330
 5035TIP3   OH236595   4.230   4.994   4.920  0.0619  0.3005  0.1017
 5035TIP3    H136596   4.199   4.935   4.851 -0.9527  0.8545  0.0635
 5035TIP3    H236597   4.313   4.955   4.949 -0.0193 -0.5137 -0.7006
 5036TIP3   OH236598   1.133   2.678  14.880  0.7560  0.3699 -0.5591
 5036TIP3    H136599   1.146   2.752  14.939 -0.6055  0.3594 -0.2044
 5036TIP3    H236600   1.067   2.708  14.817  0.9415 -0.1960 -1.0364
 5037TIP3   OH236601   0.759   2.528  11.727  0.2672  0.2226  0.0953
 5037TIP3    H136602   0.730   2.617  11.745 -1.6183  0.1468 -2.1289
 5037TIP3    H236603   0.764   2.486  11.813 -0.6334  1.9339  1.0166
 5038TIP3   OH236604   1.930   4.700   3.729 -0.9466  0.7275  0.1984
 5038TIP3    H136605   1.936   4.622   3.673 -0.9088  0.9399 -0.0933
 5038TIP3    H236606   1.881   4.764   3.677 -2.5626  0.3035  1.1029
 5039TIP3   OH236607   5.657   3.518  15.757  0.4762  0.0073 -0.0712
 5039TIP3    H136608   5.563   3.502  15.747  0.4638  0.5645 -0.9154
 5039TIP3    H236609   5.665   3.613  15.758  1.0852 -0.0338 -0.5641
 5040TIP3   OH236610   1.683   0.984   4.677 -0.3510 -0.2109  0.0398
 5040TIP3    H136611   1.598   0.994   4.634 -0.7945  0.8446  1.1159
 5040TIP3    H236612   1.671   0.907   4.734 -1.3434  1.1764  1.8175
 5041TIP3   OH236613   3.128   4.831  11.846  0.0932 -0.3372  0.4300
 5041TIP3    H136614   3.201   4.863  11.898  0.6525  1.1732 -1.1844
 5041TIP3    H236615   3.138   4.874  11.761 -2.7499  0.0299  0.1788
 5042TIP3   OH236616   0.380   5.992  11.124  0.1723 -0.0340  0.1210
 5042TIP3    H136617   0.358   5.900  11.141 -0.1959  0.2981  1.5971
 5042TIP3    H236618   0.345   6.009  11.036 -1.8207 -0.6978  0.7209
 5043TIP3   OH236619   5.364   4.990   5.910  0.2068  0.0643  0.1507
 5043TIP3    H136620   5.378   5.018   5.820 -1.0949 -0.4656 -0.2369
 5043TIP3    H236621   5.394   5.064   5.963  1.8964  0.0111 -0.6433
 5044TIP3   OH236622   3.586   5.978  15.232  0.0891 -0.2888  0.1609
 5044TIP3    H136623   3.639   5.942  15.303 -1.1945  0.4243  1.5425
 5044TIP3    H236624   3.504   5.929  15.236  0.5299 -1.2998 -1.8740
 5045TIP3   OH236625   2.553   1.920  10.850 -0.7875  0.3590 -0.1827
 5045TIP3    H136626   2.610   1.843  10.841  1.4209  2.0325 -1.2225
 5045TIP3    H236627   2.524   1.938  10.761 -3.8835 -1.0057  0.4105
 5046TIP3   OH236628   0.541   4.640  17.005 -0.4795 -0.1833 -0.1638
 5046TIP3    H136629   0.448   4.626  17.020 -0.2932 -1.5396 -0.1044
 5046TIP3    H236630   0.574   4.676  17.088 -1.3175  2.5554 -0.9177
 5047TIP3   OH236631   0.365   4.233   4.954  0.2741  0.5578 -0.0983
 5047TIP3    H136632   0.376   4.301   5.021  1.1226  0.7678 -0.4436
 5047TIP3    H236633   0.335   4.280   4.876 -1.0427  0.2694  0.2074
 5048TIP3   OH236634   1.907   0.070   3.639  0.2355  0.6190  0.2594
 5048TIP3    H136635   1.893   0.107   3.552  1.2679 -0.2930 -0.3150
 5048TIP3    H236636   1.890   0.143   3.699 -0.5380  1.2423 -0.6912
 5049TIP3   OH236637   5.893   3.127   0.676 -0.1678 -0.1435 -0.2708
 5049TIP3    H136638   5.805   3.119   0.641 -1.2232 -0.0330  2.1775
 5049TIP3    H236639   5.898   3.062   0.746  0.2938  2.3663  2.2059
 5050TIP3   OH236640   6.808   3.668   0.522 -0.2657  0.3432  0.1179
 5050TIP3    H136641   6.721   3.629   0.521 -1.3456  2.6065 -0.1907
 5050TIP3    H236642   6.868   3.594   0.531 -2.1264 -1.3853 -1.1242
 5051TIP3   OH236643   4.843   0.535  17.135 -0.0022 -0.1408 -0.3017
 5051TIP3    H136644   4.829   0.440  17.139  1.1451 -0.3920 -1.4646
 5051TIP3    H236645   4.795   0.563  17.057 -1.2683  0.4432  0.6602
 5052TIP3   OH236646   1.057   4.166   1.366 -0.6096 -0.6135 -0.5542
 5052TIP3    H136647   1.146   4.174   1.333 -0.4732  1.2180  0.1639
 5052TIP3    H236648   1.059   4.087   1.420  1.3682  0.8387  1.6919
 5053TIP3   OH236649   1.481   3.228  13.583  0.1900  0.1887  0.3665
 5053TIP3    H136650   1.475   3.280  13.503  0.2109  0.7300  0.7090
 5053TIP3    H236651   1.392   3.200  13.600  0.6319 -3.0490 -1.8363
 5054TIP3   OH236652   4.145   4.115  15.034 -0.5147 -0.0749 -0.9041
 5054TIP3    H136653   4.230   4.128  15.075 -0.3822  0.9197 -1.4632
 5054TIP3    H236654   4.156   4.037  14.980  0.3968  0.6587 -1.8269
 5055TIP3   OH236655   4.282   2.721  11.862 -0.1681  0.0258  0.4211
 5055TIP3    H136656   4.230   2.663  11.917  1.0660 -0.0153  1.6194
 5055TIP3    H236657   4.369   2.720  11.902 -0.5978  4.6460  2.1430
 5056TIP3   OH236658   1.498   6.449  15.705  0.0453  0.4252 -0.2970
 5056TIP3    H136659   1.592   6.454  15.688 -0.1475  0.0273 -1.5342
 5056TIP3    H236660   1.487   6.365  15.751 -0.0134 -0.8762 -2.5431
 5057TIP3   OH236661   5.871   5.599  15.978  0.4586 -0.4715 -0.3076
 5057TIP3    H136662   5.935   5.657  16.018 -1.2101 -0.2301  2.2393
 5057TIP3    H236663   5.917   5.558  15.904  3.1329  0.5168  0.7288
 5058TIP3   OH236664   6.582   0.051   1.900  0.3921 -0.5556 -0.5124
 5058TIP3    H136665   6.492   0.065   1.873  0.5662  0.0536 -0.8053
 5058TIP3    H236666   6.576   0.010   1.986 -0.1606 -0.1928 -0.3790
 5059TIP3   OH236667   3.080   5.190  16.990 -0.5315  0.2555  0.0612
 5059TIP3    H136668   3.049   5.241  17.065  0.4073  0.2529  0.4733
 5059TIP3    H236669   3.087   5.100  17.023  0.1717  0.3064  0.0731
 5060TIP3   OH236670   3.416   3.743  12.113  0.0646 -0.4880  0.6483
 5060TIP3    H136671   3.459   3.661  12.088 -1.4743 -1.0649 -0.1873
 5060TIP3    H236672   3.349   3.717  12.175 -0.4523  0.1297  0.3590
 5061TIP3   OH236673   4.668   1.869   4.808  0.0920 -0.7988 -0.4411
 5061TIP3    H136674   4.743   1.810   4.810  1.4656  0.7780 -2.1563
 5061TIP3    H236675   4.658   1.898   4.898  1.2084 -1.4448 -0.0903
 5062TIP3   OH236676   3.564   0.172   5.927 -0.3685 -0.5592  0.0755
 5062TIP3    H136677   3.651   0.135   5.943 -1.2935 -1.9385  2.4816
 5062TIP3    H236678   3.504   0.101   5.948 -2.1737  1.4518  2.3913
 5063TIP3   OH236679   5.080   3.288   0.691  0.3443  0.2396 -0.0965
 5063TIP3    H136680   4.997   3.243   0.678  1.2059 -1.8377  1.1687
 5063TIP3    H236681   5.061   3.354   0.758 -0.2140 -0.5274  0.5238
 5064TIP3   OH236682   5.293   4.195  16.018  0.3842 -0.7569  0.1958
 5064TIP3    H136683   5.365   4.135  16.000  1.3775  0.8319 -1.3702
 5064TIP3    H236684   5.276   4.239  15.934 -1.2230  0.1810  0.9584
 5065TIP3   OH236685   3.693   2.501   1.749 -0.3461 -0.3162 -0.5888
 5065TIP3    H136686   3.720   2.491   1.840 -1.1987 -0.5148 -0.3558
 5065TIP3    H236687   3.721   2.589   1.725  0.0382 -0.3298 -0.1977
 5066TIP3   OH236688   5.399   6.252   2.658 -0.1442 -0.7438 -0.7074
 5066TIP3    H136689   5.389   6.178   2.718  0.0026 -1.0629 -1.0763
 5066TIP3    H236690   5.449   6.218   2.585  0.6147 -0.0666 -0.5164
 5067TIP3   OH236691   5.701   0.980   5.023 -0.2641  0.1720  0.1621
 5067TIP3    H136692   5.744   1.065   5.014  1.6626 -0.7139  0.5064
 5067TIP3    H236693   5.769   0.922   5.057 -1.7942 -1.2966  0.8760
 5068TIP3   OH236694   0.488   5.838   5.212 -0.4814 -0.2091 -0.1154
 5068TIP3    H136695   0.536   5.875   5.138 -0.9897  0.4298 -0.1303
 5068TIP3    H236696   0.556   5.814   5.275 -0.1847  2.7261  0.8191
 5069TIP3   OH236697   0.156   5.430   2.291  0.0089 -0.0390  0.1485
 5069TIP3    H136698   0.104   5.367   2.241  1.2068  0.1246 -1.3855
 5069TIP3    H236699   0.117   5.515   2.271 -0.2236 -0.0709  0.4458
 5070TIP3   OH236700   4.873   5.544  12.873  0.6325  0.3981  0.0312
 5070TIP3    H136701   4.909   5.483  12.937 -0.4008  0.6038  0.8486
 5070TIP3    H236702   4.792   5.577  12.914 -0.2003  0.3464 -1.4926
 5071TIP3   OH236703   4.327   3.973  13.859 -0.0848  0.1243  0.0095
 5071TIP3    H136704   4.353   3.925  13.780 -2.2548 -0.6465 -0.3199
 5071TIP3    H236705   4.243   4.012  13.836  0.2116  1.6151  1.2939
 5072TIP3   OH236706   0.878   0.259   0.642 -0.4769 -0.3804  0.2139
 5072TIP3    H136707   0.904   0.294   0.728  1.0146 -0.5456 -0.1525
 5072TIP3    H236708   0.955   0.269   0.587 -1.4881 -0.0603 -1.2088
 5073TIP3   OH236709   3.190   0.275   3.949 -0.0656 -0.1436 -0.6814
 5073TIP3    H136710   3.139   0.339   3.998  3.5357  0.4545  2.8479
 5073TIP3    H236711   3.236   0.327   3.882 -0.9417  0.0046 -1.1806
 5074TIP3   OH236712   5.263   0.998   0.433  0.0664 -0.3257 -0.1170
 5074TIP3    H136713   5.176   0.965   0.411 -0.5573  0.0014  1.6798
 5074TIP3    H236714   5.311   0.997   0.350 -1.4110 -1.1989 -1.0044
 5075TIP3   OH236715   5.770   4.648  11.204  0.5463 -0.3599 -0.2938
 5075TIP3    H136716   5.825   4.572  11.224 -0.2167 -1.1446 -1.1248
 5075TIP3    H236717   5.824   4.701  11.144  1.7106  0.6001  1.4819
 5076TIP3   OH236718   4.434   0.662   0.079  0.1596 -0.2219  0.6075
 5076TIP3    H136719   4.349   0.668   0.034  0.1855  0.3501  0.6239
 5076TIP3    H236720   4.439   0.572   0.110  0.7950 -1.1070 -1.8337
 5077TIP3   OH236721   0.794   1.084   2.746  0.0988 -0.2071  0.9133
 5077TIP3    H136722   0.836   1.018   2.800 -0.7049  0.0625  1.9075
 5077TIP3    H236723   0.866   1.125   2.698  0.8596 -0.3806  1.8624
 5078TIP3   OH236724   4.158   6.198   1.087  0.1589 -0.1865  0.0059
 5078TIP3    H136725   4.231   6.222   1.029 -1.1848  0.2252 -1.5977
 5078TIP3    H236726   4.131   6.112   1.056 -0.9995  0.3278 -0.4472
 5079TIP3   OH236727   3.207   5.697  11.514 -0.0530 -0.0313  0.5284
 5079TIP3    H136728   3.214   5.602  11.512 -1.7765 -0.1940 -1.8908
 5079TIP3    H236729   3.155   5.719  11.437 -0.0875  2.8582  1.2614
 5080TIP3   OH236730   4.677   3.084  16.902  0.4049  0.2137 -0.1146
 5080TIP3    H136731   4.741   3.085  16.973 -1.2188 -0.7913  1.4146
 5080TIP3    H236732   4.716   3.140  16.835  2.0827  1.0341  1.4559
 5081TIP3   OH236733   2.073   5.191  14.580 -0.0241 -0.4378 -0.1077
 5081TIP3    H136734   2.060   5.165  14.671 -4.8007  0.5725 -0.2601
 5081TIP3    H236735   2.039   5.118  14.529 -1.1457  0.5865 -0.8875
 5082TIP3   OH236736   4.884   5.345  11.164 -0.6873  0.0557  0.4163
 5082TIP3    H136737   4.912   5.311  11.079 -0.4338  1.6710 -0.1789
 5082TIP3    H236738   4.867   5.437  11.148 -0.6495  0.3855  2.1293
 5083TIP3   OH236739   0.579   3.337  11.219  0.1927  0.0249 -0.2013
 5083TIP3    H136740   0.490   3.337  11.184  0.2656 -1.6994 -0.4418
 5083TIP3    H236741   0.608   3.429  11.211 -2.2476  1.0811  1.7815
 5084TIP3   OH236742   0.291   4.541  12.663 -0.6165  0.1897 -0.1091
 5084TIP3    H136743   0.339   4.484  12.723 -1.2943  2.4083  2.8292
 5084TIP3    H236744   0.202   4.507  12.664 -0.4948 -0.1427 -0.3781
 5085TIP3   OH236745   4.972   2.626   4.639 -0.2054 -0.4361 -0.5043
 5085TIP3    H136746   4.893   2.661   4.599  0.4656  0.8798 -0.7144
 5085TIP3    H236747   4.940   2.556   4.696 -1.4232 -0.5494 -1.2863
 5086TIP3   OH236748   6.634   1.093   0.149 -0.2372 -0.1116 -0.2698
 5086TIP3    H136749   6.698   1.164   0.149 -0.4338  0.1001 -1.9474
 5086TIP3    H236750   6.685   1.015   0.174  0.3263  0.3256 -0.0201
 5087TIP3   OH236751   4.044   6.539  15.870  0.0034  0.3054 -0.2639
 5087TIP3    H136752   3.952   6.542  15.895 -0.3060 -2.0297 -0.8860
 5087TIP3    H236753   4.043   6.544  15.775  0.5405  0.5236 -0.2613
 5088TIP3   OH236754   4.681   4.665   1.487  0.1456  0.2394  0.1057
 5088TIP3    H136755   4.626   4.595   1.521 -2.3782  2.4634  0.8759
 5088TIP3    H236756   4.631   4.702   1.414  1.9771  0.5279 -1.0824
 5089TIP3   OH236757   1.436   4.414  13.224  0.4823  0.4976 -0.8768
 5089TIP3    H136758   1.415   4.390  13.133 -0.4377  1.8270 -1.0492
 5089TIP3    H236759   1.520   4.459  13.217  0.6911  0.0945 -0.9894
 5090TIP3   OH236760   3.049   5.737   1.388  0.1100 -0.2362 -0.0549
 5090TIP3    H136761   3.079   5.814   1.339  1.3494 -0.1647  0.7682
 5090TIP3    H236762   2.979   5.701   1.335 -0.9018  1.7774 -0.2102
 5091TIP3   OH236763   2.368   2.585   5.452  0.0213  0.1299 -0.0728
 5091TIP3    H136764   2.323   2.526   5.512 -0.6288  1.1958  0.5195
 5091TIP3    H236765   2.412   2.527   5.390 -1.5263 -0.9723 -0.1969
 5092TIP3   OH236766   0.903   6.503  14.119 -1.0601  1.2645 -0.3089
 5092TIP3    H136767   0.848   6.474  14.046  0.3703  0.9192 -1.2916
 5092TIP3    H236768   0.992   6.483  14.091 -0.4620  1.2052  1.5131
 5093TIP3   OH236769   0.962   4.509   3.616  0.0900 -0.0082 -0.4009
 5093TIP3    H136770   0.871   4.486   3.635  0.3259 -0.9498 -0.3718
 5093TIP3    H236771   0.981   4.466   3.533  0.7419 -0.4415 -0.0308
 5094TIP3   OH236772   1.297   3.504   0.097  0.7978  0.2792  0.3281
 5094TIP3    H136773   1.293   3.545   0.183  0.8341  1.7426 -0.3460
 5094TIP3    H236774   1.246   3.561   0.040  0.7152 -0.7002 -0.6232
 5095TIP3   OH236775   1.870   6.257   6.581 -0.0923  0.0106 -0.0226
 5095TIP3    H136776   1.803   6.202   6.622 -1.6020  1.7068 -0.0817
 5095TIP3    H236777   1.922   6.290   6.654 -2.2966  2.4083  0.6262
 5096TIP3   OH236778   6.133   1.798  11.304  0.2994 -0.8180 -0.3300
 5096TIP3    H136779   6.142   1.709  11.338  1.0147 -0.3561  0.7525
 5096TIP3    H236780   6.048   1.799  11.260  0.0773 -1.8988  0.0552
 5097TIP3   OH236781   0.136   0.664  12.723 -0.5130  0.2221  0.6819
 5097TIP3    H136782   0.072   0.734  12.708 -0.7159 -0.2688 -0.8260
 5097TIP3    H236783   0.106   0.622  12.803 -1.0317  1.1353  0.9898
 5098TIP3   OH236784   1.986   4.373   0.812 -0.5881 -0.2659 -0.6591
 5098TIP3    H136785   2.005   4.279   0.806 -0.3402 -0.3062  0.4352
 5098TIP3    H236786   2.061   4.416   0.770 -0.0553 -0.5325 -0.0030
 5099TIP3   OH236787   3.098   0.430  13.152  0.3229  0.5697 -0.4437
 5099TIP3    H136788   3.138   0.517  13.151 -0.5305  0.9692 -0.9442
 5099TIP3    H236789   3.135   0.385  13.076  0.8964  0.4279 -0.0843
 5100TIP3   OH236790   0.600   4.779  15.963  0.4074  0.7799  0.0526
 5100TIP3    H136791   0.691   4.755  15.945  0.7013  2.3116 -0.6564
 5100TIP3    H236792   0.576   4.728  16.041  1.9139  0.4613  0.3287
 5101TIP3   OH236793   2.015   2.891  12.336  0.4400 -0.1093 -0.4002
 5101TIP3    H136794   2.003   2.980  12.370  0.6674  0.5160 -1.8808
 5101TIP3    H236795   2.067   2.846  12.402  0.2187  0.8212  0.4217
 5102TIP3   OH236796   0.059   5.991  13.180  0.1325 -0.3228  0.4912
 5102TIP3    H136797   0.049   5.946  13.264 -0.3159 -0.9447  0.1125
 5102TIP3    H236798  -0.031   6.008  13.151  0.2859  0.0878  0.2370
 5103TIP3   OH236799   0.817   2.872   2.311 -0.6463  0.5513  0.1739
 5103TIP3    H136800   0.893   2.827   2.274 -2.1471 -1.6466 -0.4924
 5103TIP3    H236801   0.853   2.948   2.357  1.9385 -0.4960  0.0378
 5104TIP3   OH236802   2.868   4.561  12.427  0.0045 -0.3716 -0.4008
 5104TIP3    H136803   2.833   4.499  12.492 -1.6515  1.5662  0.6663
 5104TIP3    H236804   2.914   4.627  12.479  2.4484 -1.0270 -1.5845
 5105TIP3   OH236805   6.634   2.008   0.607  0.0139  0.0518 -0.3835
 5105TIP3    H136806   6.624   1.913   0.615 -0.1211  0.2023  1.6341
 5105TIP3    H236807   6.682   2.020   0.524 -0.6891 -1.7041 -1.0818
 5106TIP3   OH236808   3.481   4.633  12.743 -0.2289  0.3262 -0.1968
 5106TIP3    H136809   3.464   4.602  12.832  0.2291  0.6171 -0.0034
 5106TIP3    H236810   3.416   4.588  12.690 -2.0014  1.8538  0.5835
 5107TIP3   OH236811   0.110   1.882  11.578 -0.4100 -0.3603  0.7661
 5107TIP3    H136812   0.133   1.964  11.621  2.4125  0.0390 -1.1970
 5107TIP3    H236813   0.062   1.909  11.500  0.2613 -0.5503  0.2741
 5108TIP3   OH236814   4.947   5.313   3.849  0.6293  0.0706 -0.2589
 5108TIP3    H136815   4.927   5.299   3.942 -0.3087  0.6714 -0.3512
 5108TIP3    H236816   5.011   5.245   3.827 -1.1910 -1.8743  0.1315
 5109TIP3   OH236817   1.817   0.401   6.435 -0.0488 -0.2775 -0.3137
 5109TIP3    H136818   1.891   0.342   6.449 -0.6358 -0.9965 -0.1738
 5109TIP3    H236819   1.819   0.460   6.510 -0.4128 -1.1585  0.4092
 5110TIP3   OH236820   2.239   0.734  12.683 -0.0756  0.4434  0.3351
 5110TIP3    H136821   2.231   0.825  12.652  2.2169 -0.1023 -2.2605
 5110TIP3    H236822   2.171   0.687  12.635 -0.5064  0.5551  0.8170
 5111TIP3   OH236823   5.722   3.332  12.796 -0.1629 -0.1181 -0.4996
 5111TIP3    H136824   5.726   3.239  12.816 -1.2208  0.0860  0.7705
 5111TIP3    H236825   5.810   3.365  12.817 -0.0809 -0.6455  0.0030
 5112TIP3   OH236826   1.179   1.986  16.873 -0.4126 -0.1322  0.3832
 5112TIP3    H136827   1.157   2.028  16.957  1.7491  2.4414 -0.1980
 5112TIP3    H236828   1.275   1.984  16.872 -0.4026 -0.8977 -1.6788
 5113TIP3   OH236829   0.457   5.542   4.909  0.0535  0.0582 -0.0983
 5113TIP3    H136830   0.436   5.501   4.993 -0.0724  0.1692 -0.0752
 5113TIP3    H236831   0.374   5.545   4.862 -0.3805  2.1294  0.7076
 5114TIP3   OH236832   1.270   4.925  16.716  0.5015  0.7203 -0.2225
 5114TIP3    H136833   1.266   4.928  16.620  0.5786  1.9843 -0.2102
 5114TIP3    H236834   1.180   4.940  16.744  0.3589 -0.3317 -0.0880
 5115TIP3   OH236835   3.455   2.884  15.078 -0.1307  0.0700 -0.1897
 5115TIP3    H136836   3.386   2.818  15.069  1.3724 -1.3761 -2.0877
 5115TIP3    H236837   3.479   2.881  15.171 -1.3700 -0.6817  0.1374
 5116TIP3   OH236838   1.843   2.330  15.228  0.9285  0.8840  0.6188
 5116TIP3    H136839   1.896   2.279  15.167 -1.1138 -1.5879  0.7505
 5116TIP3    H236840   1.785   2.382  15.172  2.8080  2.9955  0.4907
 5117TIP3   OH236841   4.327   2.655   3.647 -0.4350 -0.1416  0.1179
 5117TIP3    H136842   4.283   2.659   3.562  1.0729  0.6397 -0.6758
 5117TIP3    H236843   4.314   2.742   3.685 -1.6859 -0.7000  1.0255
 5118TIP3   OH236844   1.818   0.824   1.925  0.1125 -0.4317  0.0048
 5118TIP3    H136845   1.792   0.844   1.835 -1.0145 -2.3779 -0.1431
 5118TIP3    H236846   1.906   0.786   1.917  0.5667  0.5885 -0.1008
 5119TIP3   OH236847   5.805   6.795  15.900 -0.2831  0.1202 -0.5010
 5119TIP3    H136848   5.836   6.847  15.826  1.0632 -1.2827 -0.9805
 5119TIP3    H236849   5.783   6.859  15.967  2.3764  1.3282 -0.6558
 5120TIP3   OH236850   5.803   3.085   4.752  0.4589  0.8731  0.3416
 5120TIP3    H136851   5.737   3.120   4.692 -0.1408  0.9011  1.0173
 5120TIP3    H236852   5.877   3.146   4.743 -0.1964  1.7426  0.7480
 5121TIP3   OH236853   0.606   3.678   0.288  0.0529 -0.3065 -0.1807
 5121TIP3    H136854   0.603   3.677   0.384 -0.7441  0.3374 -0.1886
 5121TIP3    H236855   0.676   3.740   0.267  0.0444 -0.2367 -0.0086
 5122TIP3   OH236856   5.724   6.513   4.764  0.3501  0.5079 -0.0031
 5122TIP3    H136857   5.714   6.527   4.670  0.4820  1.2704  0.0923
 5122TIP3    H236858   5.819   6.506   4.776  0.3905  1.3498  0.1993
 5123TIP3   OH236859   2.475   3.556   1.638 -0.1123 -0.6107 -0.7066
 5123TIP3    H136860   2.429   3.630   1.597  0.0928 -1.2861 -2.2304
 5123TIP3    H236861   2.499   3.499   1.565  1.4190 -1.2556  0.2425
 5124TIP3   OH236862   5.557   4.057  13.573  0.9167  0.0499 -0.7055
 5124TIP3    H136863   5.536   4.149  13.557 -0.1744  0.0244  0.4578
 5124TIP3    H236864   5.643   4.045  13.531  1.6041  1.8880  0.0640
 5125TIP3   OH236865   0.097   1.198   1.633 -0.3387  0.2321 -0.0833
 5125TIP3    H136866   0.005   1.182   1.653  0.4671 -1.0799  3.1646
 5125TIP3    H236867   0.138   1.112   1.637  0.9239  0.6488 -2.5175
 5126TIP3   OH236868   3.946   3.113   5.738  0.4915  0.3214  0.2339
 5126TIP3    H136869   3.957   3.108   5.643  0.9552  0.0938  0.2964
 5126TIP3    H236870   3.853   3.097   5.752 -0.0744  2.6977 -0.3430
 5127TIP3   OH236871   6.043   4.065   1.161  0.0343  0.0613 -0.0588
 5127TIP3    H136872   5.952   4.037   1.170 -0.2009  0.9282  0.4149
 5127TIP3    H236873   6.091   4.014   1.226  0.1157 -1.3233 -1.1751
 5128TIP3   OH236874   4.489   2.621  12.365  0.3952  0.7440  0.1405
 5128TIP3    H136875   4.414   2.650  12.417 -0.3457 -0.0720 -0.4338
 5128TIP3    H236876   4.515   2.698  12.314 -2.4438  0.1587 -2.4613
 5129TIP3   OH236877   4.664   0.216  13.561  0.0999 -0.3258  0.7880
 5129TIP3    H136878   4.575   0.250  13.555 -0.9378 -2.8181  0.4880
 5129TIP3    H236879   4.685   0.190  13.472  1.2556  0.4566  0.8159
 5130TIP3   OH236880   0.591   3.319  13.856 -0.1203  0.0613 -0.6600
 5130TIP3    H136881   0.650   3.388  13.886 -0.4940 -0.1616  0.6473
 5130TIP3    H236882   0.629   3.289  13.773 -0.2430  2.2007 -1.5787
 5131TIP3   OH236883   3.991   5.564  12.114  0.0085  0.0775 -0.7738
 5131TIP3    H136884   3.900   5.589  12.101 -0.3510 -1.3052 -1.1442
 5131TIP3    H236885   4.015   5.599  12.200 -0.2814  2.0271 -1.4508
 5132TIP3   OH236886   3.660   3.224   0.054  0.3311 -0.0147 -1.0596
 5132TIP3    H136887   3.703   3.143   0.082 -0.8985 -0.1371  0.6176
 5132TIP3    H236888   3.723   3.265  -0.005  1.7590 -1.3125 -0.5101
 5133TIP3   OH236889   6.588   4.045   1.499 -0.9486 -0.2410  0.8337
 5133TIP3    H136890   6.673   4.058   1.457 -0.7543 -1.9328  0.6467
 5133TIP3    H236891   6.610   4.022   1.589 -1.1827 -1.0413  0.6907
 5134TIP3   OH236892   2.537   5.609   0.588  0.2606  0.4561  0.0056
 5134TIP3    H136893   2.494   5.526   0.569 -0.0161  0.1798  1.7181
 5134TIP3    H236894   2.491   5.673   0.532 -0.6665 -0.2568 -0.0699
 5135TIP3   OH236895   1.108   6.168   0.710 -0.0218 -0.4620  0.0441
 5135TIP3    H136896   1.048   6.150   0.639 -1.9628  1.0980  1.1830
 5135TIP3    H236897   1.117   6.264   0.711  0.8063 -0.5151  1.2171
 5136TIP3   OH236898   4.739   3.650   2.447  0.1004 -0.2815 -0.2083
 5136TIP3    H136899   4.658   3.608   2.473  0.7708 -0.0222  2.6706
 5136TIP3    H236900   4.711   3.731   2.403 -1.5039  1.9535  4.2242
 5137TIP3   OH236901   2.744   6.039   5.373 -0.0976  0.0205 -0.3559
 5137TIP3    H136902   2.731   6.086   5.455  1.0344 -1.2523  0.5890
 5137TIP3    H236903   2.800   5.965   5.396 -1.0260 -1.2507 -1.9810
 5138TIP3   OH236904   5.156   6.412  13.889  0.1180 -0.0691  0.3089
 5138TIP3    H136905   5.088   6.443  13.949  0.0990  2.1756 -0.7704
 5138TIP3    H236906   5.236   6.411  13.942 -0.1124  0.7087  0.6842
 5139TIP3   OH236907   0.354   4.363   3.776  0.8451 -0.2644 -0.6172
 5139TIP3    H136908   0.320   4.346   3.864 -0.1197 -0.9914 -1.1113
 5139TIP3    H236909   0.301   4.436   3.744  0.7123 -0.4695 -0.8629
 5140TIP3   OH236910   6.455   5.434  13.722 -0.2539 -0.2118 -0.2833
 5140TIP3    H136911   6.517   5.415  13.652  0.4514 -0.2289  0.3397
 5140TIP3    H236912   6.430   5.526  13.707  1.5257  0.4770  0.6599
 5141TIP3   OH236913   4.680   4.874  12.579  0.1523  0.2959  0.1662
 5141TIP3    H136914   4.768   4.872  12.541  0.3916 -0.4470  0.7643
 5141TIP3    H236915   4.627   4.822  12.519  0.1681  0.5264 -0.0520
 5142TIP3   OH236916   0.116   3.623   3.234 -0.0311  0.3259  0.0226
 5142TIP3    H136917   0.039   3.567   3.228 -0.0426  0.4603 -1.3522
 5142TIP3    H236918   0.189   3.562   3.246 -0.3626  0.2230  1.8304
 5143TIP3   OH236919   1.331   6.705   0.210  0.2478 -0.1527  0.3852
 5143TIP3    H136920   1.378   6.779   0.171  0.6797 -0.4084  0.4126
 5143TIP3    H236921   1.396   6.634   0.212  0.3400 -0.0457  1.8873
 5144TIP3   OH236922   2.812   3.901  14.438 -0.2066 -0.1483  0.5154
 5144TIP3    H136923   2.759   3.979  14.452  0.0642 -0.1390  1.5941
 5144TIP3    H236924   2.863   3.892  14.519  0.6176 -0.7779 -0.0551
 5145TIP3   OH236925   4.041   4.934  14.358  0.8680  0.2673 -0.6628
 5145TIP3    H136926   4.074   4.966  14.273  0.3040  2.5014 -0.1071
 5145TIP3    H236927   4.087   4.988  14.423  0.1219 -0.3249  0.3751
 5146TIP3   OH236928   1.585   6.317   4.295  0.1600 -0.2345  0.2094
 5146TIP3    H136929   1.496   6.351   4.284 -0.2883 -1.8152 -1.5713
 5146TIP3    H236930   1.582   6.270   4.378 -0.0703  1.3899  1.1556
 5147TIP3   OH236931   5.293   0.329   0.004  0.2946  0.1148 -0.4409
 5147TIP3    H136932   5.266   0.421   0.008 -2.7564 -0.7125  0.3062
 5147TIP3    H236933   5.337   0.314   0.088  0.2168  0.7101 -0.2874
 5148TIP3   OH236934   0.080   2.956  17.036  0.1504 -0.8071  0.1012
 5148TIP3    H136935   0.111   2.980  17.124  1.5126  0.4622 -0.6757
 5148TIP3    H236936   0.142   2.889  17.007  0.0529 -0.8026 -0.1171
 5149TIP3   OH236937   4.560   2.331   6.222 -0.4998 -0.3082 -0.1202
 5149TIP3    H136938   4.620   2.351   6.295 -1.3318  0.2034  0.4436
 5149TIP3    H236939   4.526   2.244   6.242  0.1903 -0.6830 -0.5438
 5150TIP3   OH236940   5.198   3.470   4.372 -0.1957  0.1769  0.3717
 5150TIP3    H136941   5.178   3.432   4.287  1.2365  2.4300 -1.0702
 5150TIP3    H236942   5.142   3.423   4.433 -0.7357 -2.0214 -1.6843
 5151TIP3   OH236943   4.787   2.050   3.253 -0.6696 -0.1875 -0.3660
 5151TIP3    H136944   4.700   2.084   3.269 -0.6003 -0.4700  0.6907
 5151TIP3    H236945   4.772   1.961   3.221 -0.7632 -0.4241  0.3219
 5152TIP3   OH236946   4.786   6.661   0.978 -0.0738  0.0927 -0.1079
 5152TIP3    H136947   4.822   6.593   1.035 -1.5873  0.7294  1.6768
 5152TIP3    H236948   4.719   6.704   1.030 -0.5640  1.6472 -1.9042
 5153TIP3   OH236949   1.135   3.831   1.729  0.3181 -0.0836  0.0951
 5153TIP3    H136950   1.081   3.874   1.663  1.7887  2.9570  0.7102
 5153TIP3    H236951   1.221   3.823   1.688  0.8902  0.5698  1.1241
 5154TIP3   OH236952   2.762   2.153   3.074 -0.7581 -0.1113 -0.0244
 5154TIP3    H136953   2.739   2.225   3.132 -4.2542 -1.6725  0.8099
 5154TIP3    H236954   2.844   2.180   3.033 -0.8582  3.3761  1.7049
 5155TIP3   OH236955   5.178   1.772  16.474  0.4694 -0.3060  0.5356
 5155TIP3    H136956   5.179   1.676  16.483 -1.1200 -0.4951 -0.7488
 5155TIP3    H236957   5.100   1.799  16.523  2.4339  0.6911  3.2928
 5156TIP3   OH236958   4.394   2.064  12.307 -0.5017  0.5477  0.0351
 5156TIP3    H136959   4.468   2.098  12.257 -2.1727  1.4495 -1.9410
 5156TIP3    H236960   4.413   1.970  12.316 -0.7626  0.0267 -3.6185
 5157TIP3   OH236961   5.175   3.782   3.859  0.0116  0.0223  0.0709
 5157TIP3    H136962   5.242   3.774   3.791  0.9246 -3.0782  1.1688
 5157TIP3    H236963   5.223   3.811   3.936 -0.4772  0.5878  0.1712
 5158TIP3   OH236964   2.885   5.346   4.855  0.1511 -0.5239  0.9573
 5158TIP3    H136965   2.801   5.384   4.880  0.0351 -0.1184  0.0005
 5158TIP3    H236966   2.932   5.334   4.938  0.0411  1.3677  1.3314
 5159TIP3   OH236967   0.738   3.589  11.218 -0.7226  0.2500  0.2341
 5159TIP3    H136968   0.795   3.591  11.295 -2.0256  0.2145  1.2279
 5159TIP3    H236969   0.729   3.681  11.193  1.0332  0.1531 -0.9302
 5160TIP3   OH236970   6.630   0.153  13.612  0.3695  0.5224  0.5666
 5160TIP3    H136971   6.580   0.229  13.640 -0.2066  0.5184 -0.3968
 5160TIP3    H236972   6.607   0.084  13.675  0.5786  1.0269  1.1981
 5161TIP3   OH236973   5.015   3.636   1.811 -0.1640  0.1946  0.8262
 5161TIP3    H136974   4.978   3.666   1.894 -0.5621  0.8808  0.4106
 5161TIP3    H236975   4.988   3.545   1.804  1.3045 -0.3843  2.2463
 5162TIP3   OH236976   4.647   0.282   2.675 -0.1186 -0.6556  0.6237
 5162TIP3    H136977   4.743   0.289   2.669 -0.2023 -0.1760 -0.1653
 5162TIP3    H236978   4.614   0.337   2.604 -0.9748 -1.1652  0.6176
 5163TIP3   OH236979   2.403   3.081   3.386  0.3951  0.0787  0.4871
 5163TIP3    H136980   2.426   3.164   3.427  0.2282 -0.7951  2.4508
 5163TIP3    H236981   2.337   3.105   3.320 -1.6814  1.2704  2.8152
 5164TIP3   OH236982   0.488   6.144  14.099 -0.2530  0.0677  0.2726
 5164TIP3    H136983   0.444   6.089  14.034 -0.4175  0.8293 -0.2640
 5164TIP3    H236984   0.469   6.234  14.072  0.5212  0.3977  0.7991
 5165TIP3   OH236985   6.512   6.524   4.453  0.2143  0.2402 -0.2333
 5165TIP3    H136986   6.441   6.540   4.391 -0.0707 -1.3218 -0.3467
 5165TIP3    H236987   6.546   6.438   4.429  2.1933  0.9578 -0.2073
 5166TIP3   OH236988   2.729   5.194   4.641 -0.9767 -0.5472  0.1689
 5166TIP3    H136989   2.815   5.210   4.604 -1.2495 -2.0364 -1.2409
 5166TIP3    H236990   2.738   5.215   4.734  0.2057  1.6630 -0.3881
 5167TIP3   OH236991   0.794   5.889   0.784 -0.0599  0.2144 -0.0075
 5167TIP3    H136992   0.780   5.915   0.693 -0.2245  1.1710  0.2844
 5167TIP3    H236993   0.740   5.949   0.835  0.1581 -0.2072  0.7396
 5168TIP3   OH236994   5.993   6.245  15.530  0.2709  0.0857  0.4691
 5168TIP3    H136995   6.002   6.178  15.462  3.0361  0.8305 -0.0276
 5168TIP3    H236996   6.023   6.202  15.610 -0.8754 -0.1384  0.7892
 5169TIP3   OH236997   1.771   0.821  11.374 -0.1463 -0.1270  0.6133
 5169TIP3    H136998   1.780   0.780  11.288 -0.0496  0.4982  0.3161
 5169TIP3    H236999   1.829   0.897  11.370 -0.2621 -0.0039  1.1798
 5170TIP3   OH237000   2.732   2.838   0.622  0.7377 -0.7317  0.5074
 5170TIP3    H137001   2.722   2.842   0.717 -0.2003 -0.1988  0.4021
 5170TIP3    H237002   2.799   2.904   0.602 -0.3442  0.4651  0.6546
 5171TIP3   OH237003   2.083   6.680  14.489  0.0674 -0.1978 -0.0380
 5171TIP3    H137004   2.157   6.635  14.450 -0.6894 -1.8316  0.3221
 5171TIP3    H237005   2.117   6.765  14.516  2.1204 -1.3171  1.1361
 5172TIP3   OH237006   0.099   1.242  15.893 -0.7938 -0.2558 -0.2597
 5172TIP3    H137007   0.006   1.262  15.905 -0.4265  0.2925  2.1872
 5172TIP3    H237008   0.132   1.229  15.982  1.5025 -0.3585 -1.0787
 5173TIP3   OH237009   6.050   3.630   2.596  0.3255  0.3452  0.7040
 5173TIP3    H137010   6.032   3.702   2.535  0.7345  0.5684  0.8434
 5173TIP3    H237011   6.137   3.599   2.571  0.0114 -0.3324  0.4217
 5174TIP3   OH237012   2.563   2.658  11.459 -0.0716 -0.2801  0.0797
 5174TIP3    H137013   2.483   2.696  11.494  0.8304  0.8578  0.9784
 5174TIP3    H237014   2.537   2.571  11.429 -2.0927  0.7810 -1.5390
 5175TIP3   OH237015   0.810   3.745  14.794  0.1553 -0.5176 -0.5880
 5175TIP3    H137016   0.843   3.828  14.761  1.0839 -0.0148  1.4661
 5175TIP3    H237017   0.826   3.748  14.888 -2.3565 -1.8741 -0.0281
 5176TIP3   OH237018   0.482   2.049  15.116 -0.1766 -0.3926  0.0941
 5176TIP3    H137019   0.407   2.087  15.070  0.1666  0.3268  0.1042
 5176TIP3    H237020   0.542   2.123  15.129  1.0154 -1.1581 -0.8551
 5177TIP3   OH237021   0.906   2.011   4.498 -0.5445 -0.3639  0.5909
 5177TIP3    H137022   0.882   2.102   4.519 -2.0199 -0.7848  0.8335
 5177TIP3    H237023   0.901   1.965   4.582  0.1690 -0.6892  0.4649
 5178TIP3   OH237024   0.381   4.375  12.884 -0.3476 -0.4537  0.8352
 5178TIP3    H137025   0.405   4.430  12.959  4.1019  1.4510 -1.6013
 5178TIP3    H237026   0.453   4.314  12.875 -2.0126 -2.3421 -0.4998
 5179TIP3   OH237027   4.976   0.226  14.223  0.8675  0.4712  0.4184
 5179TIP3    H137028   4.930   0.143  14.212 -0.3481  1.2684 -0.9381
 5179TIP3    H237029   5.069   0.202  14.224  0.6799 -0.7812 -2.0844
 5180TIP3   OH237030   0.410   5.097  11.217  0.8651  0.2739 -0.5829
 5180TIP3    H137031   0.504   5.106  11.232  0.9833  0.7575 -1.4922
 5180TIP3    H237032   0.386   5.015  11.259  1.2784  1.1485  1.4508
 5181TIP3   OH237033   2.220   4.146   0.417 -0.0055  0.1160 -0.2856
 5181TIP3    H137034   2.133   4.124   0.450  0.3275  0.0673  0.5828
 5181TIP3    H237035   2.207   4.162   0.324 -0.8732 -0.2846 -0.2404
 5182TIP3   OH237036   3.280   4.994   3.751  0.5364  0.1888  0.2033
 5182TIP3    H137037   3.366   4.983   3.792  0.5655  1.1135  0.4100
 5182TIP3    H237038   3.278   5.086   3.725 -0.5399  0.2634  0.5410
 5183TIP3   OH237039   0.857   2.911  12.626 -0.9930  0.0663  0.1128
 5183TIP3    H137040   0.811   2.830  12.648  1.4311 -1.1258  1.1495
 5183TIP3    H237041   0.948   2.884  12.612 -0.5250  2.2846 -1.8588
 5184TIP3   OH237042   2.139   5.488   3.002 -0.0776  0.3391 -0.4193
 5184TIP3    H137043   2.064   5.436   2.973  0.5931  0.0034 -1.5970
 5184TIP3    H237044   2.215   5.436   2.977  0.5706  0.6191  0.8568
 5185TIP3   OH237045   0.249   0.541   1.520  0.0453  0.2329  0.0829
 5185TIP3    H137046   0.189   0.591   1.465 -1.0419  0.8745  1.7509
 5185TIP3    H237047   0.192   0.491   1.579  1.0363  1.7745  2.5243
 5186TIP3   OH237048   5.500   6.491   5.839 -0.5255 -0.2442 -0.4021
 5186TIP3    H137049   5.540   6.452   5.760 -0.6008  0.0947 -0.6085
 5186TIP3    H237050   5.406   6.477   5.828 -0.3898 -2.7111  0.9640
 5187TIP3   OH237051   4.188   2.200  15.093  0.1500  0.2772  0.0869
 5187TIP3    H137052   4.266   2.250  15.069  0.3798  0.0183  0.2691
 5187TIP3    H237053   4.196   2.189  15.188  1.4872 -2.3123 -0.2194
 5188TIP3   OH237054   5.649   2.670   2.927  0.2799 -0.4219  0.5133
 5188TIP3    H137055   5.647   2.575   2.940 -0.2331 -0.6536 -1.0009
 5188TIP3    H237056   5.674   2.681   2.835  0.2775  0.9114  0.6528
 5189TIP3   OH237057   2.623   3.474  16.171 -0.1509 -0.2812  0.4296
 5189TIP3    H137058   2.643   3.401  16.113  0.8797  1.1594 -1.1111
 5189TIP3    H237059   2.645   3.442  16.258  1.5714 -1.3658 -0.3545
 5190TIP3   OH237060   5.435   1.043   4.740 -1.1777 -0.1869 -0.1814
 5190TIP3    H137061   5.383   0.983   4.686 -1.9398 -0.3935  0.7503
 5190TIP3    H237062   5.441   0.999   4.825 -1.6055  0.9801  0.4769
 5191TIP3   OH237063   1.249   3.929   6.526 -0.1126  0.7778  0.2473
 5191TIP3    H137064   1.238   3.980   6.606 -3.3720 -0.8670  1.0243
 5191TIP3    H237065   1.264   3.840   6.556  1.6031  0.5696 -1.0628
 5192TIP3   OH237066   4.969   4.319   0.928  0.2002  0.0857 -0.1323
 5192TIP3    H137067   4.999   4.292   1.014 -0.2016  0.2481  0.0585
 5192TIP3    H237068   4.896   4.378   0.945  0.2785  0.3170 -0.5764
 5193TIP3   OH237069   4.720   3.314   2.147  0.2201 -0.3865  0.5477
 5193TIP3    H137070   4.666   3.391   2.125 -0.8103 -0.7143  1.7995
 5193TIP3    H237071   4.799   3.351   2.186  0.0832  0.0574  0.4107
 5194TIP3   OH237072   1.650   1.807   1.065 -0.9889  0.4498 -0.1065
 5194TIP3    H137073   1.694   1.879   1.022  0.9793 -0.4087  0.3551
 5194TIP3    H237074   1.707   1.731   1.050 -1.9501 -0.5698  1.1280
 5195TIP3   OH237075   0.646   4.432   5.030 -0.3834 -0.6581  0.1558
 5195TIP3    H137076   0.563   4.466   4.997 -0.2683 -0.5758 -0.0432
 5195TIP3    H237077   0.623   4.394   5.116 -0.9475 -2.0743 -0.5794
 5196TIP3   OH237078   4.851   4.269  16.144  0.4754 -0.4277  0.4574
 5196TIP3    H137079   4.791   4.328  16.098 -0.2912 -0.7229  1.0396
 5196TIP3    H237080   4.870   4.313  16.226  0.7839 -0.4953  0.4239
 5197TIP3   OH237081   6.294   4.015  11.247 -0.5681 -0.4627  0.0762
 5197TIP3    H137082   6.328   4.038  11.334  3.2064  0.3188 -1.4277
 5197TIP3    H237083   6.292   3.919  11.247 -0.5514 -0.4766  0.9720
 5198TIP3   OH237084   3.535   0.563   1.920  0.6477  0.0315 -0.3945
 5198TIP3    H137085   3.614   0.517   1.950 -0.1056 -0.2789  1.2292
 5198TIP3    H237086   3.489   0.585   2.001 -1.1363 -0.1645 -1.3183
 5199TIP3   OH237087   4.808   3.892  14.073 -0.1606 -0.2720  0.2089
 5199TIP3    H137088   4.720   3.921  14.048 -0.1707 -0.1760  0.3534
 5199TIP3    H237089   4.867   3.942  14.016 -0.2186 -0.7526 -0.2858
 5200TIP3   OH237090   5.923   2.553  13.307 -0.3131 -0.2593  0.1938
 5200TIP3    H137091   5.938   2.646  13.327 -0.0638 -0.3852  0.6012
 5200TIP3    H237092   5.831   2.538  13.330 -0.7452  0.2047 -1.1211
 5201TIP3   OH237093   6.513   1.950   1.899 -0.0389  0.0450  0.0461
 5201TIP3    H137094   6.477   2.031   1.863  0.5387  0.8743  1.2270
 5201TIP3    H237095   6.530   1.895   1.823 -0.3381  1.0831 -0.8011
 5202TIP3   OH237096   5.051   0.755  16.060  0.3122 -0.0507 -0.1950
 5202TIP3    H137097   4.987   0.784  15.996  2.6007  1.4239 -1.9985
 5202TIP3    H237098   5.107   0.694  16.012  0.8809 -0.5164  1.0074
 5203TIP3   OH237099   0.619   2.574   1.807  0.3210 -0.2992 -0.3920
 5203TIP3    H137100   0.641   2.534   1.891 -0.4503 -0.0511 -0.0557
 5203TIP3    H237101   0.534   2.537   1.784 -0.7622  1.6117  0.2725
 5204TIP3   OH237102   5.845   1.236   4.420  0.2330 -0.5478 -0.2107
 5204TIP3    H137103   5.815   1.298   4.354 -0.1426 -0.9904 -0.4661
 5204TIP3    H237104   5.927   1.273   4.453 -0.4061  0.5138  0.2504
 5205TIP3   OH237105   4.350   4.066  11.166 -0.4985 -0.6044  0.4378
 5205TIP3    H137106   4.366   4.061  11.072  0.0498  1.3907  0.3727
 5205TIP3    H237107   4.293   3.992  11.185  2.3196 -3.3112 -0.7827
 5206TIP3   OH237108   3.408   2.677   3.472 -0.0712 -0.2978  0.1565
 5206TIP3    H137109   3.322   2.651   3.440 -0.1313  1.3629 -1.1498
 5206TIP3    H237110   3.468   2.611   3.436 -0.5590 -0.3503 -0.5790
 5207TIP3   OH237111   5.189   3.406   5.425 -0.5803 -0.0226  0.7484
 5207TIP3    H137112   5.109   3.353   5.417  0.4938 -1.4427 -1.6324
 5207TIP3    H237113   5.257   3.343   5.447  0.2487  0.8672  0.7711
 5208TIP3   OH237114   5.786   5.675   3.852 -0.6242 -0.0720 -0.0755
 5208TIP3    H137115   5.785   5.714   3.765 -0.3870 -0.6321 -0.3386
 5208TIP3    H237116   5.708   5.710   3.896 -0.9612 -0.0942 -0.6493
 5209TIP3   OH237117   3.830   0.582  15.622  0.0204 -0.3749  0.1029
 5209TIP3    H137118   3.779   0.633  15.560 -0.6372  1.2108  1.8333
 5209TIP3    H237119   3.913   0.630  15.629 -0.1115 -0.2259  0.7847
 5210TIP3   OH237120   3.448   2.453   1.550  0.7897  0.4221  0.3231
 5210TIP3    H137121   3.533   2.410   1.562  0.5193 -0.4713 -0.7815
 5210TIP3    H237122   3.385   2.395   1.593  0.5060  0.0498 -0.5822
 5211TIP3   OH237123   0.412   1.048  11.141 -0.3254  0.2610 -0.0505
 5211TIP3    H137124   0.439   1.039  11.050 -1.6404  0.7820 -0.4999
 5211TIP3    H237125   0.467   1.119  11.175  0.8498 -0.5669 -0.1376
 5212TIP3   OH237126   0.230   5.714  14.049  0.1667  0.8318 -0.1887
 5212TIP3    H137127   0.302   5.651  14.044 -1.1678 -0.7273 -0.9612
 5212TIP3    H237128   0.261   5.791  14.003  1.8358  0.7470  0.7265
 5213TIP3   OH237129   6.646   6.598  13.272  0.3358  0.3172 -0.3217
 5213TIP3    H137130   6.647   6.684  13.313  1.0332 -0.3037  1.0200
 5213TIP3    H237131   6.566   6.597  13.220  0.7283  2.0733 -1.0354
 5214TIP3   OH237132   0.127   2.000   5.843  0.4718  0.3638  0.1664
 5214TIP3    H137133   0.064   2.034   5.779  1.0657  1.1245 -0.0255
 5214TIP3    H237134   0.212   2.029   5.810  0.9685 -0.9637  0.2306
 5215TIP3   OH237135   0.355   5.762   1.759  0.3238 -0.3310 -0.1669
 5215TIP3    H137136   0.382   5.685   1.809  0.2097 -0.2916 -0.0417
 5215TIP3    H237137   0.383   5.836   1.813 -0.1963 -0.2917  0.0578
 5216TIP3   OH237138   1.963   1.995  16.186  0.1835 -0.3315  0.0090
 5216TIP3    H137139   1.996   2.083  16.167 -1.5598  0.7170  1.4438
 5216TIP3    H237140   1.870   2.009  16.204 -0.3092 -2.6128 -0.5195
 5217TIP3   OH237141   1.594   5.492  14.328  0.0105 -0.1774 -0.0093
 5217TIP3    H137142   1.566   5.455  14.411 -0.1128  1.4832  0.7259
 5217TIP3    H237143   1.639   5.574  14.351  0.7432 -0.0991 -1.5157
 5218TIP3   OH237144   3.403   4.725   0.985  0.0228  0.1309 -0.0240
 5218TIP3    H137145   3.331   4.781   0.957  0.6817  1.2775  0.5028
 5218TIP3    H237146   3.434   4.765   1.067  0.2028 -1.2778  0.6250
 5219TIP3   OH237147   2.062   5.631  17.045  0.0211 -0.1412  0.1624
 5219TIP3    H137148   1.971   5.651  17.023  0.1476 -0.0249 -0.2803
 5219TIP3    H237149   2.069   5.536  17.036  0.7112  0.0797 -3.0171
 5220TIP3   OH237150   1.864   0.339   2.061  0.4974  0.1544  0.1262
 5220TIP3    H137151   1.844   0.245   2.055 -1.6728  0.4914  1.3592
 5220TIP3    H237152   1.895   0.352   2.151  0.1666  0.7386  0.1591
 5221TIP3   OH237153   5.922   0.241  15.855 -0.2171 -0.0516  0.0350
 5221TIP3    H137154   5.919   0.191  15.773  0.7480  0.9117 -0.6204
 5221TIP3    H237155   5.831   0.264  15.873 -0.4018  0.0548 -0.9871
 5222TIP3   OH237156   5.491   0.056   0.880  0.1031  0.0153  0.1171
 5222TIP3    H137157   5.541   0.132   0.850  0.0045 -0.7517 -2.2310
 5222TIP3    H237158   5.555   0.002   0.925  0.3147  1.1531  1.2552
 5223TIP3   OH237159   0.489   2.196  11.675  0.0911  0.2317 -0.4687
 5223TIP3    H137160   0.516   2.109  11.706 -0.0037  0.1373 -0.6513
 5223TIP3    H237161   0.546   2.213  11.599 -0.6129 -0.1258 -1.0832
 5224TIP3   OH237162   0.265   6.030   4.184 -0.3920 -0.0718 -0.1418
 5224TIP3    H137163   0.189   5.977   4.160  0.4947 -1.3165 -0.3025
 5224TIP3    H237164   0.228   6.108   4.226 -1.7832 -0.1262 -1.2127
 5225TIP3   OH237165   0.276   6.579   4.803  0.3430  0.4284 -0.3930
 5225TIP3    H137166   0.318   6.562   4.719 -1.0387 -0.0322 -1.0267
 5225TIP3    H237167   0.183   6.589   4.782  0.1510  1.7939  0.8964
 5226TIP3   OH237168   6.711   3.140  17.064  0.3513  0.2304  0.4461
 5226TIP3    H137169   6.767   3.062  17.069  0.8332  0.6153  1.3889
 5226TIP3    H237170   6.675   3.138  16.976 -0.5496 -1.6801  0.8089
 5227TIP3   OH237171   1.919   0.310   0.639 -0.5446 -0.1647 -0.5551
 5227TIP3    H137172   1.945   0.339   0.552  0.6329 -0.4736 -0.3216
 5227TIP3    H237173   1.924   0.389   0.693 -2.0968  0.2136 -0.9185
 5228TIP3   OH237174   5.529   3.543   0.393 -0.1115 -0.3487 -0.0124
 5228TIP3    H137175   5.514   3.585   0.309 -2.4956  1.0431  1.0139
 5228TIP3    H237176   5.588   3.602   0.440 -3.0944  1.8765  1.2523
 5229TIP3   OH237177   3.137   5.876   5.539 -0.3286  0.1853  0.1867
 5229TIP3    H137178   3.154   5.893   5.632 -1.3948  0.7816  0.2928
 5229TIP3    H237179   3.223   5.864   5.500  0.3522  2.8435  0.7073
 5230TIP3   OH237180   5.224   1.399  11.572  0.2938  0.6198  0.4216
 5230TIP3    H137181   5.245   1.330  11.509  0.2318 -2.0115  3.0634
 5230TIP3    H237182   5.300   1.457  11.571  2.0227 -1.5033  0.5749
 5231TIP3   OH237183   6.002   5.394  12.999  0.1282 -0.0144  0.6622
 5231TIP3    H137184   6.031   5.448  13.073  0.4040 -1.7910  1.9207
 5231TIP3    H237185   5.981   5.309  13.038  0.2943 -1.0282 -1.3140
 5232TIP3   OH237186   3.616   1.887  12.360 -0.0251 -0.5800 -0.5244
 5232TIP3    H137187   3.690   1.846  12.314 -0.0090  0.0925 -1.1197
 5232TIP3    H237188   3.570   1.936  12.292 -0.5133 -0.2833  0.0133
 5233TIP3   OH237189   4.607   0.097   1.568  0.0303  0.0910  0.9320
 5233TIP3    H137190   4.608   0.189   1.594  1.0418  0.4541 -0.2783
 5233TIP3    H237191   4.550   0.095   1.491 -0.7062 -0.4698  1.4774
 5234TIP3   OH237192   6.123   0.383  16.103  0.3322 -0.0248  0.4215
 5234TIP3    H137193   6.108   0.418  16.016  0.2341 -1.2794 -0.0836
 5234TIP3    H237194   6.144   0.290  16.089  0.8052 -0.1289  1.6885
 5235TIP3   OH237195   6.784   4.480   3.890  0.0279  0.2823  0.1913
 5235TIP3    H137196   6.798   4.549   3.954  0.3509  0.1659  0.2449
 5235TIP3    H237197   6.714   4.426   3.927  0.8698 -0.3445  0.8997
 5236TIP3   OH237198   5.614   1.543  16.949 -0.2232 -0.2629  0.5330
 5236TIP3    H137199   5.578   1.468  16.902  1.3217 -0.1808 -0.8739
 5236TIP3    H237200   5.677   1.505  17.010 -0.6983 -0.2253  1.0487
 5237TIP3   OH237201   3.982   5.149   4.696 -0.0399  0.2372  0.0564
 5237TIP3    H137202   3.928   5.158   4.774  1.7912 -2.4800  1.8129
 5237TIP3    H237203   4.068   5.184   4.721  0.3914 -0.0137 -0.9971
 5238TIP3   OH237204   2.321   5.834   0.904 -0.3905 -0.6106 -0.0946
 5238TIP3    H137205   2.384   5.884   0.852  0.6368 -0.6010  1.0895
 5238TIP3    H237206   2.246   5.892   0.913 -1.5531 -1.4291 -3.3297
 5239TIP3   OH237207   5.121   5.985   1.394  0.3181  0.2138 -0.3747
 5239TIP3    H137208   5.044   6.035   1.366  0.9859  1.2164 -0.4517
 5239TIP3    H237209   5.160   5.954   1.313 -0.0977 -0.4466 -0.3266
 5240TIP3   OH237210   6.342   2.658  12.913 -0.2664  0.0854  0.1116
 5240TIP3    H137211   6.253   2.677  12.884 -0.0507  0.5896 -0.2247
 5240TIP3    H237212   6.390   2.640  12.832 -0.0692 -0.2423  0.2974
 5241TIP3   OH237213   6.234   6.033  12.366 -0.4381  0.6968 -0.3406
 5241TIP3    H137214   6.292   6.058  12.438  1.0844 -2.5845 -0.2265
 5241TIP3    H237215   6.288   6.044  12.287  0.4064 -2.0080 -0.2645
 5242TIP3   OH237216   0.242   5.018   2.540  0.1298 -0.2667  0.5095
 5242TIP3    H137217   0.304   5.079   2.581  0.3528  0.8395 -1.3716
 5242TIP3    H237218   0.288   4.986   2.462 -1.1616 -0.4197 -0.2104
 5243TIP3   OH237219   4.696   3.542   4.624 -0.1169 -0.1656 -0.5397
 5243TIP3    H137220   4.638   3.468   4.640 -1.5858  1.3516  1.8137
 5243TIP3    H237221   4.638   3.617   4.613  1.3469  1.0536 -0.4397
 5244TIP3   OH237222   5.168   2.287  10.775 -0.2456  0.2787 -0.4775
 5244TIP3    H137223   5.113   2.210  10.758 -0.5922  0.6099 -0.8543
 5244TIP3    H237224   5.176   2.331  10.690  0.1512  0.5340 -0.3138
 5245TIP3   OH237225   6.021   1.478  12.186 -0.1053 -0.3370  0.0172
 5245TIP3    H137226   6.113   1.501  12.177 -0.5755  1.9667  0.6313
 5245TIP3    H237227   6.015   1.433  12.270  0.5188 -1.0192 -0.2916
 5246TIP3   OH237228   0.702   3.232  13.261  0.5486 -0.2836 -0.6405
 5246TIP3    H137229   0.633   3.170  13.288 -0.1701  0.1287 -1.4694
 5246TIP3    H237230   0.694   3.237  13.166  0.0370  1.6836 -0.5518
 5247TIP3   OH237231   5.464   6.673   2.023  0.0504  0.6083 -0.1256
 5247TIP3    H137232   5.516   6.737   1.975  1.0218  1.3248  1.7606
 5247TIP3    H237233   5.491   6.684   2.114 -2.3048 -0.0751  0.7408
 5248TIP3   OH237234   0.910   5.183   4.075  0.2900 -0.3276 -0.3554
 5248TIP3    H137235   0.895   5.249   4.007 -0.8321 -2.6113 -2.4735
 5248TIP3    H237236   0.823   5.150   4.097  0.8343 -1.2660  0.4989
 5249TIP3   OH237237   3.386   4.728  11.175  0.2246 -0.1197 -0.5809
 5249TIP3    H137238   3.440   4.724  11.254 -0.0232 -0.2319 -0.4178
 5249TIP3    H237239   3.449   4.730  11.103  0.4804  1.2275 -0.3436
 5250TIP3   OH237240   0.467   0.001  17.043 -0.0558 -0.0366  0.1862
 5250TIP3    H137241   0.486  -0.090  17.064  0.8053  0.6130  2.5235
 5250TIP3    H237242   0.552   0.046  17.052 -0.3043  0.8998 -1.6850
 5251TIP3   OH237243   5.390   5.236   1.089  0.0799  0.1825 -0.6068
 5251TIP3    H137244   5.319   5.300   1.085  1.7819  2.1644 -0.8219
 5251TIP3    H237245   5.361   5.172   1.154 -2.1391  0.5603 -1.1380
 5252TIP3   OH237246   0.012   0.554  12.945 -0.0174  0.1839 -0.2970
 5252TIP3    H137247   0.082   0.496  12.974 -0.1415 -0.2789 -0.9050
 5252TIP3    H237248  -0.055   0.546  13.012  0.8194  1.2451  0.7175
 5253TIP3   OH237249   3.339   4.707   4.985  0.0654  0.4865  0.4771
 5253TIP3    H137250   3.306   4.640   4.924 -0.1713  1.6038 -0.6633
 5253TIP3    H237251   3.264   4.728   5.041 -0.2163  0.6559  0.0429
 5254TIP3   OH237252   3.222   1.425  13.639 -0.6408 -0.1153 -0.2196
 5254TIP3    H137253   3.200   1.359  13.705  0.2953  1.3359  1.6469
 5254TIP3    H237254   3.293   1.475  13.679 -0.0461  0.8503 -2.3621
 5255TIP3   OH237255   1.468   1.638  14.894 -0.0336  0.3035  0.1967
 5255TIP3    H137256   1.460   1.694  14.972 -0.1809 -0.0287  0.4227
 5255TIP3    H237257   1.379   1.609  14.876 -0.0390  0.6162 -0.2731
 5256TIP3   OH237258   2.119   3.175   3.840  0.2470 -0.3063 -0.5660
 5256TIP3    H137259   2.128   3.085   3.872  0.6636 -0.2353 -0.4695
 5256TIP3    H237260   2.072   3.221   3.909  0.2453 -0.3935 -0.5089
 5257TIP3   OH237261   5.212   0.714  16.634 -0.0681  0.0949 -0.3385
 5257TIP3    H137262   5.127   0.721  16.678 -0.5905 -1.9212 -0.9308
 5257TIP3    H237263   5.194   0.740  16.543  0.1995  0.6982 -0.2227
 5258TIP3   OH237264   4.499   5.441  16.469 -0.2796  0.1169 -0.2408
 5258TIP3    H137265   4.440   5.495  16.416  0.0980  0.6326 -0.1533
 5258TIP3    H237266   4.466   5.352  16.459 -0.4607  0.2610 -1.0065
 5259TIP3   OH237267   5.304   1.969   4.029 -0.1873 -0.4911 -0.0032
 5259TIP3    H137268   5.383   2.005   4.071  1.2658 -2.2430 -1.0584
 5259TIP3    H237269   5.286   1.888   4.077 -0.4731 -0.8265 -0.6633
 5260TIP3   OH237270   4.013   6.017   1.332  0.2357 -0.9406 -0.4833
 5260TIP3    H137271   4.001   6.010   1.237  2.4097  1.7956 -1.0880
 5260TIP3    H237272   4.101   5.985   1.348 -0.3019 -1.8787  0.7426
 5261TIP3   OH237273   5.973   1.512   4.072  0.2016  0.0635 -0.8551
 5261TIP3    H137274   6.050   1.568   4.082  0.1446  0.3900 -2.0552
 5261TIP3    H237275   5.996   1.452   4.001 -0.6287  0.1435 -1.2093
 5262TIP3   OH237276   0.422   3.708   2.900  0.4401 -0.0710 -0.2401
 5262TIP3    H137277   0.429   3.613   2.888  1.3612 -0.3209  1.8828
 5262TIP3    H237278   0.483   3.744   2.836  0.3962 -0.9073 -0.7820
 5263TIP3   OH237279   1.145   1.613   1.303 -0.6439 -0.0906 -0.4261
 5263TIP3    H137280   1.051   1.633   1.303 -0.7275 -0.4279 -1.1149
 5263TIP3    H237281   1.155   1.552   1.230 -0.1205 -1.2102  0.5568
 5264TIP3   OH237282   1.130   2.664   3.863 -0.5997  0.1059  0.2121
 5264TIP3    H137283   1.065   2.711   3.917 -2.6729 -2.0657 -0.2361
 5264TIP3    H237284   1.210   2.667   3.916 -1.4547  1.4937  1.5500
 5265TIP3   OH237285   3.033   5.724   2.483  0.4766  0.5828 -0.1397
 5265TIP3    H137286   3.069   5.807   2.453  1.0742  0.7382  0.9363
 5265TIP3    H237287   3.080   5.706   2.564  0.3812 -0.8332 -0.3851
 5266TIP3   OH237288   4.256   2.104   4.246  0.1265  0.8569  0.3505
 5266TIP3    H137289   4.173   2.152   4.257  0.1993  1.3545 -1.0516
 5266TIP3    H237290   4.298   2.109   4.331 -1.2712  0.6262  1.0873
 5267TIP3   OH237291   4.555   3.326  11.596  0.2031  0.4761  0.0991
 5267TIP3    H137292   4.488   3.265  11.564  0.8115 -0.8603  1.2546
 5267TIP3    H237293   4.633   3.305  11.545  1.0915 -1.4567  2.0610
 5268TIP3   OH237294   3.133   1.728   2.496  0.9142  0.1711 -0.6496
 5268TIP3    H137295   3.147   1.780   2.576 -2.2757 -1.3096  1.0669
 5268TIP3    H237296   3.115   1.640   2.528 -1.1044 -0.3365 -2.9075
 5269TIP3   OH237297   5.696   2.497   1.089  0.2909 -0.1869  0.2283
 5269TIP3    H137298   5.737   2.510   1.175  0.9761 -2.0730  0.2134
 5269TIP3    H237299   5.690   2.402   1.079  0.4445 -0.0108 -1.9203
 5270TIP3   OH237300   6.599   2.823   5.569  0.5897  0.5719  0.3594
 5270TIP3    H137301   6.671   2.881   5.594  1.8835 -0.7127 -0.2934
 5270TIP3    H237302   6.640   2.752   5.521 -1.3894  1.0175 -2.1967
 5271TIP3   OH237303   6.245   1.149  12.752 -0.0556  0.2009 -0.1146
 5271TIP3    H137304   6.300   1.188  12.684  0.7841 -1.5918 -0.5039
 5271TIP3    H237305   6.165   1.123  12.706  0.5134 -1.0151 -0.4481
 5272TIP3   OH237306   0.009   3.830   1.520 -0.3138 -0.0807 -0.2730
 5272TIP3    H137307   0.100   3.824   1.550 -0.6331  1.5550  1.2114
 5272TIP3    H237308   0.005   3.915   1.475 -1.1534 -0.0165 -0.0899
 5273TIP3   OH237309   5.880   6.496   0.001  0.1665 -0.2573 -0.5696
 5273TIP3    H137310   5.786   6.481  -0.012  0.1982 -1.8117  0.7008
 5273TIP3    H237311   5.885   6.543   0.084  0.5166 -0.3475 -0.5396
 5274TIP3   OH237312   2.905   4.781  16.426  0.1782  0.0468 -0.2032
 5274TIP3    H137313   2.985   4.742  16.390  0.1421  0.0428 -0.2794
 5274TIP3    H237314   2.834   4.736  16.379  0.1362  0.1946 -0.2793
 5275TIP3   OH237315   2.031   4.287  16.506  0.3988 -0.3087 -0.3244
 5275TIP3    H137316   1.947   4.326  16.530 -0.4001 -0.7319 -2.2858
 5275TIP3    H237317   2.091   4.313  16.577 -1.1316  0.8072  0.6089
 5276TIP3   OH237318   1.790   2.397   0.189 -0.1860  0.0923 -0.5460
 5276TIP3    H137319   1.712   2.428   0.144 -0.3266 -0.7170 -0.8838
 5276TIP3    H237320   1.804   2.308   0.155  0.8484  0.2029 -0.4566
 5277TIP3   OH237321   0.084   0.156  14.295  0.1107 -0.1237  0.0583
 5277TIP3    H137322   0.070   0.225  14.361 -1.0129  0.4417 -0.7485
 5277TIP3    H237323   0.003   0.106  14.295  0.1654 -0.2259 -0.7703
 5278TIP3   OH237324   6.398   0.252  12.640 -0.1912 -0.4417  0.3100
 5278TIP3    H137325   6.318   0.200  12.636  0.0899 -0.8380 -0.2242
 5278TIP3    H237326   6.457   0.210  12.577 -0.6978  1.7732 -1.7792
 5279TIP3   OH237327   0.185   4.109  10.856  0.8259 -0.0317 -0.3904
 5279TIP3    H137328   0.228   4.115  10.771  1.5181  1.5636  0.0302
 5279TIP3    H237329   0.131   4.031  10.850  1.0905 -0.1228 -2.1849
 5280TIP3   OH237330   5.688   5.933   5.645 -0.1334 -0.3079  0.6895
 5280TIP3    H137331   5.602   5.974   5.646 -0.2610 -0.5718  1.3629
 5280TIP3    H237332   5.742   5.990   5.590  0.1581  1.7938  2.9773
 5281TIP3   OH237333   0.287   3.767  16.093 -0.0172  0.0479 -0.4009
 5281TIP3    H137334   0.259   3.750  16.004 -0.2006  0.5537 -0.4402
 5281TIP3    H237335   0.338   3.689  16.118  0.9550  0.3735 -1.3221
 5282TIP3   OH237336   2.185   6.607   0.858  0.0015 -0.0423  0.0459
 5282TIP3    H137337   2.192   6.599   0.953  0.9717 -2.5845 -0.1502
 5282TIP3    H237338   2.093   6.631   0.843 -0.0757  0.7521  1.6235
 5283TIP3   OH237339   5.029   0.564  12.439  0.6167  0.1174 -0.0680
 5283TIP3    H137340   4.957   0.624  12.460  1.1556  0.4402  0.9715
 5283TIP3    H237341   5.058   0.590  12.352 -0.4199  0.0828 -0.4313
 5284TIP3   OH237342   2.901   4.067   5.017 -0.1537  0.3467  0.0825
 5284TIP3    H137343   2.817   4.038   5.054  0.1795 -0.4242  0.2307
 5284TIP3    H237344   2.912   4.014   4.939  0.4407  0.1001  0.3335
 5285TIP3   OH237345   5.960   0.784   3.321  0.3959 -0.3324 -0.7076
 5285TIP3    H137346   5.898   0.835   3.268  0.8376 -1.1442 -2.0566
 5285TIP3    H237347   6.013   0.851   3.366 -0.4431  0.3741 -0.7487
 5286TIP3   OH237348   1.919   6.265   4.352 -0.0072 -0.2459  0.0730
 5286TIP3    H137349   2.001   6.233   4.314  0.4019  0.9449 -0.0858
 5286TIP3    H237350   1.885   6.327   4.288  0.2494  1.1381  1.2113
 5287TIP3   OH237351   4.872   3.390   0.503  0.5220 -0.5374 -0.2301
 5287TIP3    H137352   4.870   3.346   0.418 -0.0016  1.7164 -1.4796
 5287TIP3    H237353   4.803   3.348   0.554  0.6069 -1.6909 -1.0383
 5288TIP3   OH237354   5.978   6.598  14.048 -0.2935  0.4249 -0.6170
 5288TIP3    H137355   5.896   6.646  14.031 -0.7021  0.0810  0.3308
 5288TIP3    H237356   5.970   6.519  13.994 -0.8220  0.1454 -0.1374
 5289TIP3   OH237357   5.149   5.541  16.856  0.0471  0.5281 -0.3058
 5289TIP3    H137358   5.061   5.511  16.833  0.1750  0.1720 -0.3401
 5289TIP3    H237359   5.166   5.502  16.942 -0.0992  1.1657  0.0145
 5290TIP3   OH237360   6.045   2.583  14.034 -0.6379  0.4495 -0.1816
 5290TIP3    H137361   6.133   2.556  14.008 -1.4853 -1.9269 -0.8351
 5290TIP3    H237362   6.058   2.661  14.088  1.8862 -0.0366  0.0004
 5291TIP3   OH237363   2.500   5.255   0.231  0.0512  0.0146  0.6780
 5291TIP3    H137364   2.445   5.228   0.158  1.0240  2.0180 -0.9017
 5291TIP3    H237365   2.590   5.248   0.197  0.6697 -0.7951  2.3428
 5292TIP3   OH237366   1.352   6.577   3.932 -0.4757  0.4715 -0.2959
 5292TIP3    H137367   1.268   6.565   3.976 -0.5661 -0.4056 -0.6687
 5292TIP3    H237368   1.331   6.575   3.838  0.2146 -2.5279 -0.4912
 5293TIP3   OH237369   4.395   4.103  12.233  0.3881  0.2426 -0.1298
 5293TIP3    H137370   4.327   4.140  12.289  1.3466  2.3856 -0.2897
 5293TIP3    H237371   4.463   4.073  12.294 -0.3932 -1.4329 -0.0007
 5294TIP3   OH237372   5.164   5.195   1.322  0.0151 -0.5112 -0.3829
 5294TIP3    H137373   5.201   5.282   1.336 -0.4179 -0.4887  0.6750
 5294TIP3    H237374   5.071   5.211   1.306 -0.3125 -0.8424  1.0411
 5295TIP3   OH237375   3.347   5.213  17.182 -0.2997 -0.9563  0.4868
 5295TIP3    H137376   3.310   5.155  17.249  0.4569 -1.1492  0.7485
 5295TIP3    H237377   3.299   5.295  17.194 -0.6092 -1.1813  0.8518
 5296TIP3   OH237378   5.633   0.883  12.397 -0.0523  0.4101 -0.1032
 5296TIP3    H137379   5.632   0.805  12.453  0.8024 -0.7397 -1.6100
 5296TIP3    H237380   5.705   0.868  12.335 -1.7578  0.9513 -2.3846
 5297TIP3   OH237381   4.366   0.333   3.147  0.2380  0.2433  0.1366
 5297TIP3    H137382   4.405   0.298   3.067 -0.3493  2.2674 -1.1238
 5297TIP3    H237383   4.441   0.361   3.200  0.6076  0.0468 -0.2750
 5298TIP3   OH237384   6.722   4.000  15.461 -0.3313 -0.0812 -0.6478
 5298TIP3    H137385   6.793   4.034  15.408 -0.2720 -1.1838 -1.3076
 5298TIP3    H237386   6.642   4.034  15.421 -0.2874 -0.8970 -1.4753
 5299TIP3   OH237387   4.023   1.328  12.450 -0.4116 -0.1907  0.1624
 5299TIP3    H137388   3.982   1.336  12.536 -0.6685  0.7458 -0.0326
 5299TIP3    H237389   3.950   1.312  12.390 -0.2922 -0.3514  0.0599
 5300TIP3   OH237390   5.756   6.394   4.133 -0.0344  0.2826  0.1306
 5300TIP3    H137391   5.758   6.376   4.227  0.5821 -0.8995 -0.0848
 5300TIP3    H237392   5.738   6.309   4.093  1.7058  0.3565 -0.9046
 5301TIP3   OH237393   1.010   0.473   5.023  0.3844  0.4372 -0.2522
 5301TIP3    H137394   1.023   0.388   4.981  0.6624  0.3435  0.0149
 5301TIP3    H237395   0.917   0.493   5.010 -0.2128 -0.9280  1.5679
 5302TIP3   OH237396   4.313   3.670  13.383 -0.3248  0.2427  0.0170
 5302TIP3    H137397   4.379   3.673  13.313  0.3033 -0.1285  0.5866
 5302TIP3    H237398   4.247   3.735  13.356  0.3188  0.6940 -0.5046
 5303TIP3   OH237399   2.609   0.520  13.615 -0.6841 -0.0915 -0.1417
 5303TIP3    H137400   2.544   0.464  13.573 -1.4221  0.9650 -0.4310
 5303TIP3    H237401   2.689   0.468  13.614 -0.4528  0.1082 -3.4897
 5304TIP3   OH237402   5.732   5.289   1.723 -0.1491 -0.4030  0.0126
 5304TIP3    H137403   5.707   5.370   1.679  2.1480 -0.1354 -0.9353
 5304TIP3    H237404   5.785   5.318   1.797 -0.1372 -1.0112  0.2489
 5305TIP3   OH237405   6.518   4.497   1.028  0.5965 -0.7785 -0.0277
 5305TIP3    H137406   6.596   4.451   0.995  1.6599  1.5903 -1.0911
 5305TIP3    H237407   6.535   4.589   1.007 -3.1783 -0.3050 -1.6519
 5306TIP3   OH237408   4.359   0.749  12.183  0.2203  0.3099  0.4041
 5306TIP3    H137409   4.359   0.770  12.276  0.2369  0.3510  0.3948
 5306TIP3    H237410   4.420   0.811  12.144  2.4249 -1.5142  0.7766
 5307TIP3   OH237411   2.160   6.430   4.247  0.0910 -0.6659 -0.1561
 5307TIP3    H137412   2.182   6.338   4.228 -0.1752 -0.5649 -1.0340
 5307TIP3    H237413   2.216   6.480   4.188 -0.2365 -0.2894 -0.1477
 5308TIP3   OH237414   6.293   6.615  16.653  0.2927  0.8994  0.7586
 5308TIP3    H137415   6.330   6.665  16.726  0.1070 -1.4887  2.6263
 5308TIP3    H237416   6.200   6.606  16.675  0.4406 -0.7405  0.8138
 5309TIP3   OH237417   1.672   2.944   2.587  0.4645 -0.3852  0.2721
 5309TIP3    H137418   1.724   2.891   2.648  3.6270  1.2764 -0.7212
 5309TIP3    H237419   1.663   3.029   2.631  0.7315  0.0940 -0.5718
 5310TIP3   OH237420   1.750   2.321   1.361 -0.1862 -0.9359  0.0358
 5310TIP3    H137421   1.807   2.394   1.338 -0.3972 -0.2481  1.5911
 5310TIP3    H237422   1.674   2.331   1.304  0.4814 -0.8963 -0.8804
 5311TIP3   OH237423   2.397   0.981   1.719 -0.5089  0.1759  0.2762
 5311TIP3    H137424   2.377   1.063   1.672  3.2645  0.9531 -0.2875
 5311TIP3    H237425   2.345   0.987   1.799 -1.1871  2.6173 -0.2423
 5312TIP3   OH237426   3.917   2.869   1.479  0.5613 -0.0682 -0.4518
 5312TIP3    H137427   3.954   2.783   1.458 -1.5230 -0.7518 -1.5782
 5312TIP3    H237428   3.983   2.931   1.447  1.1616 -1.2338 -1.6045
 5313TIP3   OH237429   4.010   3.104   1.004 -0.4028  0.3839  0.0423
 5313TIP3    H137430   4.028   3.019   1.044  0.1060  0.0249 -0.9159
 5313TIP3    H237431   4.027   3.168   1.074  1.4696 -0.1555  0.1064
 5314TIP3   OH237432   1.486   0.654   2.624 -0.3092 -0.1125  0.4810
 5314TIP3    H137433   1.570   0.609   2.620  0.1749  0.8210 -0.2640
 5314TIP3    H237434   1.498   0.725   2.686 -0.3450  0.3937 -0.0738
 5315TIP3   OH237435   5.923   4.415   2.135  0.1777  0.0949  0.3952
 5315TIP3    H137436   5.971   4.352   2.082  1.0029  1.9612 -1.2233
 5315TIP3    H237437   5.912   4.373   2.220  0.6638 -2.1851 -0.6078
 5316TIP3   OH237438   5.524   3.979  15.539 -0.3836 -0.4355  0.1916
 5316TIP3    H137439   5.565   4.057  15.501  0.6017 -1.0726 -0.0914
 5316TIP3    H237440   5.453   3.959  15.479  1.5615 -1.8263 -1.8304
 5317TIP3   OH237441   3.460   0.437  15.750  0.3046  0.0575  0.0433
 5317TIP3    H137442   3.532   0.420  15.690  0.9589 -0.1310  0.8619
 5317TIP3    H237443   3.468   0.369  15.817  0.2373  0.8833  0.9137
 5318TIP3   OH237444   4.395   5.123   0.407  0.1828  0.2733  0.1564
 5318TIP3    H137445   4.346   5.088   0.333 -1.0648  1.5603  0.3154
 5318TIP3    H237446   4.469   5.169   0.368 -0.0929  0.3711 -0.2564
 5319TIP3   OH237447   3.120   0.148  15.562 -0.1035  0.0435  0.1015
 5319TIP3    H137448   3.195   0.091  15.580  0.9372  0.8358 -1.4902
 5319TIP3    H237449   3.053   0.088  15.528 -0.2626 -0.6761  1.5723
 5320TIP3   OH237450   0.181   4.124  12.994  0.2369 -0.7809 -0.3105
 5320TIP3    H137451   0.251   4.189  12.984  0.2307 -0.7019  0.1367
 5320TIP3    H237452   0.127   4.158  13.065 -0.1278 -0.9587 -0.5030
 5321TIP3   OH237453   1.256   1.184   0.070  0.3843  0.5688 -0.5811
 5321TIP3    H137454   1.293   1.207  -0.016  1.6430 -0.4165 -0.3216
 5321TIP3    H237455   1.309   1.234   0.132  0.1582  0.4620 -0.3059
 5322TIP3   OH237456   5.474   2.051   0.478 -0.1529  0.2724  0.0780
 5322TIP3    H137457   5.527   1.973   0.463  0.3281  0.6445 -0.1690
 5322TIP3    H237458   5.408   2.023   0.542 -3.1326 -1.8159 -3.5029
 5323TIP3   OH237459   1.171   1.197   1.357 -0.8215 -0.3644  0.5843
 5323TIP3    H137460   1.247   1.230   1.405 -0.1000 -0.8111 -0.2148
 5323TIP3    H237461   1.108   1.269   1.359 -0.3510  0.0393  1.2099
 5324TIP3   OH237462   2.745   0.820   3.220  0.3895  0.0239 -0.7002
 5324TIP3    H137463   2.781   0.799   3.134  2.8616  1.3383 -0.1017
 5324TIP3    H237464   2.657   0.784   3.219  1.0589 -1.8183 -3.0191
 5325TIP3   OH237465   0.680   1.154   0.112  1.0449 -0.2043 -0.1898
 5325TIP3    H137466   0.614   1.087   0.124  2.3325 -1.5470 -0.3553
 5325TIP3    H237467   0.730   1.154   0.193  1.6013 -0.0570 -0.5246
 5326TIP3   OH237468   4.096   1.865   3.647 -0.1509 -0.0232 -0.2048
 5326TIP3    H137469   4.123   1.957   3.649 -1.6667  0.4600 -0.8314
 5326TIP3    H237470   4.166   1.818   3.694  1.2584  1.2770 -0.9294
 5327TIP3   OH237471   1.603   0.534  16.124 -0.2622 -0.0459 -0.8866
 5327TIP3    H137472   1.615   0.453  16.174  0.2735  1.4279  1.5417
 5327TIP3    H237473   1.692   0.560  16.100 -0.0579  1.4037  1.1588
 5328TIP3   OH237474   5.477   5.448  12.365  0.2480 -0.2255  0.2965
 5328TIP3    H137475   5.558   5.399  12.382  0.3984  0.5859  2.1306
 5328TIP3    H237476   5.432   5.450  12.450 -0.4970  1.4613 -0.1045
 5329TIP3   OH237477   3.030   2.506   1.139  0.1854  0.0026  0.2162
 5329TIP3    H137478   3.047   2.447   1.212  2.9069  0.8995  0.4400
 5329TIP3    H237479   3.107   2.497   1.083 -0.2255  1.8716 -0.7346
 5330TIP3   OH237480   6.464   5.963  14.526 -0.2871 -0.0848 -0.1755
 5330TIP3    H137481   6.493   5.896  14.464  2.2043 -1.4636  2.2791
 5330TIP3    H237482   6.369   5.954  14.529 -0.0741 -3.4347 -0.1072
 5331TIP3   OH237483   5.705   1.393   5.196  0.0813  0.2039  0.9215
 5331TIP3    H137484   5.613   1.390   5.170  0.7184  0.9983 -1.6100
 5331TIP3    H237485   5.746   1.322   5.147  1.5438  2.4705 -1.3298
 5332TIP3   OH237486   2.456   6.119   5.123 -0.2976  0.1431  0.3761
 5332TIP3    H137487   2.360   6.122   5.116 -0.1999  0.7544 -0.9815
 5332TIP3    H237488   2.477   6.026   5.127 -0.9583  0.0132  1.0994
 5333TIP3   OH237489   3.679   0.478  14.344 -0.2142  0.1190  0.9204
 5333TIP3    H137490   3.673   0.422  14.267 -0.1100  0.6363  0.5397
 5333TIP3    H237491   3.718   0.421  14.411  0.9173  0.0574  0.2284
 5334TIP3   OH237492   1.816   6.631  12.518 -0.3358 -0.2920 -0.0830
 5334TIP3    H137493   1.738   6.659  12.567 -0.5681 -2.1018  0.6436
 5334TIP3    H237494   1.800   6.540  12.496  1.3467 -0.5426 -0.4089
 5335TIP3   OH237495   0.577   4.641   6.042  0.1351  0.3137  0.1959
 5335TIP3    H137496   0.628   4.618   6.120  0.3842 -0.0122 -0.0609
 5335TIP3    H237497   0.609   4.728   6.018  0.2594  0.2952  0.2897
 5336TIP3   OH237498   1.073   0.113   4.123  0.3378 -0.7536 -0.1735
 5336TIP3    H137499   1.059   0.109   4.029 -0.9806  1.7575 -0.1878
 5336TIP3    H237500   1.136   0.184   4.135  1.0972 -1.5579  0.8266
 5337TIP3   OH237501   4.382   1.127  15.277 -0.7357 -0.1538 -0.5035
 5337TIP3    H137502   4.427   1.107  15.359  0.9978  2.8744 -0.5690
 5337TIP3    H237503   4.396   1.050  15.222  1.3373 -0.7254  0.7384
 5338TIP3   OH237504   3.672   1.035   3.884 -0.1089 -0.1206  0.3361
 5338TIP3    H137505   3.583   1.072   3.886 -0.1753 -0.2951  0.6516
 5338TIP3    H237506   3.684   0.997   3.971  1.2485  2.1743  1.2455
 5339TIP3   OH237507   5.125   4.827   6.169 -0.8394  0.0360  0.0237
 5339TIP3    H137508   5.037   4.849   6.200 -1.3753  0.7335 -1.8821
 5339TIP3    H237509   5.118   4.828   6.074  1.2549  0.1431 -0.1690
 5340TIP3   OH237510   6.372   0.524  12.459  0.0776 -0.9691 -0.2126
 5340TIP3    H137511   6.337   0.444  12.500 -1.8700 -0.0095  0.0833
 5340TIP3    H237512   6.430   0.561  12.525 -1.2322 -0.6692  0.8101
 5341TIP3   OH237513   4.443   2.325  14.189 -0.3482  0.2994  0.4696
 5341TIP3    H137514   4.486   2.339  14.105 -0.8331  0.6461  0.2782
 5341TIP3    H237515   4.498   2.260  14.233  0.2699  0.5914  0.1505
 5342TIP3   OH237516   6.002   1.080   4.851  0.1325  0.4756  0.1056
 5342TIP3    H137517   5.937   1.015   4.823 -0.3954  0.5668  1.0750
 5342TIP3    H237518   6.038   1.115   4.769 -1.0681  0.4577 -0.4503
 5343TIP3   OH237519   3.088   1.000  16.269 -0.5139 -0.2609  0.2922
 5343TIP3    H137520   3.141   1.076  16.294 -0.1050 -0.3611 -0.2458
 5343TIP3    H237521   3.062   1.017  16.179 -0.8016 -0.5480  0.3195
 5344TIP3   OH237522   3.384   6.557   2.970 -0.2302  0.0598  0.0878
 5344TIP3    H137523   3.293   6.578   2.952 -0.0268  0.4968 -0.4541
 5344TIP3    H237524   3.410   6.619   3.037 -1.0376 -1.6783  2.1523
 5345TIP3   OH237525   4.981   3.719  17.111 -0.2290  0.3626  0.6662
 5345TIP3    H137526   5.073   3.703  17.133  0.1696  1.1750 -0.3271
 5345TIP3    H237527   4.962   3.805  17.148 -0.4041  0.4700  0.3288
 5346TIP3   OH237528   0.437   6.530  16.020 -0.1536  0.0638 -0.0652
 5346TIP3    H137529   0.466   6.487  16.100 -2.1945 -1.0524  0.1438
 5346TIP3    H237530   0.492   6.608  16.013  0.0907  0.1905  2.3942
 5347TIP3   OH237531   6.470   4.494  14.319  0.3310 -0.3424  0.5112
 5347TIP3    H137532   6.454   4.457  14.232  1.0286 -0.5309  0.4637
 5347TIP3    H237533   6.460   4.589  14.307 -1.2122 -0.4711  0.5818
 5348TIP3   OH237534   2.532   0.402  14.147  0.0041  0.2805  0.4540
 5348TIP3    H137535   2.438   0.383  14.148 -0.0481  0.5228  1.5482
 5348TIP3    H237536   2.547   0.445  14.063 -0.8821  0.3214  0.3084
 5349TIP3   OH237537   5.642   0.129   1.663 -0.6007  0.2958  0.3305
 5349TIP3    H137538   5.665   0.220   1.681 -2.4639  1.5042 -2.5865
 5349TIP3    H237539   5.694   0.105   1.586 -1.1129 -0.6163  0.2487
 5350TIP3   OH237540   5.818   4.175  12.413 -0.6117 -0.8690  0.0650
 5350TIP3    H137541   5.780   4.192  12.500  0.4324 -0.7849  0.5225
 5350TIP3    H237542   5.860   4.258  12.389  1.7549 -1.7353  0.8751
 5351TIP3   OH237543   2.761   4.607   2.410  0.2542 -0.8320 -0.8634
 5351TIP3    H137544   2.731   4.524   2.446  0.6140 -0.2790  0.8381
 5351TIP3    H237545   2.682   4.662   2.407  0.2378 -0.8512 -0.7938
 5352TIP3   OH237546   3.471   3.986  15.036  0.1458  0.2796 -0.0630
 5352TIP3    H137547   3.407   4.057  15.045  0.7625  0.7419  0.7441
 5352TIP3    H237548   3.555   4.030  15.027  0.3801 -0.3288 -1.0967
 5353TIP3   OH237549   5.334   6.737  13.246  0.0607 -0.4065  0.1662
 5353TIP3    H137550   5.290   6.667  13.294 -0.1907  0.6302  1.5207
 5353TIP3    H237551   5.404   6.766  13.305  1.0518 -0.4379 -0.9636
 5354TIP3   OH237552   6.472   3.410   2.739  0.1454  0.7477  0.5483
 5354TIP3    H137553   6.376   3.404   2.741  0.0209  1.4152 -1.1695
 5354TIP3    H237554   6.490   3.501   2.763  0.3712  0.5729  1.0539
 5355TIP3   OH237555   1.348   3.881   3.551  0.0117  0.2217 -0.3606
 5355TIP3    H137556   1.400   3.924   3.619 -0.5807  1.9060 -0.9113
 5355TIP3    H237557   1.351   3.788   3.573  1.3029  0.5399  0.9356
 5356TIP3   OH237558   1.081   0.736   3.970 -0.7289  0.2944 -0.0639
 5356TIP3    H137559   1.152   0.673   3.964 -1.8030 -0.8520 -1.7720
 5356TIP3    H237560   1.033   0.712   4.049 -1.4482 -1.4628 -0.9738
 5357TIP3   OH237561   3.676   6.691   2.878  0.4029 -0.2787  0.4180
 5357TIP3    H137562   3.739   6.728   2.939  0.3621 -1.0951  0.9592
 5357TIP3    H237563   3.662   6.602   2.908  0.1465 -0.5969 -0.6014
 5358TIP3   OH237564   5.596   4.501   1.140  0.5741  0.1175 -0.2460
 5358TIP3    H137565   5.526   4.443   1.172  1.0434 -0.4808 -0.2728
 5358TIP3    H237566   5.554   4.557   1.075 -0.2880  1.0194  1.0547
 5359TIP3   OH237567   2.170   5.881  13.541 -0.0030  0.1625 -0.1571
 5359TIP3    H137568   2.260   5.908  13.560  0.1552 -1.0694  1.0639
 5359TIP3    H237569   2.170   5.864  13.447  0.8790  0.7510 -0.2773
 5360TIP3   OH237570   3.804   5.382  17.038  0.2128 -0.2658  0.4165
 5360TIP3    H137571   3.820   5.384  17.133  0.1733  1.2668  0.4171
 5360TIP3    H237572   3.720   5.337  17.029  0.6658 -1.2871  1.0128
 5361TIP3   OH237573   3.971   6.041  14.548 -0.0773 -0.6312 -0.1253
 5361TIP3    H137574   4.016   6.023  14.465 -0.8765 -1.0804 -0.4736
 5361TIP3    H237575   4.034   6.014  14.615  0.9755  0.6628 -0.5449
 5362TIP3   OH237576   6.423   2.163   4.148 -0.6880  0.1326  0.5285
 5362TIP3    H137577   6.400   2.237   4.205  2.2398  1.6156 -0.0251
 5362TIP3    H237578   6.472   2.103   4.204 -0.3406  0.1686  0.2704
 5363TIP3   OH237579   4.537   1.707  12.749  0.4553  0.0897 -0.4932
 5363TIP3    H137580   4.553   1.795  12.781  0.2994  0.7446 -2.0973
 5363TIP3    H237581   4.445   1.690  12.771  0.8871 -0.2878  1.1295
 5364TIP3   OH237582   2.427   1.845  17.165  0.4213 -0.2953 -0.0930
 5364TIP3    H137583   2.428   1.852  17.260  0.9882  1.3318 -0.1797
 5364TIP3    H237584   2.518   1.859  17.139  0.3223 -0.9888 -0.8784
 5365TIP3   OH237585   1.244   1.457  16.158  0.0956 -0.0166  0.0576
 5365TIP3    H137586   1.295   1.531  16.123 -1.6210  1.4353  0.4608
 5365TIP3    H237587   1.208   1.414  16.081 -0.1857  0.5533 -0.1354
 5366TIP3   OH237588   6.508   0.237  14.196 -0.2739 -0.1129 -0.3462
 5366TIP3    H137589   6.479   0.158  14.150 -1.3306  0.0542 -0.0007
 5366TIP3    H237590   6.558   0.205  14.271  0.9854 -0.3975 -1.2785
 5367TIP3   OH237591   1.557   0.729  11.853  0.0435  0.3115 -0.0113
 5367TIP3    H137592   1.587   0.639  11.841 -0.8473  0.1029 -0.7577
 5367TIP3    H237593   1.607   0.780  11.789  0.1033  0.2530 -0.0110
 5368TIP3   OH237594   2.408   0.615   3.999 -0.1477  0.1758 -0.6082
 5368TIP3    H137595   2.425   0.632   3.906 -0.4516 -0.5961 -0.8079
 5368TIP3    H237596   2.414   0.702   4.040  0.2381  0.4863 -1.3043
 5369TIP3   OH237597   5.538   0.418  15.126  0.1447  0.4847 -0.1419
 5369TIP3    H137598   5.499   0.335  15.155  0.4424 -0.5035 -2.3704
 5369TIP3    H237599   5.615   0.429  15.182 -0.9873  0.3341  1.5208
 5370TIP3   OH237600   5.145   3.294  16.535  0.0785  0.2375  0.0020
 5370TIP3    H137601   5.089   3.371  16.532  1.4956  1.2874 -1.0749
 5370TIP3    H237602   5.229   3.324  16.501  1.5112 -1.1220  2.1319
 5371TIP3   OH237603   0.867   4.184   2.040 -0.1637  0.4117  0.6217
 5371TIP3    H137604   0.797   4.150   1.984 -0.0445 -1.4511  1.5226
 5371TIP3    H237605   0.821   4.233   2.108 -0.4449  0.9246  0.0701
 5372TIP3   OH237606   3.768   6.616  12.005 -0.4010  0.3629  0.0384
 5372TIP3    H137607   3.858   6.608  12.034  0.2194  1.6470 -1.3760
 5372TIP3    H237608   3.724   6.666  12.074  0.0551  0.0734  0.5427
 5373TIP3   OH237609   2.708   3.048   3.542  0.1671  0.2499 -0.2025
 5373TIP3    H137610   2.648   3.029   3.470 -0.1732 -0.7861  0.3368
 5373TIP3    H237611   2.723   3.142   3.536 -2.2957  0.7411  0.2205
 5374TIP3   OH237612   5.956   4.215  14.209  0.0674 -0.5630  0.0442
 5374TIP3    H137613   6.004   4.144  14.251  1.1710 -0.1222 -0.4392
 5374TIP3    H237614   6.022   4.261  14.156 -1.1014 -0.6528 -1.5779
 5375TIP3   OH237615   6.546   6.401   0.094 -0.0455 -0.0069 -0.1701
 5375TIP3    H137616   6.577   6.396   0.003  1.1293  0.1212  0.2208
 5375TIP3    H237617   6.539   6.310   0.122 -2.1907 -0.1475 -0.9514
 5376TIP3   OH237618   2.418   5.570   5.418 -0.2659 -0.5918  0.1319
 5376TIP3    H137619   2.480   5.502   5.444 -0.3712 -1.0996 -0.8965
 5376TIP3    H237620   2.392   5.546   5.329 -1.1794  0.1638  0.1789
 5377TIP3   OH237621   3.692   6.401  12.931 -0.1154 -0.1577  0.5112
 5377TIP3    H137622   3.607   6.429  12.898 -0.6635 -2.5211 -0.2283
 5377TIP3    H237623   3.684   6.405  13.026 -1.0237 -0.2636  0.4470
 5378TIP3   OH237624   5.373   4.197  14.023  0.2831  0.0506  0.3137
 5378TIP3    H137625   5.404   4.139  13.953 -0.8229 -0.5405  0.2977
 5378TIP3    H237626   5.396   4.151  14.103 -0.1026 -0.1543  0.3082
 5379TIP3   OH237627   5.427   0.275  14.535  0.1036 -0.3727 -0.3502
 5379TIP3    H137628   5.514   0.235  14.524 -0.3063 -0.9323 -1.7403
 5379TIP3    H237629   5.370   0.223  14.479 -0.5607  1.8377 -1.8405
 5380TIP3   OH237630   6.677   1.924  14.382 -0.7124 -0.3868  0.1895
 5380TIP3    H137631   6.683   1.858  14.312 -1.0819 -0.6111  0.3667
 5380TIP3    H237632   6.588   1.915  14.416 -1.0315  0.7518 -0.3073
 5381TIP3   OH237633   4.346   4.222  13.502 -0.8658 -0.3512  0.0586
 5381TIP3    H137634   4.260   4.255  13.525 -0.5153  0.7007 -0.0925
 5381TIP3    H237635   4.404   4.251  13.573 -0.2030  1.0247 -0.9860
 5382TIP3   OH237636   3.136   4.865  16.625 -0.0705 -0.9034  0.2446
 5382TIP3    H137637   3.052   4.883  16.584  0.2710 -0.2430 -0.1808
 5382TIP3    H237638   3.114   4.836  16.714 -0.7054  0.5818  0.5998
 5383TIP3   OH237639   4.696   1.476   3.189 -0.3133  0.4226  0.1851
 5383TIP3    H137640   4.710   1.424   3.268 -0.9967 -0.5893 -0.3354
 5383TIP3    H237641   4.638   1.422   3.135 -0.0343  1.1926 -0.9143
 5384TIP3   OH237642   2.685   2.640   4.453  0.2972 -0.1877  0.2674
 5384TIP3    H137643   2.756   2.700   4.476  0.1560  0.5559 -1.1535
 5384TIP3    H237644   2.708   2.558   4.498  0.8226  0.7152  1.7073
 5385TIP3   OH237645   5.602   0.869  14.063 -0.4464  0.3536  0.1262
 5385TIP3    H137646   5.691   0.856  14.095 -0.2442  0.3176 -0.4423
 5385TIP3    H237647   5.586   0.963  14.073  0.0228  0.5287 -0.6969
 5386TIP3   OH237648   5.830   4.318   2.690 -0.0055  0.1268  0.5580
 5386TIP3    H137649   5.881   4.371   2.751 -0.0510  0.1869  0.5444
 5386TIP3    H237650   5.742   4.357   2.692  0.4733  1.4031 -1.0454
 5387TIP3   OH237651   5.642   6.175  11.881  0.0993  0.9136 -0.1506
 5387TIP3    H137652   5.558   6.218  11.899 -0.2075  0.1174  0.3934
 5387TIP3    H237653   5.656   6.118  11.956 -0.6935 -1.7393 -1.8443
 5388TIP3   OH237654   5.809   1.777   3.488  0.4160  0.0090 -0.5974
 5388TIP3    H137655   5.722   1.813   3.471 -0.4580 -1.1392  1.1186
 5388TIP3    H237656   5.863   1.854   3.509 -0.3092  0.6868 -1.1817
 5389TIP3   OH237657   1.760   3.119   5.551  0.2356 -0.3703 -0.3774
 5389TIP3    H137658   1.691   3.107   5.485  0.6021 -0.0377 -0.8224
 5389TIP3    H237659   1.713   3.121   5.634 -0.2649 -0.4537 -0.6540
 5390TIP3   OH237660   4.962   5.594  11.726  0.1941 -0.2653  0.4574
 5390TIP3    H137661   4.915   5.549  11.796 -0.2142  1.1526  1.1435
 5390TIP3    H237662   4.945   5.687  11.742  1.9986  0.2194 -0.1677
 5391TIP3   OH237663   0.545   6.114   1.405  0.6531  0.3716 -0.1576
 5391TIP3    H137664   0.614   6.145   1.464  0.0735  0.8262  0.2947
 5391TIP3    H237665   0.485   6.066   1.461  0.7755 -0.3144 -0.6100
 5392TIP3   OH237666   3.649   0.907   2.719 -0.0117 -0.4845 -0.0285
 5392TIP3    H137667   3.629   0.816   2.697 -1.0258 -0.8741  2.2469
 5392TIP3    H237668   3.611   0.920   2.805  0.3826  2.0352 -0.1571
 5393TIP3   OH237669   0.166   5.189  12.387 -0.2308 -0.9579  0.2206
 5393TIP3    H137670   0.096   5.235  12.435  0.8237  1.4679 -0.4032
 5393TIP3    H237671   0.122   5.156  12.309 -1.0545 -1.1102  0.7287
 5394TIP3   OH237672   2.993   1.593   5.334  0.2645 -0.2912 -0.2350
 5394TIP3    H137673   3.035   1.679   5.334 -0.2858 -0.0175 -0.2765
 5394TIP3    H237674   2.936   1.594   5.257  1.1384 -1.1383 -0.9080
 5395TIP3   OH237675   3.009   1.118   1.250  0.0878  0.3025  0.1811
 5395TIP3    H137676   2.994   1.110   1.156 -0.7756  1.0843  0.2377
 5395TIP3    H237677   3.103   1.102   1.261  0.1465 -0.0756 -0.7701
 5396TIP3   OH237678   2.457   0.774   4.753 -0.0308 -0.0462 -0.1982
 5396TIP3    H137679   2.387   0.803   4.811  0.5891 -0.1895  0.6387
 5396TIP3    H237680   2.480   0.852   4.702 -0.9206 -0.0469 -0.6241
 5397TIP3   OH237681   4.449   5.866   0.750  0.1789 -0.2996  0.5607
 5397TIP3    H137682   4.482   5.935   0.807  1.1281  0.6390 -1.0368
 5397TIP3    H237683   4.527   5.822   0.718 -0.1394  0.5336 -1.5601
 5398TIP3   OH237684   0.745   3.502   2.266  0.1597 -0.1256  0.2926
 5398TIP3    H137685   0.661   3.457   2.270 -0.6616  1.3096 -0.1404
 5398TIP3    H237686   0.794   3.469   2.341 -0.5606 -1.4149  0.2113
 5399TIP3   OH237687   5.195   5.574   3.393  0.1447 -0.3510 -0.0309
 5399TIP3    H137688   5.184   5.516   3.468 -1.8044 -0.0584 -0.0377
 5399TIP3    H237689   5.189   5.517   3.317  0.0531 -0.3892  0.0043
 5400TIP3   OH237690   3.970   6.427   3.431 -0.2548  0.0617 -0.2620
 5400TIP3    H137691   3.916   6.497   3.395  2.6243  2.7033  0.1360
 5400TIP3    H237692   4.042   6.417   3.369  0.7096 -0.7825  0.9394
 5401TIP3   OH237693   2.508   5.596   1.348  0.0889  0.5117  0.5573
 5401TIP3    H137694   2.480   5.586   1.257 -2.1181 -0.3003  1.2579
 5401TIP3    H237695   2.538   5.687   1.354 -0.4373  0.8003 -0.8084
 5402TIP3   OH237696   1.347   0.797  15.777  0.8766 -0.0243 -0.3186
 5402TIP3    H137697   1.346   0.868  15.842 -1.8858 -1.1348  1.0540
 5402TIP3    H237698   1.357   0.717  15.829 -1.4846 -0.9534 -1.1457
 5403TIP3   OH237699   2.704   3.223   1.727 -0.5298 -0.5326 -0.4557
 5403TIP3    H137700   2.613   3.238   1.752 -0.4678 -0.3742 -0.3295
 5403TIP3    H237701   2.710   3.260   1.639 -0.5588 -0.4434 -0.4207
 5404TIP3   OH237702   1.688   5.818  11.693  0.1760 -0.3343 -0.3736
 5404TIP3    H137703   1.687   5.733  11.737  0.7031 -0.8502 -1.3369
 5404TIP3    H237704   1.625   5.871  11.743 -0.4322 -1.3936  0.0212
 5405TIP3   OH237705   0.055   1.843   4.286  0.4366 -0.2511 -0.5619
 5405TIP3    H137706   0.048   1.769   4.347 -0.2283  0.4406  0.2317
 5405TIP3    H237707  -0.019   1.831   4.226  0.8975 -0.7515 -1.0402
 5406TIP3   OH237708   1.109   0.599  16.941 -0.7140  0.5516 -0.4349
 5406TIP3    H137709   1.099   0.504  16.936  0.1994  0.4156  0.1067
 5406TIP3    H237710   1.027   0.629  16.979 -0.3298 -0.2203  1.1037
 5407TIP3   OH237711   5.404   3.948  14.175 -0.3806 -0.0975 -0.0385
 5407TIP3    H137712   5.433   3.886  14.109 -1.7334  1.8315 -2.6000
 5407TIP3    H237713   5.317   3.916  14.202 -0.4405 -0.1227 -0.2599
 5408TIP3   OH237714   5.714   4.678  15.997 -0.1673 -0.0789  0.6567
 5408TIP3    H137715   5.683   4.736  16.067  1.2737 -0.7453  1.9136
 5408TIP3    H237716   5.704   4.590  16.032 -1.3832 -0.5893 -0.8393
 5409TIP3   OH237717   6.180   0.293   2.748 -0.1939  0.0884  0.4622
 5409TIP3    H137718   6.119   0.315   2.819  1.5069  0.9978  1.7446
 5409TIP3    H237719   6.161   0.356   2.679 -1.3882 -0.3308  0.3889
 5410TIP3   OH237720   4.467   6.683   5.039  0.0012  0.0241  0.2514
 5410TIP3    H137721   4.538   6.620   5.028  0.3814  0.3173  0.9506
 5410TIP3    H237722   4.501   6.746   5.102 -0.9994 -0.0187  0.8640
 5411TIP3   OH237723   5.615   4.984   5.428 -0.6645  0.2886 -0.0737
 5411TIP3    H137724   5.649   5.022   5.509 -1.1906 -0.6350  0.6090
 5411TIP3    H237725   5.588   4.895   5.453 -2.5780  0.6129 -0.8155
 5412TIP3   OH237726   1.301   4.971  16.172  0.3906 -0.4810  0.0849
 5412TIP3    H137727   1.328   5.063  16.167 -1.6180  0.1004 -1.6203
 5412TIP3    H237728   1.325   4.944  16.261  1.5635  1.5001  0.4373
 5413TIP3   OH237729   2.507   3.309  15.263  0.2175 -0.2687 -0.6458
 5413TIP3    H137730   2.443   3.374  15.292  0.5369 -0.1872 -0.1022
 5413TIP3    H237731   2.550   3.349  15.188  0.8176  0.4113  0.0360
 5414TIP3   OH237732   6.753   3.207   1.354  0.1081 -0.6124 -0.3399
 5414TIP3    H137733   6.755   3.216   1.449 -0.3561  0.1759 -0.3928
 5414TIP3    H237734   6.676   3.257   1.327 -0.4978 -1.8556 -1.0306
 5415TIP3   OH237735   1.554   1.135  16.261 -0.2615 -0.1154 -0.0849
 5415TIP3    H137736   1.610   1.201  16.302 -0.4585  1.5349 -2.3057
 5415TIP3    H237737   1.466   1.156  16.291 -0.1965 -0.0736  0.0828
 5416TIP3   OH237738   2.392   4.996  15.717  0.6778 -0.2977 -0.2499
 5416TIP3    H137739   2.351   5.082  15.718  0.5575 -0.3548 -0.1594
 5416TIP3    H237740   2.440   4.993  15.635  2.0456  0.4803  0.4852
 5417TIP3   OH237741   2.671   1.349   4.461  0.6756 -0.4075  0.2322
 5417TIP3    H137742   2.590   1.357   4.511  0.5825 -0.9758  0.1811
 5417TIP3    H237743   2.741   1.361   4.525  0.5548  0.7681  0.1576
 5418TIP3   OH237744   1.860   0.254  15.376 -0.4435  0.1087  0.5046
 5418TIP3    H137745   1.861   0.323  15.310 -1.1660  2.3209  2.6327
 5418TIP3    H237746   1.774   0.212  15.366  0.2861 -1.0653 -1.2783
 5419TIP3   OH237747   4.286   5.962  15.690  0.0957  0.4939 -0.7691
 5419TIP3    H137748   4.324   5.915  15.765 -0.1583 -2.8665 -2.5468
 5419TIP3    H237749   4.193   5.966  15.711 -0.0364 -0.7943 -1.0163
 5420TIP3   OH237750   1.918   0.004  12.189 -0.4598 -0.6282  0.4685
 5420TIP3    H137751   2.009   0.022  12.166 -0.9495  0.6738 -0.5891
 5420TIP3    H237752   1.878   0.090  12.200 -1.6673 -1.1653  0.4644
 5421TIP3   OH237753   2.101   1.586  14.255 -0.4480 -0.2097  0.1361
 5421TIP3    H137754   2.080   1.561  14.165 -1.3549  1.0488 -0.0241
 5421TIP3    H237755   2.025   1.561  14.306 -0.4489  0.2008  0.3409
 5422TIP3   OH237756   5.006   3.362   1.796 -0.0693  0.2757 -0.0828
 5422TIP3    H137757   5.064   3.287   1.812 -0.1195  0.3989  0.7207
 5422TIP3    H237758   4.935   3.327   1.743  0.4686  0.0038 -0.6389
 5423TIP3   OH237759   5.247   0.831  12.099 -0.0973 -0.4590 -0.3471
 5423TIP3    H137760   5.217   0.833  12.008  0.9075 -0.8691 -0.7011
 5423TIP3    H237761   5.342   0.826  12.093  0.0521  0.6344  0.7457
 5424TIP3   OH237762   5.323   3.863   0.791 -0.2277 -0.8415  0.5651
 5424TIP3    H137763   5.391   3.835   0.852  2.2795  2.5716 -0.3265
 5424TIP3    H237764   5.269   3.925   0.841  1.4019  1.4121 -0.2780
 5425TIP3   OH237765   0.985   0.985  15.876 -0.6062  0.3061  0.1553
 5425TIP3    H137766   1.017   0.978  15.786  0.6150  0.2415  0.5741
 5425TIP3    H237767   1.022   0.909  15.920 -1.9570 -0.1704  0.5044
 5426TIP3   OH237768   1.164   2.149   0.746 -0.0667  0.3845 -0.1073
 5426TIP3    H137769   1.229   2.213   0.775 -1.4659  0.7041  2.6778
 5426TIP3    H237770   1.178   2.073   0.803 -1.6756  0.2259  0.1208
 5427TIP3   OH237771   4.382   2.717  12.732  0.0446 -0.2766  0.9654
 5427TIP3    H137772   4.329   2.737  12.654  0.4538 -2.1216  0.1740
 5427TIP3    H237773   4.425   2.800  12.753  0.3847  0.1412 -1.1592
 5428TIP3   OH237774   5.410   1.103   3.450  0.2330 -0.0705 -0.3341
 5428TIP3    H137775   5.489   1.051   3.463  1.5535  2.0353  0.5482
 5428TIP3    H237776   5.439   1.179   3.401 -1.4320  0.3660 -0.7123
 5429TIP3   OH237777   1.408   5.802   5.386 -0.5816 -0.4492  0.1515
 5429TIP3    H137778   1.354   5.881   5.387  1.9427  1.4021  0.5388
 5429TIP3    H237779   1.408   5.772   5.477  0.4099  0.5992  0.5204
 5430TIP3   OH237780   5.135   0.226  13.778 -0.4556 -0.2939  0.3701
 5430TIP3    H137781   5.077   0.153  13.801 -1.7278  0.8603  0.9083
 5430TIP3    H237782   5.095   0.265  13.700 -0.5608  0.6579  0.8847
 5431TIP3   OH237783   6.697   1.299   3.188  0.1175 -0.1273  0.4998
 5431TIP3    H137784   6.659   1.321   3.274 -0.7820 -0.7489  0.2802
 5431TIP3    H237785   6.697   1.382   3.140 -0.6734 -0.0443  0.6256
 5432TIP3   OH237786   1.619   5.489   6.197  0.3888  0.0942  0.2266
 5432TIP3    H137787   1.707   5.462   6.168  0.7855  0.6616  0.8603
 5432TIP3    H237788   1.566   5.411   6.188  1.0969 -0.4160  0.3651
 5433TIP3   OH237789   5.857   0.979  12.846 -0.1505 -0.7394  0.0799
 5433TIP3    H137790   5.887   1.021  12.927 -0.7916  0.9210 -0.5096
 5433TIP3    H237791   5.762   0.994  12.845 -0.0802 -0.2931 -1.2275
 5434TIP3   OH237792   3.285   0.373   3.498  0.7335 -0.2636 -0.1694
 5434TIP3    H137793   3.291   0.467   3.514  0.9959 -0.5711  1.7520
 5434TIP3    H237794   3.210   0.345   3.550  0.6623 -1.1398 -0.7232
 5435TIP3   OH237795   0.672   0.319  14.909 -0.0779 -0.5191  0.3083
 5435TIP3    H137796   0.644   0.325  15.001 -1.0305  1.3674 -0.0572
 5435TIP3    H237797   0.605   0.265  14.868 -0.0548 -0.7478  0.5642
 5436TIP3   OH237798   1.387   2.461  10.376 -0.8181  0.5965  0.1499
 5436TIP3    H137799   1.469   2.473  10.424 -0.5700 -0.8758  0.1422
 5436TIP3    H237800   1.381   2.367  10.363 -1.0284  0.9061 -2.4832
 5437TIP3   OH237801   5.459   4.826  14.967  0.3640  0.6275 -0.0163
 5437TIP3    H137802   5.413   4.904  14.997 -0.6872  0.0016  0.0523
 5437TIP3    H237803   5.451   4.764  15.039 -1.0913 -0.4473 -1.0353
 5438TIP3   OH237804   4.529   5.807  15.042  0.2014  0.1340 -0.0934
 5438TIP3    H137805   4.450   5.857  15.017 -0.0066  1.2501  2.5304
 5438TIP3    H237806   4.551   5.838  15.129  4.5688  1.0684 -1.2751
 5439TIP3   OH237807   5.089   4.181  13.051 -0.2229 -0.1234  0.4021
 5439TIP3    H137808   5.086   4.265  13.005  1.3787 -0.9167 -1.2747
 5439TIP3    H237809   4.998   4.164  13.074 -0.2978  3.7946  4.2840
 5440TIP3   OH237810   1.089   4.452  14.595  0.3916 -0.3453  0.3257
 5440TIP3    H137811   1.084   4.545  14.574  0.2469 -0.5174 -0.4615
 5440TIP3    H237812   1.163   4.419  14.544 -0.6393 -0.9954 -0.8136
 5441TIP3   OH237813   4.117   3.915  12.997 -0.4617  0.0863 -0.1688
 5441TIP3    H137814   4.031   3.887  13.029 -0.2623 -0.0865  0.2332
 5441TIP3    H237815   4.101   3.999  12.954 -0.4454  1.4553  2.2791
 5442TIP3   OH237816   5.816   6.001  14.625 -0.2564  0.1858  0.5731
 5442TIP3    H137817   5.724   5.996  14.650 -0.9423 -0.9643 -1.8493
 5442TIP3    H237818   5.840   5.912  14.601  1.7803  0.2935  1.9400
 5443TIP3   OH237819   2.897   4.906   1.602  0.5308  0.2123 -0.3337
 5443TIP3    H137820   2.842   4.968   1.649 -2.8276 -0.4934 -2.9333
 5443TIP3    H237821   2.977   4.954   1.582 -0.4231  2.4257  0.8596
 5444TIP3   OH237822   1.906   0.619  12.403 -0.0381 -0.3173 -0.3040
 5444TIP3    H137823   1.886   0.643  12.493 -0.1169  0.4066 -0.5117
 5444TIP3    H237824   1.834   0.657  12.352 -0.5860 -1.6350 -0.5678
 5445TIP3   OH237825   4.163   3.799   5.370  0.4910 -0.0356 -0.0078
 5445TIP3    H137826   4.095   3.794   5.303  1.0252  0.7307 -0.6214
 5445TIP3    H237827   4.146   3.725   5.427 -1.4722  0.7019  0.4237
 5446TIP3   OH237828   0.102   5.609   2.801 -0.1815 -0.4285 -0.1808
 5446TIP3    H137829   0.132   5.519   2.789 -2.1980 -1.0077 -1.3221
 5446TIP3    H237830   0.147   5.659   2.733  0.5329 -0.6558  0.1130
 5447TIP3   OH237831   2.401   0.732   6.520  0.0396  0.4551  0.1804
 5447TIP3    H137832   2.469   0.778   6.471  0.8818  0.2210  1.1219
 5447TIP3    H237833   2.429   0.640   6.520 -2.2009 -0.4154 -2.7052
 5448TIP3   OH237834   2.723   5.501  17.059 -0.2451  0.8247 -0.5680
 5448TIP3    H137835   2.773   5.519  17.139  1.1209  2.7745 -1.7989
 5448TIP3    H237836   2.781   5.526  16.988 -1.4201 -0.9026 -2.2246
 5449TIP3   OH237837   1.198   2.433   1.136  0.5299 -0.2395  0.2431
 5449TIP3    H137838   1.132   2.434   1.205  1.1763  1.8075  0.9224
 5449TIP3    H237839   1.153   2.396   1.060 -1.3100  0.7161  0.7898
 5450TIP3   OH237840   5.969   1.118   1.141  0.0558  0.5010 -0.6122
 5450TIP3    H137841   6.002   1.090   1.056 -0.4450  1.0305 -0.9905
 5450TIP3    H237842   6.043   1.160   1.184  0.5244 -0.4651 -0.4612
 5451TIP3   OH237843   5.451   2.073  14.138  0.3187 -0.2340  0.3440
 5451TIP3    H137844   5.499   2.112  14.065 -1.2752 -0.2022 -0.7337
 5451TIP3    H237845   5.425   1.987  14.106  1.4904 -1.1307  1.7119
 5452TIP3   OH237846   6.292   6.234  11.760 -1.1903  0.1085  0.1039
 5452TIP3    H137847   6.355   6.168  11.788 -0.2335  1.0814  0.2973
 5452TIP3    H237848   6.329   6.269  11.679 -1.2919  0.9355  0.4052
 5453TIP3   OH237849   5.996   6.789   4.256  0.3025 -0.0973 -0.0546
 5453TIP3    H137850   5.925   6.780   4.192 -0.5602 -0.4961  0.9344
 5453TIP3    H237851   6.016   6.883   4.256 -0.3990  0.0580 -0.1672
 5454TIP3   OH237852   4.004   6.822  16.252  0.0555 -0.2962  0.6878
 5454TIP3    H137853   4.079   6.763  16.250  1.1141  0.9681  1.5730
 5454TIP3    H237854   4.039   6.905  16.285 -1.6285  0.4801  0.6360
 5455TIP3   OH237855   3.002   3.906   1.209  0.2977 -0.0346  0.5629
 5455TIP3    H137856   3.049   3.940   1.285  0.6509  1.6024 -0.3325
 5455TIP3    H237857   2.985   3.983   1.155 -0.3032 -1.0972 -0.8368
 5456TIP3   OH237858   0.142   5.503  11.164 -0.1844 -0.3187  0.0479
 5456TIP3    H137859   0.110   5.507  11.074  0.4434  2.1009 -0.1227
 5456TIP3    H237860   0.115   5.416  11.194 -1.0688 -0.9112 -2.2048
 5457TIP3   OH237861   2.533   1.164  14.372  0.8688  0.3277 -0.1161
 5457TIP3    H137862   2.480   1.241  14.348  1.6068  0.6297 -0.8261
 5457TIP3    H237863   2.623   1.192  14.356  1.1134 -0.8701 -0.9113
 5458TIP3   OH237864   3.726   3.232  13.978 -0.6938 -0.0917  0.5117
 5458TIP3    H137865   3.815   3.199  13.989 -0.9203 -0.9078 -0.1002
 5458TIP3    H237866   3.727   3.316  14.024 -0.0740 -0.8638  1.9828
 5459TIP3   OH237867   2.092   3.503  13.346 -0.9973  0.1645 -0.0618
 5459TIP3    H137868   2.174   3.542  13.316 -1.4478  0.7737 -0.5518
 5459TIP3    H237869   2.117   3.442  13.415 -0.4142  2.8791  2.2890
 5460TIP3   OH237870   1.667   5.743  12.192  0.4469 -0.1407 -0.0850
 5460TIP3    H137871   1.728   5.768  12.261 -1.6141  1.5905  1.2617
 5460TIP3    H237872   1.638   5.655  12.218 -0.5317  0.6030  1.5314
 5461TIP3   OH237873   3.783   0.057  16.090  0.3786  0.0368 -0.2886
 5461TIP3    H137874   3.803   0.148  16.067  0.5920 -0.3195 -1.5868
 5461TIP3    H237875   3.861   0.027  16.136  0.3761  0.4571 -0.0038
 5462TIP3   OH237876   4.355   2.019   5.285 -0.5405  0.2486 -0.4442
 5462TIP3    H137877   4.329   2.023   5.377 -0.6132 -0.7113 -0.4139
 5462TIP3    H237878   4.276   1.987   5.240  0.0847 -1.1411 -0.5736
 5463TIP3   OH237879   5.429   1.531   5.565 -0.2477 -0.3761  0.2824
 5463TIP3    H137880   5.349   1.520   5.617 -0.4126 -1.6429 -0.1999
 5463TIP3    H237881   5.441   1.447   5.522  1.5413 -0.3218  0.6001
 5464TIP3   OH237882   2.503   2.450  14.949  0.4986  0.1811  0.1174
 5464TIP3    H137883   2.534   2.511  14.882  1.8136 -1.3845 -0.7519
 5464TIP3    H237884   2.427   2.407  14.909  0.7802 -0.1642 -0.0468
 5465TIP3   OH237885   2.803   2.308  16.023 -0.9850  0.2433  0.5565
 5465TIP3    H137886   2.735   2.244  16.047 -0.7082 -0.0981  0.4478
 5465TIP3    H237887   2.872   2.255  15.983 -0.5450  0.5523  0.8931
 5466TIP3   OH237888   4.549   0.734   0.856 -0.3235  0.2179 -0.8810
 5466TIP3    H137889   4.492   0.811   0.862 -0.6635 -0.0014 -1.2089
 5466TIP3    H237890   4.637   0.770   0.841 -0.5579  0.5343 -1.5530
 5467TIP3   OH237891   4.745   6.234  14.463  0.0304  0.6569  0.3582
 5467TIP3    H137892   4.694   6.153  14.462 -0.9400  1.2579 -0.8745
 5467TIP3    H237893   4.693   6.294  14.517 -0.7918  1.3871 -1.2000
 5468TIP3   OH237894   1.920   0.803   5.329  0.1160 -0.3125  0.2942
 5468TIP3    H137895   1.893   0.882   5.375  0.9310  0.6817 -0.8638
 5468TIP3    H237896   1.980   0.759   5.390 -0.6822 -0.2776  1.1179
 5469TIP3   OH237897   3.066   6.784   5.691  0.1028 -0.4189  0.1866
 5469TIP3    H137898   3.135   6.718   5.682 -0.2663 -0.9373  1.0466
 5469TIP3    H237899   3.092   6.854   5.631  1.5365 -0.4652  0.7161
 5470TIP3   OH237900   3.746   5.478   2.541 -0.1988 -0.1268 -0.1887
 5470TIP3    H137901   3.749   5.572   2.525 -2.6878  0.1139  0.2883
 5470TIP3    H237902   3.803   5.464   2.617  1.4705  0.6954 -1.2434
 5471TIP3   OH237903   6.823   4.971  12.458 -0.1809  0.4912  0.2174
 5471TIP3    H137904   6.879   5.048  12.473  0.0177  0.2931  0.5104
 5471TIP3    H237905   6.735   5.001  12.481 -0.4141  1.1823 -1.4464
 5472TIP3   OH237906   1.529   5.087   2.420 -0.0195 -0.0232  0.3428
 5472TIP3    H137907   1.578   5.039   2.353 -1.4843 -0.7745 -0.2516
 5472TIP3    H237908   1.449   5.036   2.431 -0.0282  0.3594  2.3388
 5473TIP3   OH237909   2.157   3.601   4.741 -0.3419 -0.2987 -0.6511
 5473TIP3    H137910   2.115   3.619   4.824  1.2907 -1.7976  0.5814
 5473TIP3    H237911   2.221   3.533   4.760  0.9119  0.1183 -2.8939
 5474TIP3   OH237912   3.367   5.576  15.056  0.0013 -0.3836 -0.1574
 5474TIP3    H137913   3.292   5.616  15.101  2.0688  2.0678  1.4032
 5474TIP3    H237914   3.435   5.571  15.123  1.4823 -1.8289 -1.6921
 5475TIP3   OH237915   5.076   4.757  13.592 -0.2135  0.1322  0.0887
 5475TIP3    H137916   5.005   4.780  13.652 -0.8315 -1.5779  0.0683
 5475TIP3    H237917   5.049   4.795  13.508 -0.6215  0.3046  0.2956
 5476TIP3   OH237918   3.186   0.190   4.851  0.2735 -0.0090  0.6305
 5476TIP3    H137919   3.238   0.270   4.850  0.5347 -0.1692 -0.4162
 5476TIP3    H237920   3.123   0.201   4.779  0.1377 -0.6281  0.6430
 5477TIP3   OH237921   5.762   2.916   0.809 -0.4855 -0.2171  0.4969
 5477TIP3    H137922   5.729   2.858   0.740 -0.1840 -0.2744  0.3992
 5477TIP3    H237923   5.687   2.970   0.832 -0.6944 -0.4587  0.3941
 5478TIP3   OH237924   2.754   0.260   4.680  0.5663  0.1505 -0.1330
 5478TIP3    H137925   2.694   0.311   4.735 -0.5213 -2.4139  1.2698
 5478TIP3    H237926   2.790   0.193   4.740 -1.5218 -3.5195 -2.5989
 5479TIP3   OH237927   1.597   2.647  12.497 -0.2831  0.2789  0.0848
 5479TIP3    H137928   1.550   2.564  12.497  1.2871 -0.6983  1.8167
 5479TIP3    H237929   1.658   2.639  12.570  1.9069  1.8241 -1.4644
 5480TIP3   OH237930   4.500   1.763   4.324 -0.2890 -0.5004 -0.5313
 5480TIP3    H137931   4.501   1.835   4.262  1.5949  0.5850  0.6832
 5480TIP3    H237932   4.507   1.804   4.410  2.1558 -2.1223  0.1386
 5481TIP3   OH237933   5.239   6.087  11.213  0.2802 -0.0370 -0.1909
 5481TIP3    H137934   5.147   6.091  11.237  0.4105 -0.1156  0.3222
 5481TIP3    H237935   5.246   6.012  11.154 -0.3793  1.2403 -1.9808
 5482TIP3   OH237936   3.173   4.955   6.281 -0.4012  0.1106  0.4464
 5482TIP3    H137937   3.245   4.928   6.223  2.8964  0.7730  3.8015
 5482TIP3    H237938   3.167   5.050   6.267  0.5450  0.3066  1.2279
 5483TIP3   OH237939   0.794   0.131  15.727  0.5403 -0.2923  0.0400
 5483TIP3    H137940   0.797   0.170  15.640 -0.8912  0.7175  0.3962
 5483TIP3    H237941   0.746   0.049  15.716 -0.0590  0.0631 -0.0751
 5484TIP3   OH237942   3.053   6.209   5.463 -0.1975  0.0508  0.1578
 5484TIP3    H137943   3.037   6.131   5.516  1.1767  0.3766  1.0890
 5484TIP3    H237944   3.071   6.278   5.526  1.4656  0.4525 -0.7125
 5485TIP3   OH237945   4.319   5.773  13.800 -0.4357  0.0789 -0.2051
 5485TIP3    H137946   4.389   5.837  13.792  0.1533 -0.4529  0.5468
 5485TIP3    H237947   4.312   5.733  13.713  0.6867 -0.3622 -0.1077
 5486TIP3   OH237948   4.923   2.363   0.518  0.1199 -0.1618 -0.6738
 5486TIP3    H137949   4.875   2.280   0.519  0.5401 -0.5229 -3.2412
 5486TIP3    H237950   5.011   2.340   0.547 -0.3863 -0.0802  1.0504
 5487TIP3   OH237951   1.139   0.711  14.860 -0.4390 -0.0820 -0.1870
 5487TIP3    H137952   1.092   0.792  14.880  1.9620  1.4826 -0.5310
 5487TIP3    H237953   1.172   0.681  14.945 -2.3147 -1.4592  0.1331
 5488TIP3   OH237954   1.474   1.348   1.844 -0.7288 -0.4215  0.3910
 5488TIP3    H137955   1.521   1.379   1.921  0.3378  0.5691 -0.6355
 5488TIP3    H237956   1.426   1.271   1.875  0.7416 -0.8389  1.7103
 5489TIP3   OH237957   1.660   3.234   0.064 -0.3845 -0.4541  0.4152
 5489TIP3    H137958   1.631   3.219   0.154 -1.3292 -0.1063  0.1872
 5489TIP3    H237959   1.650   3.329   0.052  0.4344 -0.3939  0.1748
 5490TIP3   OH237960   5.690   0.466  11.570 -0.7290  0.2683  0.0385
 5490TIP3    H137961   5.618   0.460  11.507  0.7519  0.0201 -1.7039
 5490TIP3    H237962   5.721   0.376  11.581  2.9789  0.7821 -3.8201
 5491TIP3   OH237963   0.982   1.210   2.574 -0.5580  0.0726  0.2607
 5491TIP3    H137964   0.923   1.248   2.509 -0.3478  0.8683  0.5236
 5491TIP3    H237965   1.027   1.285   2.612  1.5368 -0.5710 -0.7854
 5492TIP3   OH237966   5.254   0.819   4.660  0.1853 -0.5174  0.7310
 5492TIP3    H137967   5.162   0.808   4.685  0.1573 -1.2411  0.3277
 5492TIP3    H237968   5.295   0.736   4.683  0.2955 -0.9884 -1.0317
 5493TIP3   OH237969   2.830   0.597   1.292  0.0550 -0.3330 -0.0931
 5493TIP3    H137970   2.748   0.592   1.242 -0.3283  1.4583  0.3005
 5493TIP3    H237971   2.813   0.663   1.359  1.5187 -0.6333  0.5988
 5494TIP3   OH237972   2.418   2.861  16.450 -0.3884  0.6087  0.3420
 5494TIP3    H137973   2.370   2.806  16.513  0.5217  1.2428  1.6456
 5494TIP3    H237974   2.371   2.851  16.368  0.1395 -2.7035  0.3101
 5495TIP3   OH237975   6.200   1.338  16.570 -0.1261  0.0459 -0.1136
 5495TIP3    H137976   6.241   1.274  16.511  0.0568  0.4653 -0.4442
 5495TIP3    H237977   6.162   1.403  16.511  0.3925  0.6738  0.2428
 5496TIP3   OH237978   3.910   4.650   1.940 -0.0029  0.2057  0.9386
 5496TIP3    H137979   3.952   4.565   1.926  1.8488  1.0409  1.0771
 5496TIP3    H237980   3.833   4.631   1.993  0.8380 -1.2931  1.6908
 5497TIP3   OH237981   4.337   2.143   4.784  0.4137 -0.2330 -0.0851
 5497TIP3    H137982   4.384   2.161   4.702  0.1515 -0.1857 -0.2253
 5497TIP3    H237983   4.342   2.226   4.833  1.2445 -0.4909  0.2883
 5498TIP3   OH237984   6.637   0.882   4.192  0.5939 -0.1620  0.3845
 5498TIP3    H137985   6.544   0.903   4.184  0.6190 -0.2411 -0.1486
 5498TIP3    H237986   6.679   0.965   4.216  0.4594 -0.0017  0.0700
 5499TIP3   OH237987   4.768   5.060  11.372  0.9778 -0.2651 -0.1128
 5499TIP3    H137988   4.675   5.038  11.377  0.9419 -0.1746 -0.3836
 5499TIP3    H237989   4.812   4.984  11.412  0.7116  0.4218  1.5746
 5500TIP3   OH237990   1.042   2.395   0.907  0.0270 -0.2620 -0.5363
 5500TIP3    H137991   0.957   2.388   0.950 -0.4808  0.0553 -1.4582
 5500TIP3    H237992   1.025   2.370   0.816  0.4982  1.6841 -1.2042
 5501TIP3   OH237993   2.063   5.834   0.375  0.2948  0.0100 -0.2145
 5501TIP3    H137994   1.990   5.896   0.374 -0.4159 -0.7931 -0.6373
 5501TIP3    H237995   2.023   5.751   0.350  1.5764 -0.2203 -1.6222
 5502TIP3   OH237996   2.508   4.840  13.188  0.1606 -0.4932  0.0279
 5502TIP3    H137997   2.416   4.866  13.193 -0.6955 -2.4889 -2.8947
 5502TIP3    H237998   2.555   4.922  13.172 -1.6123  0.2111 -2.1248
 5503TIP3   OH237999   6.530   0.157   4.754 -0.3222 -0.3904  0.5250
 5503TIP3    H138000   6.445   0.146   4.711  0.5316 -2.8155 -0.7203
 5503TIP3    H238001   6.550   0.250   4.742 -2.3830  0.0644  0.0908
 5504TIP3   OH238002   2.915   5.809  15.774 -0.0398  0.0277  0.0234
 5504TIP3    H138003   2.989   5.764  15.813 -0.6675 -1.2161 -0.1547
 5504TIP3    H238004   2.950   5.849  15.694  0.5397 -0.1048  0.2081
 5505TIP3   OH238005   0.907   4.098   2.692  0.3110  0.0398  0.5036
 5505TIP3    H138006   0.862   4.082   2.609  0.2000  0.7995  0.4150
 5505TIP3    H238007   0.999   4.111   2.668  0.6369 -1.6855  0.7019
 5506TIP3   OH238008   3.731   1.723  13.464 -0.1755  0.4690  0.2530
 5506TIP3    H138009   3.712   1.637  13.503 -0.0979  0.4875  0.3310
 5506TIP3    H238010   3.803   1.758  13.517  2.6426 -1.1290 -2.2298
 5507TIP3   OH238011   4.688   1.619  13.062  0.6499  0.0003 -0.4994
 5507TIP3    H138012   4.628   1.645  12.991 -0.4637 -0.2100  0.3513
 5507TIP3    H238013   4.656   1.667  13.138 -0.2936 -2.3738  0.6770
 5508TIP3   OH238014   3.474   3.849   2.198  0.2982 -0.0888  0.2127
 5508TIP3    H138015   3.400   3.906   2.220  1.3849  0.6968  2.0349
 5508TIP3    H238016   3.551   3.904   2.210  1.2244 -1.0189 -1.2371
 5509TIP3   OH238017   5.171   2.268   0.589  0.6223  0.4815  0.2486
 5509TIP3    H138018   5.174   2.182   0.629 -0.5691  1.1164  1.7872
 5509TIP3    H238019   5.178   2.330   0.662  0.8744  1.6904 -0.7568
 5510TIP3   OH238020   4.120   3.550  12.250 -0.1141  0.3416  0.5246
 5510TIP3    H138021   4.133   3.590  12.335  0.1297  0.0496  0.6270
 5510TIP3    H238022   4.116   3.624  12.189 -0.3672  0.5549  0.7937
 5511TIP3   OH238023   6.697   3.519   2.072  0.2122 -0.4563 -0.1552
 5511TIP3    H138024   6.705   3.569   1.991  0.9756 -0.5383 -0.1417
 5511TIP3    H238025   6.787   3.511   2.104  0.0116 -1.1216  0.2757
 5512TIP3   OH238026   6.822   6.125  15.478  0.1714 -0.5076 -0.1857
 5512TIP3    H138027   6.852   6.036  15.459  1.8479 -0.3323  1.4191
 5512TIP3    H238028   6.727   6.122  15.461  0.1948 -2.5652 -0.2191
 5513TIP3   OH238029   4.114   0.446   5.676  0.5113 -0.8705 -0.0604
 5513TIP3    H138030   4.152   0.398   5.749 -0.6041 -0.2751  0.9501
 5513TIP3    H238031   4.151   0.534   5.683 -0.3326 -0.5409  0.3904
 5514TIP3   OH238032   2.026   1.358   0.613 -0.2554 -0.0553 -0.2500
 5514TIP3    H138033   2.106   1.332   0.658 -0.6161 -0.2047  0.3298
 5514TIP3    H238034   2.051   1.430   0.557  0.1764  0.2680  0.3512
 5515TIP3   OH238035   6.663   3.093   3.696 -0.2635 -0.5717  0.0170
 5515TIP3    H138036   6.719   3.075   3.621  0.2933  1.4533 -0.1118
 5515TIP3    H238037   6.669   3.013   3.750  0.9803 -1.2548 -1.0646
 5516TIP3   OH238038   1.915   4.493   1.961  0.1112 -0.2874 -0.0962
 5516TIP3    H138039   2.007   4.521   1.962 -0.5664  2.2878 -1.2092
 5516TIP3    H238040   1.868   4.569   1.996 -1.7593 -0.7467 -1.5160
 5517TIP3   OH238041   5.470   5.391   3.376  0.3632 -0.4363  0.0551
 5517TIP3    H138042   5.542   5.435   3.421  0.3858 -0.0827 -0.3207
 5517TIP3    H238043   5.392   5.414   3.427  0.4833 -0.6081  0.3135
 5518TIP3   OH238044   0.899   5.076   1.115 -0.1871  0.5068 -0.3898
 5518TIP3    H138045   0.834   5.098   1.182  0.0129  0.6297 -0.2339
 5518TIP3    H238046   0.849   5.035   1.045 -0.4758  0.8908 -0.4094
 5519TIP3   OH238047   5.373   2.874   3.744  0.0530 -0.1740 -0.1769
 5519TIP3    H138048   5.308   2.823   3.793  1.1886 -0.6507  0.9005
 5519TIP3    H238049   5.453   2.821   3.749  1.0009  1.2368  0.0968
 5520TIP3   OH238050   6.558   0.094  15.192 -0.4383 -0.0798 -0.6661
 5520TIP3    H138051   6.496   0.152  15.237 -1.1249  0.0284 -1.7231
 5520TIP3    H238052   6.644   0.121  15.226 -0.8725  0.4814  0.0288
 5521TIP3   OH238053   6.538   3.640  13.798 -0.0297 -0.4841  0.2046
 5521TIP3    H138054   6.482   3.641  13.876  0.4155  0.1148  0.5263
 5521TIP3    H238055   6.550   3.547  13.779 -0.4728 -0.6307  0.6116
 5522TIP3   OH238056   0.990   2.282   5.106 -0.3455 -0.1647  0.3660
 5522TIP3    H138057   0.902   2.261   5.138  0.2986 -1.4028  1.4118
 5522TIP3    H238058   1.011   2.209   5.047 -0.2521  0.4621 -0.3992
 5523TIP3   OH238059   0.974   0.822  16.237  0.0985  0.0374  0.4071
 5523TIP3    H138060   1.030   0.806  16.313  0.1175  0.9944  0.6127
 5523TIP3    H238061   1.035   0.829  16.163  0.0500 -1.2796  0.2221
 5524TIP3   OH238062   4.496   2.405   1.961 -0.2164 -0.4226  0.0197
 5524TIP3    H138063   4.565   2.346   1.993  0.9036  1.3771  1.0792
 5524TIP3    H238064   4.422   2.388   2.019 -1.2659 -3.3310 -1.9405
 5525TIP3   OH238065   1.917   1.680  17.194 -0.5033 -0.2468 -0.4546
 5525TIP3    H138066   1.992   1.739  17.203  1.1064 -2.3438  0.8039
 5525TIP3    H238067   1.844   1.729  17.230  0.7290  1.0636  0.3867
 5526TIP3   OH238068   2.403   3.980   4.516  0.0808  0.4561  0.3667
 5526TIP3    H138069   2.480   4.029   4.487  1.4312 -1.7785 -0.0533
 5526TIP3    H238070   2.358   3.954   4.435 -1.5545  2.2832  0.6146
 5527TIP3   OH238071   2.316   6.292   0.836 -0.6133  0.3238 -0.3961
 5527TIP3    H138072   2.325   6.345   0.915  3.3900  0.7269 -0.8756
 5527TIP3    H238073   2.304   6.203   0.867  0.8498  0.4888  0.7489
 5528TIP3   OH238074   2.945   3.620   3.490 -0.2832 -0.2138  0.2523
 5528TIP3    H138075   3.012   3.683   3.514 -0.0640  0.0002 -0.8774
 5528TIP3    H238076   2.881   3.624   3.562 -0.0449  0.9542  0.4136
 5529TIP3   OH238077   6.011   2.915   3.041  0.1154  0.1447  0.2069
 5529TIP3    H138078   6.004   2.907   3.136 -1.3691 -1.6243  0.0079
 5529TIP3    H238079   5.989   2.828   3.008  2.9711  0.0366 -1.6940
 5530TIP3   OH238080   2.692   5.308   2.627  0.4101  0.7680 -0.2688
 5530TIP3    H138081   2.736   5.391   2.607  2.8704  0.0907  1.7163
 5530TIP3    H238082   2.644   5.286   2.548 -2.0619  5.0358 -0.2295
 5531TIP3   OH238083   6.401   4.355  12.434  0.4720 -0.4949  0.3501
 5531TIP3    H138084   6.388   4.401  12.517  0.6487 -1.0096  0.6755
 5531TIP3    H238085   6.491   4.377  12.409  0.2767  0.0027  0.0717
 5532TIP3   OH238086   2.260   5.494   1.829 -0.9601  0.2229 -0.2162
 5532TIP3    H138087   2.292   5.511   1.741 -1.8106  3.5655 -0.0227
 5532TIP3    H238088   2.318   5.545   1.886 -0.4346 -1.8582  1.2118
 5533TIP3   OH238089   3.061   3.471  15.926 -0.5350 -0.5146 -0.3797
 5533TIP3    H138090   2.973   3.479  15.888 -0.3385 -0.9719 -0.9402
 5533TIP3    H238091   3.116   3.529  15.873 -0.4449 -0.4037 -0.1701
 5534TIP3   OH238092   2.306   6.754  13.340  0.5627  0.0905  0.2479
 5534TIP3    H138093   2.225   6.777  13.385  0.7776 -1.9050  1.8356
 5534TIP3    H238094   2.371   6.815  13.374  0.6371 -1.1332  2.5344
 5535TIP3   OH238095   2.834   1.303   2.884 -0.2256  0.0461  0.2815
 5535TIP3    H138096   2.860   1.217   2.915 -0.9269 -0.6005 -0.8404
 5535TIP3    H238097   2.917   1.349   2.868  0.1552  0.3326  2.7720
 5536TIP3   OH238098   0.278   6.206   5.482  0.3221 -0.0355 -1.3095
 5536TIP3    H138099   0.352   6.181   5.426 -0.0896  1.2735 -2.4980
 5536TIP3    H238100   0.295   6.298   5.504  0.6518 -0.5936  1.0736
 5537TIP3   OH238101   4.505   3.592  14.138  0.3160  0.5272 -1.0856
 5537TIP3    H138102   4.511   3.663  14.202  1.7797  0.5847 -1.2382
 5537TIP3    H238103   4.499   3.513  14.190  1.5867  0.5667 -0.8393
 5538TIP3   OH238104   4.467   4.297   3.167  0.5786  0.5194 -0.1398
 5538TIP3    H138105   4.544   4.346   3.139  1.0554  0.8183  1.5793
 5538TIP3    H238106   4.493   4.256   3.249 -1.4714  1.6292  1.1441
 5539TIP3   OH238107   3.920   2.112  11.684  0.0752 -0.0007 -0.2661
 5539TIP3    H138108   3.861   2.162  11.740  1.2417 -0.0583  1.0598
 5539TIP3    H238109   3.876   2.110  11.599 -1.2974  0.8896  0.3889
 5540TIP3   OH238110   5.514   5.535  13.706 -0.0214  0.0948  0.1765
 5540TIP3    H138111   5.437   5.480  13.694 -1.1620  1.7881 -0.7499
 5540TIP3    H238112   5.495   5.586  13.785  1.3515 -1.2689  1.4646
 5541TIP3   OH238113   1.801   1.660   5.381 -0.6091 -0.2122 -0.1538
 5541TIP3    H138114   1.775   1.738   5.331  0.1468  0.3298  0.2795
 5541TIP3    H238115   1.780   1.681   5.472  0.9533  0.1019  0.1644
 5542TIP3   OH238116   3.749   2.288   2.516  0.0868  0.1211  0.0008
 5542TIP3    H138117   3.821   2.350   2.530 -0.5272  1.2288 -1.3724
 5542TIP3    H238118   3.790   2.202   2.521  1.4312  0.7063 -0.3228
 5543TIP3   OH238119   2.734   2.308  15.591  0.3916  0.0194 -0.6542
 5543TIP3    H138120   2.823   2.340  15.607  0.7398 -1.8254  1.6123
 5543TIP3    H238121   2.747   2.224  15.547 -0.2506 -0.1372 -0.5424
 5544TIP3   OH238122   0.651   2.613   0.277  0.0132  0.0299  0.4332
 5544TIP3    H138123   0.661   2.687   0.337 -0.4597 -0.8195  1.5976
 5544TIP3    H238124   0.577   2.564   0.312 -1.1342  0.2097 -1.6138
 5545TIP3   OH238125   2.831   1.316  13.898 -0.3348  0.1640  0.1731
 5545TIP3    H138126   2.766   1.374  13.937 -1.9479 -1.6286  0.3340
 5545TIP3    H238127   2.779   1.251  13.850  1.3959 -0.8574 -0.4084
 5546TIP3   OH238128   2.614   0.574   3.770  0.0884  0.2880  0.4403
 5546TIP3    H138129   2.667   0.514   3.717 -1.5084  0.9750 -2.1310
 5546TIP3    H238130   2.677   0.635   3.807  1.6881 -2.4382  2.5610
 5547TIP3   OH238131   6.684   1.565  14.782 -0.3246 -0.5952  0.3236
 5547TIP3    H138132   6.667   1.576  14.688  0.3957 -2.3474 -0.0379
 5547TIP3    H238133   6.753   1.629  14.801 -1.3538  0.6720 -0.0263
 5548TIP3   OH238134   5.328   2.654  14.839 -0.2011 -0.0375 -0.5035
 5548TIP3    H138135   5.289   2.658  14.752  0.6833 -0.9757 -0.9660
 5548TIP3    H238136   5.254   2.638  14.898 -0.7963  0.5329 -1.0705
 5549TIP3   OH238137   2.251   3.859  16.367  0.7997 -0.1697  0.0656
 5549TIP3    H138138   2.239   3.845  16.273  0.4504  0.3546  0.0250
 5549TIP3    H238139   2.281   3.950  16.373 -3.6987  1.5352  0.7334
 5550TIP3   OH238140   0.509   3.678   1.631 -0.8988 -0.4468 -0.8390
 5550TIP3    H138141   0.553   3.593   1.624  0.4807  0.2938 -1.5682
 5550TIP3    H238142   0.543   3.717   1.712  0.5776  0.5234 -1.8785
 5551TIP3   OH238143   5.350   1.185  11.431  0.8189 -0.3487  0.9127
 5551TIP3    H138144   5.432   1.145  11.401  0.0593 -1.3766  0.1191
 5551TIP3    H238145   5.309   1.218  11.352  0.9125  1.0683  1.4366
 5552TIP3   OH238146   5.640   4.172   2.008 -0.2571 -0.5006 -0.2232
 5552TIP3    H138147   5.578   4.215   1.949 -0.3028 -2.9886 -2.1692
 5552TIP3    H238148   5.709   4.140   1.950 -0.5631 -3.4982  0.9188
 5553TIP3   OH238149   2.821   1.581   6.270 -0.8079  0.1239  0.2200
 5553TIP3    H138150   2.916   1.570   6.268 -0.8986 -0.6688 -0.0534
 5553TIP3    H238151   2.808   1.676   6.279  0.0061  0.2170  0.5194
 5554TIP3   OH238152   1.391   0.020   1.148 -0.0623  0.1780  0.2317
 5554TIP3    H138153   1.411   0.078   1.075  1.1521  0.5497  0.8257
 5554TIP3    H238154   1.471  -0.032   1.158 -0.8361 -1.0477  0.2267
 5555TIP3   OH238155   4.421   2.652   0.063  0.2121 -0.1333  0.6386
 5555TIP3    H138156   4.501   2.674   0.017 -0.3863 -0.0394 -0.3770
 5555TIP3    H238157   4.448   2.641   0.154  1.5890 -1.2642  0.1331
 5556TIP3   OH238158   2.942   0.878   3.421 -0.3294 -0.0847 -0.2205
 5556TIP3    H138159   2.887   0.871   3.343  1.1850 -1.1087 -1.2355
 5556TIP3    H238160   2.984   0.792   3.429  1.2485  0.7102  0.4079
 5557TIP3   OH238161   4.690   1.957  15.396 -0.5721  0.7308  0.0809
 5557TIP3    H138162   4.782   1.961  15.420 -0.5541 -0.9836  0.4200
 5557TIP3    H238163   4.648   1.909  15.467 -1.6379  0.9912 -0.3414
 5558TIP3   OH238164   2.375   3.946   5.307 -0.0123 -0.1447 -0.6552
 5558TIP3    H138165   2.415   3.862   5.285 -1.6466 -0.3764 -3.2534
 5558TIP3    H238166   2.356   3.940   5.400  1.9020 -1.7347 -0.2892
 5559TIP3   OH238167   1.396   1.869   3.418 -0.4958 -0.4262  0.2933
 5559TIP3    H138168   1.350   1.833   3.494 -1.5562 -0.5165 -0.3700
 5559TIP3    H238169   1.460   1.930   3.455  0.1335 -1.6570  1.3511
 5560TIP3   OH238170   4.367   6.119  12.424 -0.0972  0.0555  0.6558
 5560TIP3    H138171   4.330   6.034  12.446  0.6729 -0.4140  0.1589
 5560TIP3    H238172   4.424   6.102  12.349 -1.4642  1.3341 -0.7697
 5561TIP3   OH238173   6.224   0.860   4.874  0.2145 -0.0767  0.4324
 5561TIP3    H138174   6.201   0.833   4.963 -0.6389 -0.9775 -0.0478
 5561TIP3    H238175   6.297   0.921   4.886 -0.3946  0.4238  1.8018
 5562TIP3   OH238176   6.671   0.272  15.635  0.2890  0.1373  0.3857
 5562TIP3    H138177   6.744   0.333  15.622  0.0597  0.9720  2.6601
 5562TIP3    H238178   6.712   0.186  15.631  1.3706  0.5850  1.3745
 5563TIP3   OH238179   5.080   3.062  15.598 -0.1055  0.2384  0.1513
 5563TIP3    H138180   4.987   3.063  15.623 -0.3832  1.2340 -0.8346
 5563TIP3    H238181   5.096   3.151  15.565  1.2027  0.0741  0.3120
 5564TIP3   OH238182   1.543   1.259   1.593  0.1473  0.2444 -0.0630
 5564TIP3    H138183   1.579   1.331   1.540  0.8537 -0.3312 -0.3812
 5564TIP3    H238184   1.529   1.298   1.679  0.3813  0.8047 -0.2738
 5565TIP3   OH238185   0.591   5.393  11.413  0.1388 -0.3616  0.3812
 5565TIP3    H138186   0.497   5.411  11.415  0.0205 -0.9966  0.9023
 5565TIP3    H238187   0.624   5.444  11.338 -0.6304 -0.2076  0.1394
 5566TIP3   OH238188   2.474   0.887  12.859  0.2235  0.5461  0.4118
 5566TIP3    H138189   2.392   0.925  12.825 -1.1497 -1.2702  1.4870
 5566TIP3    H238190   2.543   0.942  12.822 -1.5296  3.1453  0.7141
 5567TIP3   OH238191   5.916   3.247  13.878 -0.2521 -0.2806 -0.2998
 5567TIP3    H138192   5.914   3.187  13.803 -1.3399 -0.9772  0.2697
 5567TIP3    H238193   6.006   3.242  13.910  0.5039  0.7230 -2.0877
 5568TIP3   OH238194   0.054   1.841  17.077 -0.0556 -0.0226 -0.0031
 5568TIP3    H138195   0.073   1.934  17.065  3.7024 -0.2615  2.5222
 5568TIP3    H238196   0.094   1.799  17.001 -0.1706  0.2904 -0.2387
 5569TIP3   OH238197   4.475   5.304  13.636 -0.4087 -0.3008  0.3464
 5569TIP3    H138198   4.409   5.289  13.569 -0.6259  0.4091  0.3943
 5569TIP3    H238199   4.546   5.244  13.613 -1.2293 -1.3826  0.5333
 5570TIP3   OH238200   2.697   3.316   0.771 -0.6113 -0.2506 -0.0620
 5570TIP3    H138201   2.609   3.285   0.751 -1.0346  1.7679 -1.6327
 5570TIP3    H238202   2.747   3.236   0.787 -1.9255 -1.7008 -2.5593
 5571TIP3   OH238203   0.162   0.286   1.651  0.3770 -0.0519 -0.7514
 5571TIP3    H138204   0.162   0.220   1.581 -2.1084 -1.6437  0.5992
 5571TIP3    H238205   0.129   0.239   1.727 -0.5830  2.5649  0.5493
 5572TIP3   OH238206   4.328   0.668   5.663 -0.0036  0.1979 -0.3699
 5572TIP3    H138207   4.348   0.664   5.570 -1.6170  1.6671 -0.8144
 5572TIP3    H238208   4.396   0.725   5.700 -1.2041  2.2839 -1.2484
 5573TIP3   OH238209   2.737   6.596   1.229 -0.0026  0.3372 -0.2862
 5573TIP3    H138210   2.670   6.656   1.263 -2.2036 -3.1123  2.1485
 5573TIP3    H238211   2.697   6.557   1.152 -0.0807 -0.4339  0.1326
 5574TIP3   OH238212   1.557   5.295  17.157  0.1677  0.3955 -0.4198
 5574TIP3    H138213   1.576   5.351  17.081  1.5735  1.5461  0.7109
 5574TIP3    H238214   1.585   5.208  17.130 -1.9133  0.2074 -2.1678
 5575TIP3   OH238215   3.191   2.549  17.122 -0.3115  0.0182 -0.3410
 5575TIP3    H138216   3.276   2.564  17.165  0.3125 -1.4906 -1.0173
 5575TIP3    H238217   3.212   2.541  17.029 -1.2471  0.0048 -0.5553
 5576TIP3   OH238218   3.734   0.226  12.203  0.0562  0.1537  0.0180
 5576TIP3    H138219   3.760   0.316  12.185 -0.7733  0.1592 -1.2115
 5576TIP3    H238220   3.766   0.210  12.292 -0.0828  1.7626  0.3867
 5577TIP3   OH238221   2.057   3.877   0.537  0.3370 -0.0167 -0.0400
 5577TIP3    H138222   2.138   3.860   0.490 -0.3800  1.2866 -1.8400
 5577TIP3    H238223   2.007   3.796   0.530  0.5141 -0.0538 -0.9712
 5578TIP3   OH238224   5.801   5.561  15.656 -0.0822  0.3285 -0.8629
 5578TIP3    H138225   5.866   5.512  15.706 -0.2572  0.1697 -0.7907
 5578TIP3    H238226   5.833   5.651  15.657 -0.8038  0.6045  0.7503
 5579TIP3   OH238227   6.384   1.929   3.246  0.0730  0.3046  0.6285
 5579TIP3    H138228   6.391   1.918   3.151  2.3355 -0.7533  0.8429
 5579TIP3    H238229   6.474   1.922   3.278 -0.1732  3.7418  2.6121
 5580TIP3   OH238230   4.801   3.866   0.505  0.1910  0.0430 -0.0610
 5580TIP3    H138231   4.748   3.826   0.574 -0.1080  1.3538  0.5102
 5580TIP3    H238232   4.887   3.880   0.546  0.3204 -0.0972 -0.2834
 5581TIP3   OH238233   2.750   5.884   6.318  0.5070 -0.0657 -0.1482
 5581TIP3    H138234   2.709   5.960   6.360 -1.0000 -0.5719 -0.6409
 5581TIP3    H238235   2.714   5.808   6.364 -0.2355 -0.5828 -1.5190
 5582TIP3   OH238236   2.076   3.888  13.812  0.1324  0.3273 -0.2242
 5582TIP3    H138237   2.080   3.812  13.753  3.1810 -0.4982  0.8844
 5582TIP3    H238238   2.073   3.850  13.900  1.6199  1.4458  0.3512
 5583TIP3   OH238239   2.513   6.308   6.197  0.2278 -0.5833 -0.4844
 5583TIP3    H138240   2.545   6.364   6.267  2.4394 -0.8705 -1.1755
 5583TIP3    H238241   2.523   6.219   6.230 -3.2175 -0.7495  0.5855
 5584TIP3   OH238242   3.937   4.620   5.013 -0.6518  0.0175  0.0252
 5584TIP3    H138243   3.940   4.627   4.918  0.6308 -0.4159  0.0194
 5584TIP3    H238244   3.902   4.532   5.030  0.5619 -0.5015 -0.0766
 5585TIP3   OH238245   2.108   5.817   5.720 -0.0465 -0.0934 -0.5066
 5585TIP3    H138246   2.150   5.762   5.654  1.6336  2.3587 -1.6241
 5585TIP3    H238247   2.019   5.831   5.687 -0.4253 -1.8745 -0.3136
 5586TIP3   OH238248   6.397   3.000  11.603 -0.0513 -0.6218 -0.9353
 5586TIP3    H138249   6.437   3.049  11.531 -0.8096 -0.1578 -1.0516
 5586TIP3    H238250   6.373   3.066  11.667  0.3861 -1.0089 -0.3550
 5587TIP3   OH238251   1.948   0.152   4.541 -0.3805 -0.1121  0.1777
 5587TIP3    H138252   1.950   0.147   4.445 -2.4482  1.3704 -0.0149
 5587TIP3    H238253   2.032   0.191   4.565  0.1981 -0.5786 -1.0100
 5588TIP3   OH238254   4.800   6.531  15.457 -0.1626  0.2690  0.0941
 5588TIP3    H138255   4.708   6.556  15.465 -0.6481 -1.8195  1.9787
 5588TIP3    H238256   4.800   6.436  15.472  2.2411  0.1227 -0.4715
 5589TIP3   OH238257   6.598   5.501  12.960  0.8061 -0.0112 -0.0860
 5589TIP3    H138258   6.532   5.570  12.952  0.8895 -0.0822 -1.8414
 5589TIP3    H238259   6.549   5.420  12.964  0.7184  0.0942  1.6717
 5590TIP3   OH238260   4.468   3.492  13.758 -0.5168 -0.0276  0.3256
 5590TIP3    H138261   4.378   3.458  13.756  0.4593 -2.8570  0.9671
 5590TIP3    H238262   4.515   3.439  13.694  0.9373  0.6749  0.7869
 5591TIP3   OH238263   2.231   2.770  11.590  0.5207  0.3276 -0.1938
 5591TIP3    H138264   2.267   2.820  11.517 -0.6666  0.9832 -0.3658
 5591TIP3    H238265   2.255   2.820  11.668 -0.0706  0.8179 -0.3150
 5592TIP3   OH238266   3.329   2.687   5.209 -0.0526 -0.0107 -0.1909
 5592TIP3    H138267   3.330   2.675   5.304  0.4424  0.2950 -0.1535
 5592TIP3    H238268   3.276   2.765   5.195  0.7880  0.5873 -0.0829
 5593TIP3   OH238269   5.604   0.010  11.440  0.3162  0.2579 -0.3906
 5593TIP3    H138270   5.522  -0.027  11.406  0.4812 -1.0696  0.6043
 5593TIP3    H238271   5.663   0.008  11.365  0.2241 -1.2439 -0.4555
 5594TIP3   OH238272   4.478   3.056   4.502 -0.6292 -0.2624 -0.1522
 5594TIP3    H138273   4.418   3.113   4.454  0.4867  1.1231  0.0572
 5594TIP3    H238274   4.426   3.025   4.576 -1.1758  0.7181 -0.1109
 5595TIP3   OH238275   1.409   3.060   4.729  0.0696 -0.3725  0.6259
 5595TIP3    H138276   1.445   3.147   4.746  0.3207 -0.2231 -0.6014
 5595TIP3    H238277   1.333   3.076   4.672  1.3564 -1.0777 -1.3839
 5596TIP3   OH238278   5.600   3.096  16.071  0.1678 -0.0972  0.0676
 5596TIP3    H138279   5.561   3.101  16.158 -0.3382  0.1787 -0.1672
 5596TIP3    H238280   5.555   3.023  16.028  0.0387  0.1035 -0.1428
 5597TIP3   OH238281   4.486   1.417   1.931  0.2367  0.6211 -0.8108
 5597TIP3    H138282   4.577   1.439   1.911  0.1447  1.5136 -0.3351
 5597TIP3    H238283   4.468   1.465   2.012  0.0264 -1.3272  0.3562
 5598TIP3   OH238284   0.243   2.087   0.721 -0.4010  0.2266 -0.4692
 5598TIP3    H138285   0.321   2.076   0.777 -1.0589  0.2740  0.4908
 5598TIP3    H238286   0.230   2.001   0.681 -0.4990 -0.1098  0.2564
 5599TIP3   OH238287   2.227   2.598   4.672  0.3127 -0.5315 -0.0783
 5599TIP3    H138288   2.275   2.653   4.610 -0.7027 -0.2497 -0.6403
 5599TIP3    H238289   2.242   2.508   4.640  0.8575 -0.4848  0.0389
 5600TIP3   OH238290   5.928   0.417  16.324  0.1959  0.4241 -0.6096
 5600TIP3    H138291   5.907   0.503  16.289 -1.0284  0.0216 -0.9249
 5600TIP3    H238292   5.968   0.370  16.251  1.7704  1.0074 -0.1675
 5601TIP3   OH238293   1.297   0.915   0.985 -0.2054 -0.1867  0.3369
 5601TIP3    H138294   1.391   0.899   0.990 -0.0949  0.5687  0.7757
 5601TIP3    H238295   1.276   0.962   1.065 -0.3232  2.7798 -1.3057
 5602TIP3   OH238296   6.569   0.168   4.194  0.5344  0.0507  0.4178
 5602TIP3    H138297   6.640   0.151   4.133  1.1385  2.2409  0.4358
 5602TIP3    H238298   6.611   0.173   4.280 -0.0722 -1.3141  0.8377
 5603TIP3   OH238299   1.831   4.708  14.912 -0.2891 -0.4463  0.0602
 5603TIP3    H138300   1.822   4.803  14.920 -0.3782 -0.5610  1.5939
 5603TIP3    H238301   1.743   4.677  14.888 -0.5098 -0.2307  0.5801
 5604TIP3   OH238302   1.604   4.638   0.841 -0.1482 -0.1218  0.1812
 5604TIP3    H138303   1.543   4.588   0.895 -1.8375  0.9301 -0.6928
 5604TIP3    H238304   1.678   4.655   0.900  0.1854 -2.9317  0.7390
 5605TIP3   OH238305   5.243   5.436   2.439  0.1888  0.3649  0.0714
 5605TIP3    H138306   5.229   5.348   2.404 -0.3025  0.4031  0.1665
 5605TIP3    H238307   5.158   5.462   2.473  0.4671  0.6437  0.5774
 5606TIP3   OH238308   3.856   6.151   0.705 -0.4684  0.1228 -0.4021
 5606TIP3    H138309   3.949   6.144   0.727 -0.5644  0.1676  0.0396
 5606TIP3    H238310   3.852   6.138   0.610  0.1490  1.4972 -0.6457
 5607TIP3   OH238311   0.548   1.075  10.888 -0.0172 -0.1786  0.0692
 5607TIP3    H138312   0.618   1.132  10.855 -0.1579  0.6092  1.0786
 5607TIP3    H238313   0.516   1.029  10.811  0.8507  0.2977 -0.5934
 5608TIP3   OH238314   6.729   0.630   0.134  0.1319  0.0040  0.4294
 5608TIP3    H138315   6.660   0.696   0.131 -0.3597 -0.5212 -0.1726
 5608TIP3    H238316   6.805   0.675   0.171 -0.0172  1.0668 -0.5147
 5609TIP3   OH238317   1.947   5.978  16.175  0.4187  0.2407  0.3010
 5609TIP3    H138318   1.855   5.994  16.198 -0.9374 -3.2737 -1.8023
 5609TIP3    H238319   1.991   5.964  16.259 -1.6505 -0.7813  1.2902
 5610TIP3   OH238320   1.071   3.333  15.976  0.3500 -0.0995  0.2477
 5610TIP3    H138321   1.144   3.273  15.960 -0.2994 -1.2972  1.5437
 5610TIP3    H238322   1.037   3.353  15.889  1.6537 -0.2435 -0.3126
 5611TIP3   OH238323   0.055   2.624   3.756  0.2148 -0.3528 -0.0349
 5611TIP3    H138324  -0.006   2.694   3.778  0.9627 -0.5003  2.9014
 5611TIP3    H238325   0.021   2.587   3.674 -1.0887  2.3505 -0.8401
 5612TIP3   OH238326   0.858   1.585   4.180  0.4819  0.8055 -0.5312
 5612TIP3    H138327   0.933   1.527   4.169  1.2833  1.3428  1.6208
 5612TIP3    H238328   0.889   1.671   4.152  1.6785  1.6132  2.7579
 5613TIP3   OH238329   1.056   4.996  15.068  0.7273  0.6651 -0.1287
 5613TIP3    H138330   1.032   5.029  14.981 -0.4297  0.9080  0.2692
 5613TIP3    H238331   0.997   4.922  15.083 -0.0140  1.4569  0.9919
 5614TIP3   OH238332   5.359   3.168  12.068 -0.3496  0.4479  0.6069
 5614TIP3    H138333   5.443   3.127  12.044 -0.2849  0.4676  0.7968
 5614TIP3    H238334   5.316   3.103  12.124 -1.4211 -0.4975 -1.2086
 5615TIP3   OH238335   1.872   2.521  14.437  0.3680  0.3283 -0.8286
 5615TIP3    H138336   1.870   2.538  14.531  1.9166  0.6536 -0.8250
 5615TIP3    H238337   1.788   2.479  14.418 -0.3251  1.0285  0.5356
 5616TIP3   OH238338   0.824   4.477   1.397  0.0226  0.0359 -0.1521
 5616TIP3    H138339   0.772   4.405   1.432 -0.3861  0.3890 -0.0236
 5616TIP3    H238340   0.775   4.506   1.320 -0.3538  0.8379  0.3766
 5617TIP3   OH238341   5.619   2.297  14.875 -0.1739 -0.2342 -0.7033
 5617TIP3    H138342   5.666   2.380  14.868 -0.7175  0.0824 -0.5815
 5617TIP3    H238343   5.672   2.236  14.824  1.2058 -0.2463  0.6755
 5618TIP3   OH238344   4.203   4.340  16.454 -0.1905  0.7512  0.2951
 5618TIP3    H138345   4.125   4.395  16.458 -0.9979 -0.0644 -2.4391
 5618TIP3    H238346   4.224   4.335  16.360  0.6362 -2.4815  0.5461
 5619TIP3   OH238347   1.229   1.518  11.489 -0.3097 -0.4174  0.1891
 5619TIP3    H138348   1.311   1.538  11.535 -0.1557 -0.9336  0.1384
 5619TIP3    H238349   1.162   1.564  11.540 -0.0849 -0.6271  0.6861
 5620TIP3   OH238350   4.465   4.677  15.949  0.4068 -0.1927 -0.0693
 5620TIP3    H138351   4.398   4.622  15.908  0.9076 -1.5394  0.8606
 5620TIP3    H238352   4.417   4.732  16.011 -0.0343  0.0601 -0.6273
 5621TIP3   OH238353   5.619   1.692   2.410 -0.6710  0.3386  0.1751
 5621TIP3    H138354   5.590   1.610   2.450 -3.1058  0.6769 -0.7465
 5621TIP3    H238355   5.614   1.756   2.481  1.1817 -0.2374  0.8841
 5622TIP3   OH238356   1.827   0.672   2.347  0.1104 -1.0892 -0.2347
 5622TIP3    H138357   1.761   0.742   2.349  0.8465 -0.2771 -2.1326
 5622TIP3    H238358   1.807   0.622   2.268  1.4380 -1.1484 -0.5536
 5623TIP3   OH238359   0.900   1.706  11.905 -0.2813 -0.7207 -0.0453
 5623TIP3    H138360   0.868   1.754  11.982 -0.1439 -1.1505  0.2765
 5623TIP3    H238361   0.974   1.758  11.874 -1.8889  0.8887 -1.4292
 5624TIP3   OH238362   3.464   5.173   6.202 -0.3599  0.0842  0.3561
 5624TIP3    H138363   3.529   5.232   6.240 -0.8537 -0.8879  2.8827
 5624TIP3    H238364   3.391   5.176   6.263 -1.5298 -1.0398 -0.9321
 5625TIP3   OH238365   0.870   6.742   5.374 -0.1109  0.2181  0.1053
 5625TIP3    H138366   0.842   6.792   5.298 -1.2613 -0.5814 -0.0419
 5625TIP3    H238367   0.816   6.776   5.446 -0.5771 -0.4685  0.0949
 5626TIP3   OH238368   1.222   3.591   4.586  0.2141  0.4997  0.4850
 5626TIP3    H138369   1.233   3.502   4.618 -0.9767  0.8957  2.1163
 5626TIP3    H238370   1.173   3.636   4.655  0.0275  2.1898 -0.6782
 5627TIP3   OH238371   4.698   6.687   4.836 -0.0629  0.8555 -0.3807
 5627TIP3    H138372   4.619   6.704   4.784 -2.1776 -0.4749  2.1650
 5627TIP3    H238373   4.710   6.767   4.888 -1.0382  0.2993  0.7395
 5628TIP3   OH238374   0.426   5.351   2.334  0.0919 -0.5435  0.3825
 5628TIP3    H138375   0.461   5.412   2.399 -1.0607 -0.3069  0.8191
 5628TIP3    H238376   0.331   5.366   2.336 -0.0388 -1.0963 -0.7945
 5629TIP3   OH238377   5.015   2.557   0.187  0.1863  0.2529 -0.2116
 5629TIP3    H138378   5.067   2.583   0.111 -0.1870 -2.4328 -1.5344
 5629TIP3    H238379   5.077   2.552   0.259  1.0157  0.6647 -0.8771
 5630TIP3   OH238380   1.357   2.570   4.444  0.9520  0.0297 -0.0718
 5630TIP3    H138381   1.436   2.538   4.400  1.7850 -1.6570  2.3909
 5630TIP3    H238382   1.373   2.663   4.456  1.8761  0.0086 -0.9462
 5631TIP3   OH238383   0.772   2.425  14.254 -0.9714 -0.0116 -0.0346
 5631TIP3    H138384   0.699   2.386  14.302 -0.2048 -1.3093  0.1176
 5631TIP3    H238385   0.850   2.387  14.294 -0.2478  0.4087 -1.0120
 5632TIP3   OH238386   4.760   5.201   5.777 -0.3037  0.0011 -0.0270
 5632TIP3    H138387   4.664   5.204   5.781 -0.2842  3.4530  2.1540
 5632TIP3    H238388   4.785   5.138   5.844 -1.0277  0.2760  0.5099
 5633TIP3   OH238389   1.305   0.645  11.054  0.1891  0.1820  0.1911
 5633TIP3    H138390   1.289   0.729  11.011  0.6015 -0.9340 -2.2825
 5633TIP3    H238391   1.220   0.601  11.055  0.5412 -0.6077 -1.4170
 5634TIP3   OH238392   6.245   6.585  13.350  0.3465 -0.0961 -0.9073
 5634TIP3    H138393   6.306   6.629  13.410 -0.3536  0.8140 -0.8390
 5634TIP3    H238394   6.293   6.582  13.267  0.5995  0.3757 -0.7874
 5635TIP3   OH238395   1.433   3.484   2.951  0.0628 -0.1353 -0.2567
 5635TIP3    H138396   1.390   3.470   2.867  1.1732 -1.7984 -0.5953
 5635TIP3    H238397   1.518   3.521   2.929 -0.2565  0.9408  0.2570
 5636TIP3   OH238398   4.272   2.582   5.048  0.8992  0.1735  0.0330
 5636TIP3    H138399   4.332   2.579   4.973  0.8649  0.7604 -0.0181
 5636TIP3    H238400   4.220   2.660   5.034  1.7895  1.0439  1.3440
 5637TIP3   OH238401   4.762   1.933  13.931 -0.1980  0.2829 -0.0792
 5637TIP3    H138402   4.705   1.968  13.863 -1.8505  1.3419  1.7753
 5637TIP3    H238403   4.810   2.008  13.965  0.7517 -0.2651 -0.1438
 5638TIP3   OH238404   6.124   4.753  16.792  0.3219 -0.4328 -0.1186
 5638TIP3    H138405   6.030   4.736  16.781  0.3853 -0.2626 -0.9982
 5638TIP3    H238406   6.134   4.846  16.770  0.3659  0.1764  2.1653
 5639TIP3   OH238407   6.543   4.980  11.653  0.3091 -0.4327  0.2713
 5639TIP3    H138408   6.470   4.965  11.594 -0.4355 -0.0791  1.0780
 5639TIP3    H238409   6.559   5.074  11.648 -0.6230 -0.1785  1.5879
 5640TIP3   OH238410   6.787   0.203   2.972  0.3141 -0.2515 -0.1814
 5640TIP3    H138411   6.702   0.196   3.015 -0.5398 -1.6572 -1.9571
 5640TIP3    H238412   6.839   0.132   3.009 -0.1131 -0.8995 -0.8147
 5641TIP3   OH238413   4.493   4.981   5.010  0.1405  0.1289 -0.1452
 5641TIP3    H138414   4.519   4.926   5.084 -0.0330 -0.5719 -0.5934
 5641TIP3    H238415   4.550   4.953   4.939 -0.3758  0.0935 -0.5480
 5642TIP3   OH238416   5.288   2.946  12.242  0.3168  0.0451 -0.3537
 5642TIP3    H138417   5.295   2.991  12.327 -0.1970 -1.7300  0.6762
 5642TIP3    H238418   5.323   2.859  12.258  0.9365 -0.0891 -2.2061
 5643TIP3   OH238419   3.429   5.122  12.712 -0.2494  0.1787 -0.0037
 5643TIP3    H138420   3.477   5.044  12.740  0.5280  0.3435 -0.8279
 5643TIP3    H238421   3.457   5.191  12.772  1.2525  0.4848 -1.0192
 5644TIP3   OH238422   4.389   4.191   4.701  0.3096 -0.3515  0.2906
 5644TIP3    H138423   4.385   4.199   4.605 -2.2458 -1.0981  0.2544
 5644TIP3    H238424   4.302   4.160   4.725  0.1787  1.8337  3.0802
 5645TIP3   OH238425   3.358   5.040  13.482 -0.1448  0.3247 -0.3790
 5645TIP3    H138426   3.369   5.037  13.577  0.5043  0.5642 -0.4379
 5645TIP3    H238427   3.358   5.134  13.460  1.5137  0.2645 -0.7898
 5646TIP3   OH238428   1.276   2.447   2.317  0.5082  0.8682  0.1918
 5646TIP3    H138429   1.311   2.535   2.307  1.7659  0.3784  0.1053
 5646TIP3    H238430   1.350   2.389   2.300 -0.5887 -0.2493 -1.0239
 5647TIP3   OH238431   0.821   2.973   0.599  0.2390  0.4626  0.4076
 5647TIP3    H138432   0.829   2.928   0.515  0.0154 -0.9968  1.1274
 5647TIP3    H238433   0.757   3.043   0.584 -0.4889 -0.3580 -0.4209
 5648TIP3   OH238434   2.114   6.507  12.513 -0.6781 -0.3546 -0.0480
 5648TIP3    H138435   2.201   6.538  12.488  0.0170 -0.6001  1.8996
 5648TIP3    H238436   2.066   6.502  12.431  1.1421 -0.1903 -1.1819
 5649TIP3   OH238437   6.032   0.669   4.128  0.5075  0.0162  0.2321
 5649TIP3    H138438   6.099   0.602   4.116 -0.0452 -0.0984 -2.8466
 5649TIP3    H238439   6.066   0.745   4.080 -0.4477  0.7982  0.7646
 5650TIP3   OH238440   4.738   5.287   1.551  0.0696  0.1344  0.5126
 5650TIP3    H138441   4.658   5.313   1.506  0.3407  0.6931  0.3443
 5650TIP3    H238442   4.790   5.367   1.556  1.1668 -0.4665 -0.5387
 5651TIP3   OH238443   1.082   0.726  15.997 -0.1465  0.0799  0.0113
 5651TIP3    H138444   1.010   0.686  15.948 -1.2489 -0.5546  2.0263
 5651TIP3    H238445   1.116   0.656  16.053  0.5783  0.9344  0.6906
 5652TIP3   OH238446   5.386   3.152   3.752 -0.4671 -0.6013 -0.4421
 5652TIP3    H138447   5.364   3.062   3.727 -0.4879 -0.2226 -1.8545
 5652TIP3    H238448   5.454   3.142   3.818  0.3334 -1.6531 -1.3735
 5653TIP3   OH238449   4.758   4.855   0.910 -0.3813 -0.5279 -0.3292
 5653TIP3    H138450   4.826   4.840   0.976  0.6745 -1.3388 -1.5503
 5653TIP3    H238451   4.679   4.875   0.960  0.7773  0.5368  1.1337
 5654TIP3   OH238452   0.638   5.804  11.625  0.0964  0.0040  0.5314
 5654TIP3    H138453   0.678   5.891  11.624  0.7004 -0.2688 -1.0351
 5654TIP3    H238454   0.563   5.811  11.567  0.9641 -0.8629 -0.7492
 5655TIP3   OH238455   3.590   4.021   2.921 -0.2104  0.0949  0.6131
 5655TIP3    H138456   3.554   4.087   2.863 -0.9934 -0.2446  0.7022
 5655TIP3    H238457   3.607   3.946   2.864  0.0483  0.1356  0.6330
 5656TIP3   OH238458   3.976   2.862  16.464  0.1693 -0.5270 -0.2393
 5656TIP3    H138459   3.912   2.817  16.408  0.2554  1.0833 -1.7043
 5656TIP3    H238460   3.980   2.951  16.430  2.0113 -0.1339  0.8549
 5657TIP3   OH238461   3.180   2.032   3.691 -0.7948  0.4517  0.0473
 5657TIP3    H138462   3.261   2.081   3.675 -1.0107  0.3746 -1.4166
 5657TIP3    H238463   3.210   1.948   3.727 -0.3129  0.9400  0.7969
 5658TIP3   OH238464   1.566   6.460  16.805  0.4237  0.2703 -0.5377
 5658TIP3    H138465   1.586   6.387  16.863 -0.7234  0.1630 -0.2493
 5658TIP3    H238466   1.480   6.439  16.769  0.3119  1.2200 -0.8564
 5659TIP3   OH238467   3.946   6.768  13.880 -0.5136  0.4209 -0.5986
 5659TIP3    H138468   4.018   6.712  13.906 -1.9019  0.1442  3.3024
 5659TIP3    H238469   3.981   6.819  13.807  2.6697 -1.5252 -0.6367
 5660TIP3   OH238470   5.305   1.063  11.715 -0.0558  0.0267 -0.2043
 5660TIP3    H138471   5.279   1.065  11.623 -2.1392  3.0331  0.2858
 5660TIP3    H238472   5.377   1.125  11.722  1.0035 -1.1922  0.0243
 5661TIP3   OH238473   2.653   6.051  13.710  0.3670  0.6636 -0.4348
 5661TIP3    H138474   2.607   6.062  13.793 -2.4468  0.2855 -1.8030
 5661TIP3    H238475   2.664   6.139  13.676  0.1671  0.7309 -0.3242
 5662TIP3   OH238476   2.796   4.680   3.451 -0.1079 -0.7707  0.7442
 5662TIP3    H138477   2.856   4.613   3.482  0.8216  0.3358  1.4049
 5662TIP3    H238478   2.846   4.729   3.385 -1.0772 -1.2630 -0.4004
 5663TIP3   OH238479   0.035   6.221   1.438  0.2303 -0.0292  0.0621
 5663TIP3    H138480  -0.042   6.277   1.424  0.6709  1.1742  1.9919
 5663TIP3    H238481   0.042   6.168   1.359 -0.0349  2.8884 -2.0593
 5664TIP3   OH238482   3.259   2.365  13.857 -0.1274  0.1312 -0.3741
 5664TIP3    H138483   3.178   2.405  13.888  0.4852  1.5282 -0.5084
 5664TIP3    H238484   3.254   2.370  13.762  0.0168  0.0168 -0.3877
 5665TIP3   OH238485   5.838   2.227  11.567 -0.0754  0.2714  0.3667
 5665TIP3    H138486   5.792   2.291  11.513 -1.1643 -0.5765  0.2449
 5665TIP3    H238487   5.793   2.144  11.550  1.2890 -0.5454  0.5118
 5666TIP3   OH238488   1.790   3.685   3.393  0.1675  0.5649 -0.1863
 5666TIP3    H138489   1.810   3.671   3.486 -0.6704 -0.3500 -0.1259
 5666TIP3    H238490   1.729   3.759   3.393 -0.1476  0.3085  0.0329
 5667TIP3   OH238491   2.383   3.803  15.804 -0.5370  0.4069  0.0395
 5667TIP3    H138492   2.320   3.862  15.846 -1.5149 -1.4075  1.2461
 5667TIP3    H238493   2.461   3.809  15.858 -1.0241 -0.2164  0.8454
 5668TIP3   OH238494   2.404   0.359   1.981 -0.3921 -0.5554 -0.0731
 5668TIP3    H138495   2.397   0.321   1.893 -0.3357  0.4150 -0.5015
 5668TIP3    H238496   2.494   0.338   2.008 -0.8297 -2.0359  0.3241
 5669TIP3   OH238497   4.508   2.258  12.571 -0.6043  0.0925  0.4686
 5669TIP3    H138498   4.535   2.170  12.546 -0.9607  0.1555 -0.1576
 5669TIP3    H238499   4.561   2.278  12.648 -0.3739 -0.5873  0.4936
 5670TIP3   OH238500   4.681   6.787  14.876 -0.1089  0.2300 -0.2558
 5670TIP3    H138501   4.734   6.721  14.921 -1.1711  0.1189  0.8908
 5670TIP3    H238502   4.733   6.811  14.799  1.3818 -0.2126  0.5642
 5671TIP3   OH238503   1.726   0.571   3.010 -0.6252  0.0502  0.2454
 5671TIP3    H138504   1.741   0.593   3.102 -0.4497  0.8682  0.0320
 5671TIP3    H238505   1.631   0.564   3.002 -0.6307 -0.2070  0.5284
 5672TIP3   OH238506   2.524   5.807  11.589  0.3061 -0.1944  0.3073
 5672TIP3    H138507   2.567   5.863  11.654  0.9426 -0.7025  0.3370
 5672TIP3    H238508   2.484   5.737  11.640  0.8898 -0.6483  0.1593
 5673TIP3   OH238509   2.710   5.270   1.522  0.1780 -0.0041 -0.3650
 5673TIP3    H138510   2.782   5.243   1.466 -1.3080  1.4940 -3.2145
 5673TIP3    H238511   2.741   5.350   1.564  0.6998 -0.1915 -0.3867
 5674TIP3   OH238512   0.116   6.110   5.204  0.4266 -0.1043 -0.2405
 5674TIP3    H138513   0.058   6.185   5.194 -0.7176 -0.8414  0.6655
 5674TIP3    H238514   0.196   6.135   5.158 -0.8713  0.6235 -2.1942
 5675TIP3   OH238515   5.476   6.782  16.318  0.1429 -0.5622 -0.0369
 5675TIP3    H138516   5.392   6.786  16.272 -1.2261 -0.8609  2.3092
 5675TIP3    H238517   5.482   6.864  16.366 -0.7035 -2.0201  2.7956
 5676TIP3   OH238518   6.422   4.050   4.711  1.2494  0.4947  0.6598
 5676TIP3    H138519   6.355   4.009   4.766 -0.0570  0.1279 -1.0853
 5676TIP3    H238520   6.450   3.979   4.652 -0.7047  1.8215 -2.1113
 5677TIP3   OH238521   0.752   4.869   3.988  0.1701 -0.4904  0.3635
 5677TIP3    H138522   0.839   4.834   4.003 -0.5369 -1.6495  2.1588
 5677TIP3    H238523   0.711   4.809   3.926  0.0004 -1.1435  1.0823
 5678TIP3   OH238524   6.763   3.643   2.595 -0.4750  0.1200  0.1694
 5678TIP3    H138525   6.788   3.682   2.679 -0.1643  0.7097 -0.1888
 5678TIP3    H238526   6.707   3.709   2.554 -0.3564 -0.0252 -0.2276
 5679TIP3   OH238527   3.667   4.894   6.704 -0.2958 -0.4122 -0.5969
 5679TIP3    H138528   3.606   4.918   6.774 -0.5672 -1.8304 -0.3107
 5679TIP3    H238529   3.733   4.963   6.705  0.2013 -0.8263  1.7000
 5680TIP3   OH238530   2.885   2.853  12.789 -0.0567  0.4050 -0.0984
 5680TIP3    H138531   2.796   2.840  12.756 -0.9577  0.4074  2.1238
 5680TIP3    H238532   2.920   2.924  12.736 -1.7342  1.0160 -0.4508
 5681TIP3   OH238533   2.558   5.350   4.361  0.3238  0.5297  0.2354
 5681TIP3    H138534   2.603   5.362   4.277 -1.0276  1.5430 -0.3928
 5681TIP3    H238535   2.567   5.257   4.380  0.3270  0.1986 -1.2499
 5682TIP3   OH238536   3.007   1.416  15.361  0.1455 -0.1196  0.0994
 5682TIP3    H138537   3.014   1.321  15.376 -0.8407 -0.1341  0.5689
 5682TIP3    H238538   3.027   1.427  15.268  2.7573 -0.4725  0.5345
 5683TIP3   OH238539   5.848   3.238  16.774  0.0998  0.3825 -0.3216
 5683TIP3    H138540   5.891   3.202  16.851 -0.4053 -1.1553 -0.7163
 5683TIP3    H238541   5.811   3.322  16.803 -0.5574 -0.4162  1.2627
 5684TIP3   OH238542   3.689   0.813   3.567 -0.5019 -0.2971  0.2093
 5684TIP3    H138543   3.682   0.717   3.568  2.7688 -0.6765 -0.3945
 5684TIP3    H238544   3.699   0.838   3.659  0.5660 -0.7875  0.2388
 5685TIP3   OH238545   5.089   5.297  14.204  0.3420 -0.1506  0.5859
 5685TIP3    H138546   5.027   5.334  14.141  2.3157  1.5316 -0.4921
 5685TIP3    H238547   5.065   5.338  14.287 -0.1458  0.3132  0.2301
 5686TIP3   OH238548   2.743   1.135  15.338 -0.4464  0.6887 -0.1998
 5686TIP3    H138549   2.834   1.165  15.341  0.8822 -2.8819  0.2171
 5686TIP3    H238550   2.729   1.091  15.421 -1.4120 -1.5866 -1.4539
 5687TIP3   OH238551   4.936   5.190  11.608 -0.7205  0.1536  0.2616
 5687TIP3    H138552   4.921   5.186  11.703  0.2330  0.8867  0.4597
 5687TIP3    H238553   5.029   5.172  11.598 -0.7093  0.6135 -0.5011
 5688TIP3   OH238554   4.633   0.526   4.780 -0.0747 -0.4147 -0.0642
 5688TIP3    H138555   4.688   0.603   4.768  0.6555 -0.9411 -0.1614
 5688TIP3    H238556   4.692   0.452   4.766 -0.5923 -1.0021  0.7608
 5689TIP3   OH238557   3.073   5.664   4.262  0.1257  0.1837  0.1254
 5689TIP3    H138558   3.016   5.680   4.338  0.0425 -0.9977  0.3269
 5689TIP3    H238559   3.014   5.633   4.194  0.3056  0.5262 -0.1839
 5690TIP3   OH238560   5.554   4.711   2.865  0.2698 -0.3894 -0.2289
 5690TIP3    H138561   5.468   4.674   2.882 -0.8588  1.6780 -1.0938
 5690TIP3    H238562   5.571   4.692   2.773  0.1427  0.2820 -0.4011
 5691TIP3   OH238563   5.894   2.285  11.198 -0.7484  0.2352 -0.1104
 5691TIP3    H138564   5.850   2.202  11.220  1.4139 -0.4786  1.9382
 5691TIP3    H238565   5.957   2.260  11.130 -1.5604  0.6914 -1.0548
 5692TIP3   OH238566   5.046   6.395  15.698  0.0606  0.5427  0.0991
 5692TIP3    H138567   5.100   6.469  15.669  1.0815  0.0744  0.7659
 5692TIP3    H238568   5.074   6.378  15.788 -1.9423  0.9530  0.8577
 5693TIP3   OH238569   3.561   1.077  12.432 -0.0436 -0.2805 -0.0812
 5693TIP3    H138570   3.556   1.148  12.368 -1.2771 -0.1117  0.1855
 5693TIP3    H238571   3.598   1.004  12.383  1.7622  0.6580 -0.2292
 5694TIP3   OH238572   6.676   3.581  15.758  0.0212 -0.3241  0.3103
 5694TIP3    H138573   6.706   3.663  15.721 -0.2267 -0.4610 -0.2078
 5694TIP3    H238574   6.628   3.606  15.837  1.1132 -0.0766  0.9169
 5695TIP3   OH238575   2.629   4.058  11.153 -0.1057 -0.2215 -0.4037
 5695TIP3    H138576   2.701   4.119  11.138  1.5825 -1.8877  0.6045
 5695TIP3    H238577   2.611   4.064  11.247  0.6487 -1.8312 -0.1337
 5696TIP3   OH238578   5.596   5.559   3.547 -0.4878 -0.0182 -0.3016
 5696TIP3    H138579   5.659   5.593   3.610 -0.3925  1.3075 -1.0871
 5696TIP3    H238580   5.510   5.583   3.583 -0.4193  1.1289 -0.8774
 5697TIP3   OH238581   4.269   4.053  14.348 -0.4812  0.2385  0.0891
 5697TIP3    H138582   4.238   3.991  14.282 -2.0173  2.5270 -1.5409
 5697TIP3    H238583   4.364   4.046  14.346 -0.5554 -0.7861 -1.3553
 5698TIP3   OH238584   0.061   3.878  15.669  0.0116  0.4165  0.3391
 5698TIP3    H138585   0.009   3.944  15.622 -0.3865  0.3120  0.6231
 5698TIP3    H238586   0.152   3.907  15.658 -0.1894  1.3141  0.8924
 5699TIP3   OH238587   4.101   5.669   1.041 -0.2126 -0.0872  0.4770
 5699TIP3    H138588   4.147   5.611   1.102 -1.4938  1.4587  3.0829
 5699TIP3    H238589   4.150   5.661   0.959  1.3428 -2.6227  1.5426
 5700TIP3   OH238590   2.618   6.781   4.463  0.4697  0.0728  0.2623
 5700TIP3    H138591   2.551   6.805   4.527 -0.8460  0.6155 -1.2628
 5700TIP3    H238592   2.635   6.688   4.480  0.3104  0.2574  1.5173
 5701TIP3   OH238593   1.310   2.436  11.539 -0.0158 -0.3675 -0.1747
 5701TIP3    H138594   1.336   2.433  11.447 -0.3297 -1.6628 -0.2321
 5701TIP3    H238595   1.381   2.391  11.586  0.3532  0.6599  0.2821
 5702TIP3   OH238596   3.227   1.135   5.330  0.0437  0.5458  0.1369
 5702TIP3    H138597   3.206   1.218   5.373  0.5819  0.7984 -0.0752
 5702TIP3    H238598   3.150   1.081   5.344 -0.4794  1.2223 -0.0670
 5703TIP3   OH238599   2.253   0.863  17.055  0.2655  0.2589  0.2484
 5703TIP3    H138600   2.223   0.844  16.966  3.6425 -1.6296 -0.6843
 5703TIP3    H238601   2.248   0.958  17.062  0.6119  0.5450 -2.3066
 5704TIP3   OH238602   1.229   6.094  10.380  0.0355 -0.8578 -0.0827
 5704TIP3    H138603   1.185   6.053  10.305 -0.6114  0.2714 -0.3345
 5704TIP3    H238604   1.163   6.152  10.418  0.4620 -1.1718  1.1811
 5705TIP3   OH238605   1.285   5.212  16.674  0.1474  0.0983  0.7076
 5705TIP3    H138606   1.304   5.120  16.661  0.4399  0.3104 -0.5056
 5705TIP3    H238607   1.240   5.239  16.594 -0.6015  0.8346  1.3572
 5706TIP3   OH238608   6.156   3.492  16.679 -0.0704  0.3238  0.5366
 5706TIP3    H138609   6.192   3.575  16.648  1.2020 -0.7657 -1.0836
 5706TIP3    H238610   6.067   3.489  16.642 -0.3056  1.1486  1.0097
 5707TIP3   OH238611   2.775   0.367  12.047 -0.1394  0.1997 -0.3094
 5707TIP3    H138612   2.787   0.455  12.011  1.6439  0.1867  0.1434
 5707TIP3    H238613   2.718   0.322  11.984 -1.5392  1.8228 -0.2629
 5708TIP3   OH238614   2.320   0.489   3.454  0.4908  0.0447  0.3361
 5708TIP3    H138615   2.371   0.570   3.459  2.7817 -1.1521 -1.5366
 5708TIP3    H238616   2.365   0.429   3.513 -0.0747 -0.4176  0.3051
 5709TIP3   OH238617   3.765   0.413   2.769 -0.0812 -0.0028 -0.2240
 5709TIP3    H138618   3.779   0.381   2.858  0.9714  0.6393 -0.1427
 5709TIP3    H238619   3.833   0.479   2.756 -1.1406  0.9829 -0.9825
 5710TIP3   OH238620   1.225   2.946   2.057 -0.4152 -0.6158  0.2890
 5710TIP3    H138621   1.248   2.939   2.150 -0.0063 -0.0701  0.2283
 5710TIP3    H238622   1.180   2.863   2.038 -2.2097  0.0448  1.4399
 5711TIP3   OH238623   1.166   6.417   0.775  0.0053 -0.3640  0.3598
 5711TIP3    H138624   1.252   6.421   0.733 -0.2076 -0.8586 -0.1317
 5711TIP3    H238625   1.115   6.485   0.732 -0.2956 -1.0482 -0.3895
 5712TIP3   OH238626   3.105   2.829  14.488  0.1337  0.4474  0.4899
 5712TIP3    H138627   3.076   2.920  14.492 -1.3816 -0.0006  0.2088
 5712TIP3    H238628   3.042   2.782  14.541  0.8377 -0.4731  0.5307
 5713TIP3   OH238629   6.243   0.759   2.788  0.1885 -0.4377  0.0120
 5713TIP3    H138630   6.252   0.851   2.763 -0.6455 -0.4320 -0.3160
 5713TIP3    H238631   6.289   0.710   2.719 -1.6600 -0.3935 -1.3187
 5714TIP3   OH238632   4.690   5.498   0.377  0.1658  0.8930  0.4202
 5714TIP3    H138633   4.711   5.458   0.462  1.3099  0.3360 -0.1039
 5714TIP3    H238634   4.746   5.575   0.372 -0.7995  1.6360  0.6822
 5715TIP3   OH238635   5.812   5.968  14.309 -0.0539  0.2400 -0.5767
 5715TIP3    H138636   5.846   5.882  14.286  1.4295  0.0636  1.9038
 5715TIP3    H238637   5.781   5.959  14.399  1.5793  2.5761  0.3442
 5716TIP3   OH238638   0.958   0.020  14.969 -0.3876  0.0024 -0.0501
 5716TIP3    H138639   0.867   0.006  14.996 -0.3838  0.4147  0.1778
 5716TIP3    H238640   0.951   0.063  14.883 -0.4122  0.5480  0.2234
 5717TIP3   OH238641   6.651   2.455  12.777 -0.2302  0.4113  1.4128
 5717TIP3    H138642   6.565   2.496  12.764 -0.0285  0.7039  0.9777
 5717TIP3    H238643   6.714   2.523  12.753  0.1132 -0.5398 -0.5954
 5718TIP3   OH238644   0.876   2.837  13.190  0.3111 -0.4168  0.2351
 5718TIP3    H138645   0.914   2.920  13.219  0.9304 -0.4255 -0.4970
 5718TIP3    H238646   0.798   2.863  13.141  1.3102 -0.1389 -1.2746
 5719TIP3   OH238647   2.013   6.035  12.451  0.4501  0.6092 -0.5178
 5719TIP3    H138648   2.089   6.050  12.508  0.0205 -0.9121  0.4916
 5719TIP3    H238649   1.939   6.073  12.498  0.3794  0.9595 -0.9096
 5720TIP3   OH238650   1.346   3.112  10.833  0.6716 -0.3499  0.4826
 5720TIP3    H138651   1.364   3.169  10.759  1.8161  0.6509  1.4838
 5720TIP3    H238652   1.289   3.163  10.890 -0.6256 -1.3033  0.1007
 5721TIP3   OH238653   6.246   5.410   2.049  0.0164 -0.1260  0.2257
 5721TIP3    H138654   6.180   5.383   2.113  1.3659 -1.2079  1.2024
 5721TIP3    H238655   6.263   5.332   1.998  0.0844  0.3292 -0.4593
 5722TIP3   OH238656   1.620   1.359  10.831 -0.0868  0.3343  0.2770
 5722TIP3    H138657   1.573   1.327  10.909 -0.7664 -0.9447 -0.6209
 5722TIP3    H238658   1.588   1.304  10.760  0.4672  1.5312 -0.9395
 5723TIP3   OH238659   2.957   6.760  15.835  0.8758 -0.4156  0.1147
 5723TIP3    H138660   2.865   6.738  15.854  0.1580  1.3811 -0.9660
 5723TIP3    H238661   2.955   6.854  15.816  3.2068 -0.0213  1.4816
 5724TIP3   OH238662   3.383   5.602  12.434  0.4622 -0.0859 -0.3868
 5724TIP3    H138663   3.377   5.586  12.528  0.4271  0.2439 -0.3333
 5724TIP3    H238664   3.465   5.650  12.423  0.3674  0.0506 -0.5008
 5725TIP3   OH238665   0.860   4.783  14.361 -0.4563  0.0466 -1.1493
 5725TIP3    H138666   0.860   4.833  14.279 -0.0649  1.3176 -0.4025
 5725TIP3    H238667   0.775   4.740  14.362 -0.8545  0.7848 -1.7690
 5726TIP3   OH238668   4.317   1.722   2.499  0.3829 -0.0648 -0.4494
 5726TIP3    H138669   4.340   1.814   2.515 -0.4956  0.1737 -0.4844
 5726TIP3    H238670   4.266   1.724   2.418  0.1708 -0.5609 -0.3314
 5727TIP3   OH238671   6.206   3.582   0.037  0.2994  0.3799  0.4599
 5727TIP3    H138672   6.168   3.563  -0.048 -0.3660 -0.6832  0.9646
 5727TIP3    H238673   6.152   3.653   0.072 -2.2696 -2.0044  1.7441
 5728TIP3   OH238674   1.520   4.851   2.231  0.3052 -0.1925  0.5355
 5728TIP3    H138675   1.609   4.855   2.267  0.2677  0.1016  0.5927
 5728TIP3    H238676   1.522   4.774   2.174  1.5047  1.4329 -1.8052
 5729TIP3   OH238677   0.843   5.977  11.385 -0.0923 -0.2213 -0.4743
 5729TIP3    H138678   0.807   5.890  11.366 -0.3075 -0.7646  2.1128
 5729TIP3    H238679   0.770   6.037  11.371 -1.1631 -0.9578  1.5297
 5730TIP3   OH238680   1.006   4.119   3.605 -0.3351  0.2104  0.2811
 5730TIP3    H138681   0.971   4.182   3.542  0.3477  0.3292  0.0111
 5730TIP3    H238682   0.933   4.061   3.625 -0.2418 -0.5990 -1.5680
 5731TIP3   OH238683   5.846   2.810   4.711 -0.1063 -0.1171  0.4334
 5731TIP3    H138684   5.839   2.902   4.734  1.4546 -0.1490  1.1671
 5731TIP3    H238685   5.761   2.772   4.735 -0.5914  1.0301  0.5522
 5732TIP3   OH238686   4.734   6.129  16.305 -0.6130  0.3516 -0.3421
 5732TIP3    H138687   4.693   6.198  16.357 -0.5630  0.1058  0.0249
 5732TIP3    H238688   4.728   6.051  16.360 -1.8581 -0.2451 -1.2707
 5733TIP3   OH238689   1.989   5.520   1.859  0.2876  0.2554 -0.4069
 5733TIP3    H138690   1.976   5.475   1.943 -1.2073 -0.7949 -1.1526
 5733TIP3    H238691   2.083   5.517   1.844  0.6517  0.9491  1.4835
 5734TIP3   OH238692   2.044   3.063   3.602  0.4691 -0.4020  0.3704
 5734TIP3    H138693   2.050   3.131   3.669 -0.4294  0.3382 -0.2750
 5734TIP3    H238694   1.958   3.024   3.616 -0.6531  1.1830 -1.6346
 5735TIP3   OH238695   4.186   4.903  15.628  0.6923  0.3741  0.0860
 5735TIP3    H138696   4.163   4.892  15.536 -0.0914 -2.5998  0.5469
 5735TIP3    H238697   4.272   4.862  15.636  1.3553  1.7644  0.4951
 5736TIP3   OH238698   5.243   5.432   1.813  0.3745  0.1464  0.1239
 5736TIP3    H138699   5.158   5.472   1.796  0.3058 -0.1027 -0.1302
 5736TIP3    H238700   5.304   5.505   1.820  0.3944  0.2658 -1.1566
 5737TIP3   OH238701   0.361   0.015  11.772 -0.4761 -0.0603  0.4568
 5737TIP3    H138702   0.323   0.097  11.803 -1.5525 -0.1097 -0.6741
 5737TIP3    H238703   0.440   0.041  11.725 -2.0955  0.6495 -2.0800
 5738TIP3   OH238704   2.741   0.754  13.429  0.6562 -0.3501 -0.0325
 5738TIP3    H138705   2.752   0.837  13.383  1.1462 -0.5746 -0.3231
 5738TIP3    H238706   2.822   0.705  13.412 -0.7720 -2.1471 -2.4468
 5739TIP3   OH238707   6.775   0.334   1.066 -0.4247  0.5706 -0.0165
 5739TIP3    H138708   6.775   0.427   1.040 -0.3103  0.5939  0.0687
 5739TIP3    H238709   6.752   0.287   0.985  1.3060  0.5417 -0.5325
 5740TIP3   OH238710   3.650   2.207  15.032  0.3931 -0.1343  0.7395
 5740TIP3    H138711   3.666   2.121  14.993 -0.3511 -0.5660  1.3541
 5740TIP3    H238712   3.704   2.267  14.981  2.3142 -1.2064  1.4256
 5741TIP3   OH238713   5.806   4.647  13.445  0.2058  0.2975 -0.1619
 5741TIP3    H138714   5.877   4.589  13.472 -1.2722 -1.2133  0.6594
 5741TIP3    H238715   5.822   4.661  13.351  0.9671 -0.9261 -0.2455
 5742TIP3   OH238716   6.428   2.971   1.898  0.0640  0.4528  0.1438
 5742TIP3    H138717   6.413   2.998   1.988  1.4524 -0.6402  0.7342
 5742TIP3    H238718   6.473   3.045   1.858  0.2174  0.6065  0.5940
 5743TIP3   OH238719   6.217   5.850   1.709 -0.2392 -0.1721 -0.0347
 5743TIP3    H138720   6.287   5.907   1.742 -1.4587  1.7192 -0.5718
 5743TIP3    H238721   6.212   5.780   1.774  1.6721  0.0207  0.3860
 5744TIP3   OH238722   6.218   2.714   0.777 -0.3370 -0.2881 -0.4156
 5744TIP3    H138723   6.219   2.750   0.688  0.9745 -0.2931 -0.4298
 5744TIP3    H238724   6.140   2.661   0.781  0.1966 -1.2492 -1.9729
 5745TIP3   OH238725   4.897   4.680  16.048 -0.3852  0.2234 -0.1078
 5745TIP3    H138726   4.952   4.725  15.984 -1.2379  1.0222 -0.3017
 5745TIP3    H238727   4.860   4.606  16.001 -0.5273  0.4583 -0.3655
 5746TIP3   OH238728   6.249   4.004   2.033 -0.0829  0.5366  0.1898
 5746TIP3    H138729   6.202   4.023   1.952 -0.2322  1.9999  0.5923
 5746TIP3    H238730   6.189   3.948   2.083 -0.7270  1.0614  0.0199
 5747TIP3   OH238731   2.741   2.325   2.686 -0.5954 -0.2126 -0.2368
 5747TIP3    H138732   2.740   2.360   2.597  1.3852  0.8152  0.0932
 5747TIP3    H238733   2.784   2.239   2.677 -1.1197 -0.4644 -0.3715
 5748TIP3   OH238734   0.202   3.936  14.627  0.3885  0.5313  0.0287
 5748TIP3    H138735   0.281   3.990  14.622  1.3803 -0.9811 -2.2338
 5748TIP3    H238736   0.148   3.965  14.553  0.7162 -1.1517 -0.9258
 5749TIP3   OH238737   5.673   5.795   3.218 -0.2653  0.4294 -0.0660
 5749TIP3    H138738   5.762   5.785   3.183 -0.3891  0.6749 -0.4591
 5749TIP3    H238739   5.645   5.705   3.236 -0.2598  0.2795 -0.7594
 5750TIP3   OH238740   5.234   3.769  16.538 -0.0457  0.0444  0.1935
 5750TIP3    H138741   5.327   3.778  16.515 -0.8292  1.7439 -2.7323
 5750TIP3    H238742   5.213   3.852  16.581 -0.5663  0.3106 -0.5721
 5751TIP3   OH238743   3.932   4.684   0.091 -0.3123 -0.6740 -0.0792
 5751TIP3    H138744   3.881   4.666   0.012 -0.0316  0.0386 -0.4324
 5751TIP3    H238745   4.023   4.686   0.060 -0.1966 -0.4361  0.2693
 5752TIP3   OH238746   1.425   0.481   2.970  0.5095  0.0621  0.5124
 5752TIP3    H138747   1.369   0.500   3.046  1.4180  1.6858  0.8218
 5752TIP3    H238748   1.364   0.479   2.896 -0.0480  1.5399  0.8760
 5753TIP3   OH238749   5.251   5.640  16.416  0.0707 -0.1826 -0.2228
 5753TIP3    H138750   5.324   5.647  16.354  0.9354 -1.5699  0.5894
 5753TIP3    H238751   5.254   5.549  16.447 -1.6974 -0.1355  0.2207
 5754TIP3   OH238752   4.943   4.902   1.120 -0.3699 -0.3264  0.5153
 5754TIP3    H138753   5.030   4.931   1.145 -0.3486  0.5334 -0.4942
 5754TIP3    H238754   4.892   4.983   1.112 -0.4778 -0.5473 -1.7394
 5755TIP3   OH238755   1.286   4.410  14.847  0.1124  0.1533 -0.3723
 5755TIP3    H138756   1.194   4.399  14.871 -0.2204  1.0006 -1.2255
 5755TIP3    H238757   1.328   4.439  14.928 -0.1247 -1.3175  0.3225
 5756TIP3   OH238758   0.997   5.309   2.491  0.2007  0.0880  0.3102
 5756TIP3    H138759   1.042   5.355   2.561 -0.1427  0.0364  0.5681
 5756TIP3    H238760   0.921   5.269   2.533 -0.6620  1.0230 -0.2939
 5757TIP3   OH238761   2.175   2.077  11.585 -0.1507 -0.0146  0.2612
 5757TIP3    H138762   2.133   1.992  11.596  2.4116 -1.5574 -0.9339
 5757TIP3    H238763   2.143   2.130  11.659 -2.2048 -1.7910  0.7446
 5758TIP3   OH238764   4.294   2.147  14.456  0.1792  0.0161  0.8595
 5758TIP3    H138765   4.341   2.089  14.396  1.2649  2.2929 -0.5849
 5758TIP3    H238766   4.209   2.103  14.469 -0.5915 -0.1142 -3.2708
 5759TIP3   OH238767   2.964   6.195   0.066  0.0930 -0.8744  0.1932
 5759TIP3    H138768   3.040   6.253   0.062 -1.2270  0.9421  0.1368
 5759TIP3    H238769   2.976   6.145   0.147  0.4088  0.8136  1.2494
 5760TIP3   OH238770   3.243   1.227  11.578  0.3525  0.7726  0.1256
 5760TIP3    H138771   3.163   1.267  11.612  0.8778  3.3904 -1.4524
 5760TIP3    H238772   3.309   1.295  11.588  1.8313 -0.4818 -0.8014
 5761TIP3   OH238773   5.721   3.123  13.332 -0.1601 -0.4076 -0.3905
 5761TIP3    H138774   5.800   3.172  13.310  0.8235 -1.5754  0.4013
 5761TIP3    H238775   5.697   3.153  13.419  0.3818 -1.1983  0.0507
 5762TIP3   OH238776   2.312   3.508  16.772 -0.6482  0.1801  0.3702
 5762TIP3    H138777   2.378   3.545  16.831 -2.0840  2.9043  0.4351
 5762TIP3    H238778   2.298   3.419  16.805  0.1086  0.8914  2.8617
 5763TIP3   OH238779   5.269   6.427  11.496 -0.3598 -0.8998  0.4182
 5763TIP3    H138780   5.238   6.360  11.557  1.2837  0.0032  2.3621
 5763TIP3    H238781   5.190   6.475  11.471 -1.5585 -3.3710 -0.9075
 5764TIP3   OH238782   3.170   5.457  16.901 -0.3918 -0.3536  0.4267
 5764TIP3    H138783   3.141   5.522  16.837 -0.1814 -1.7865 -1.2185
 5764TIP3    H238784   3.124   5.377  16.876  0.2500 -1.1388  1.6448
 5765TIP3   OH238785   3.750   0.987   0.885 -0.5315  0.3393  0.1975
 5765TIP3    H138786   3.796   1.025   0.960 -0.3371 -0.3777  0.4560
 5765TIP3    H238787   3.673   0.944   0.924 -1.4172  1.4795 -0.2224
 5766TIP3   OH238788   3.217   0.381   1.197 -0.2876 -0.1597  0.3722
 5766TIP3    H138789   3.252   0.336   1.120  1.3646  0.0659  0.9519
 5766TIP3    H238790   3.130   0.410   1.170 -0.6087 -1.9240 -0.6954
 5767TIP3   OH238791   4.458   4.582   1.693  0.2678 -0.0890 -0.2170
 5767TIP3    H138792   4.486   4.568   1.783  0.0757 -0.5149 -0.2213
 5767TIP3    H238793   4.507   4.516   1.643  1.3908  1.0101 -0.6128
 5768TIP3   OH238794   3.701   1.705   5.276 -0.5687  0.2958 -0.0707
 5768TIP3    H138795   3.770   1.698   5.211  1.0860 -2.0413  1.7790
 5768TIP3    H238796   3.706   1.796   5.305  1.2527  0.3852 -0.5118
 5769TIP3   OH238797   3.090   0.590   3.764 -0.1824  0.2296 -0.0485
 5769TIP3    H138798   3.104   0.680   3.793  2.6905 -0.9667  3.0029
 5769TIP3    H238799   3.008   0.564   3.805 -1.0578  1.4109 -0.9883
 5770TIP3   OH238800   3.803   2.872  12.727 -0.0837 -0.1084 -0.4386
 5770TIP3    H138801   3.885   2.829  12.754 -0.6742 -0.2640  1.2192
 5770TIP3    H238802   3.830   2.934  12.659  1.7439  1.1351  1.2843
 5771TIP3   OH238803   2.950   0.109   5.184  0.4680 -0.2455  0.3802
 5771TIP3    H138804   2.993   0.058   5.251  0.8785 -0.7820 -0.2846
 5771TIP3    H238805   3.009   0.183   5.167  0.3643 -0.1107  0.6042
 5772TIP3   OH238806   6.122   2.396   4.405  0.0354  0.0695 -0.3001
 5772TIP3    H138807   6.139   2.334   4.476 -1.3987 -0.7706 -0.6581
 5772TIP3    H238808   6.072   2.467   4.446 -2.0207 -1.0794 -0.6665
 5773TIP3   OH238809   6.074   3.863  11.389  0.0255  0.4367  0.2418
 5773TIP3    H138810   6.074   3.954  11.361 -0.3465  0.6546  0.9249
 5773TIP3    H238811   5.999   3.824  11.344 -0.1733  0.6175  0.4164
 5774TIP3   OH238812   6.701   1.575   5.591  0.0887 -0.1315 -0.1307
 5774TIP3    H138813   6.766   1.646   5.596 -1.1396  0.9658  0.8611
 5774TIP3    H238814   6.631   1.610   5.535 -0.9184 -0.2170  1.0465
 5775TIP3   OH238815   6.342   1.335  12.572  0.7632  0.2281  0.5909
 5775TIP3    H138816   6.433   1.318  12.596  0.9291  1.0146  0.5570
 5775TIP3    H238817   6.327   1.426  12.597  0.6153  0.7570 -1.2716
 5776TIP3   OH238818   5.441   3.979   5.124  0.2639  0.1928 -0.3034
 5776TIP3    H138819   5.504   4.046   5.152  0.7313  0.4914 -1.9731
 5776TIP3    H238820   5.464   3.961   5.033 -1.6277 -0.1980 -0.7481
 5777TIP3   OH238821   5.968   0.021  13.117 -0.2642 -1.1117 -0.7149
 5777TIP3    H138822   5.939   0.105  13.082  0.2691 -0.4947  0.2969
 5777TIP3    H238823   5.898  -0.040  13.093 -0.7948 -0.3292 -1.2002
 5778TIP3   OH238824   3.984   0.264  13.200  0.1297 -0.4744  0.1391
 5778TIP3    H138825   3.999   0.180  13.244  1.5241  0.0455  0.7119
 5778TIP3    H238826   3.923   0.311  13.258  1.6546  0.0506  1.3696
 5779TIP3   OH238827   6.361   6.280  15.939  0.4119 -0.3254 -0.0210
 5779TIP3    H138828   6.355   6.303  16.031 -0.2625  0.0472 -0.1466
 5779TIP3    H238829   6.445   6.315  15.910 -0.0558  0.9588  0.0898
 5780TIP3   OH238830   1.231   2.665   1.971 -0.4874  0.4728  0.5483
 5780TIP3    H138831   1.296   2.609   2.014 -0.2041  1.0432  0.8676
 5780TIP3    H238832   1.283   2.733   1.929 -0.7515 -0.1019 -0.7599
 5781TIP3   OH238833   6.275   4.581   4.308  0.0923  0.1574 -0.4208
 5781TIP3    H138834   6.182   4.600   4.319  0.3810  0.7986  1.0884
 5781TIP3    H238835   6.293   4.606   4.217 -0.9955  0.9937 -0.4360
 5782TIP3   OH238836   1.353   5.148  13.255 -0.3827 -0.3939  0.0758
 5782TIP3    H138837   1.274   5.201  13.247  0.4517  0.8523 -0.2473
 5782TIP3    H238838   1.388   5.170  13.341  0.1839 -0.1063 -0.2247
 5783TIP3   OH238839   5.441   0.545   6.008 -0.2811  0.5835 -0.9626
 5783TIP3    H138840   5.511   0.608   6.028  0.2836  0.2068 -1.6700
 5783TIP3    H238841   5.377   0.557   6.077  1.5798 -0.7112  1.1148
 5784TIP3   OH238842   1.602   0.158  13.933 -0.7828 -0.2969 -0.1688
 5784TIP3    H138843   1.662   0.230  13.952 -1.4500 -0.4074  2.8793
 5784TIP3    H238844   1.523   0.201  13.900 -0.0150  0.0492 -1.6278
 5785TIP3   OH238845   2.823   1.584   2.818  0.1226 -0.7330  0.4092
 5785TIP3    H138846   2.766   1.516   2.783  0.5827 -1.8112  1.6976
 5785TIP3    H238847   2.905   1.574   2.768  0.6514 -2.0271  1.4841
 5786TIP3   OH238848   1.384   5.195  10.484  0.1051 -0.3631 -0.4534
 5786TIP3    H138849   1.365   5.230  10.571 -2.2595  1.3363 -1.5459
 5786TIP3    H238850   1.475   5.221  10.467 -0.2976  1.8450  0.4131
 5787TIP3   OH238851   4.490   4.908   3.202  0.0847  0.2267 -0.0481
 5787TIP3    H138852   4.436   4.897   3.280  0.4140  0.6567  0.2443
 5787TIP3    H238853   4.484   5.001   3.180  0.2987  0.1821 -0.3130
 5788TIP3   OH238854   1.651   4.924   3.963  0.0533  0.2802  0.8959
 5788TIP3    H138855   1.635   4.910   4.056  1.4491  3.3365  1.7371
 5788TIP3    H238856   1.567   4.949   3.927 -0.4025 -0.4724  1.4026
 5789TIP3   OH238857   2.889   6.715  12.403 -0.5657 -0.1525  0.3466
 5789TIP3    H138858   2.804   6.756  12.418 -0.0630  1.2448 -0.3882
 5789TIP3    H238859   2.883   6.630  12.447 -2.3222 -0.0861  0.3304
 5790TIP3   OH238860   0.749   5.407  13.511  0.2553  0.1938 -0.5209
 5790TIP3    H138861   0.778   5.431  13.423  1.6729  0.3042 -0.0397
 5790TIP3    H238862   0.723   5.489  13.552  1.0495  0.3444 -0.3189
 5791TIP3   OH238863   5.942   0.963  13.964 -0.5263  0.2040 -0.1410
 5791TIP3    H138864   5.884   1.022  13.916  0.3561 -0.0326 -1.5731
 5791TIP3    H238865   6.028   1.005  13.958 -0.3444  0.0338  1.0477
 5792TIP3   OH238866   4.711   1.693  12.517 -0.5331 -0.0415  0.0878
 5792TIP3    H138867   4.736   1.656  12.602  0.1743 -0.6226 -0.3606
 5792TIP3    H238868   4.629   1.649  12.495 -0.9855  0.4811  0.6969
 5793TIP3   OH238869   3.084   0.895  15.791  0.1490 -0.4301 -0.2876
 5793TIP3    H138870   3.033   0.890  15.710  0.0481 -0.7327 -0.2064
 5793TIP3    H238871   3.162   0.842  15.774  0.1446 -0.4662 -0.1950
 5794TIP3   OH238872   3.424   1.163   3.672 -0.3012 -0.1108  0.4241
 5794TIP3    H138873   3.457   1.253   3.666 -1.1270  0.2150  0.7233
 5794TIP3    H238874   3.426   1.143   3.766 -2.5618  0.5359  0.6515
 5795TIP3   OH238875   3.453   2.830   5.696  0.2693  0.2802  0.1671
 5795TIP3    H138876   3.453   2.869   5.783 -2.8125  0.0939  0.3570
 5795TIP3    H238877   3.544   2.837   5.667  1.7825 -0.9953  3.9343
 5796TIP3   OH238878   5.796   2.293   3.480  0.5786  0.3392  0.1105
 5796TIP3    H138879   5.703   2.314   3.471  1.1036  3.2687  0.4110
 5796TIP3    H238880   5.817   2.240   3.403 -1.1668  0.2575 -0.3492
 5797TIP3   OH238881   6.119   6.258  15.837  0.2442 -0.1197  0.4867
 5797TIP3    H138882   6.195   6.244  15.894 -1.1720  1.6914  3.0745
 5797TIP3    H238883   6.052   6.200  15.873 -0.3509  0.1859 -0.1193
 5798TIP3   OH238884   5.951   5.749  14.636 -0.1365 -0.3659  0.2359
 5798TIP3    H138885   5.944   5.676  14.698  2.1568  0.1176  1.1676
 5798TIP3    H238886   5.936   5.709  14.550 -1.0548 -1.4976  0.8875
 5799TIP3   OH238887   4.181   3.425   2.841 -0.0946  0.5213  0.1688
 5799TIP3    H138888   4.214   3.335   2.838 -2.4358 -0.4061 -0.1243
 5799TIP3    H238889   4.184   3.455   2.750 -0.2035  0.3716  0.1156
 5800TIP3   OH238890   2.405   3.949  13.636  0.6490  0.1291 -0.0650
 5800TIP3    H138891   2.435   3.954  13.545  2.3288  0.0357  0.4680
 5800TIP3    H238892   2.448   3.872  13.672 -2.3291 -1.6358  0.0264
 5801TIP3   OH238893   2.942   2.726   4.324  0.1728  0.9844  0.0316
 5801TIP3    H138894   2.968   2.640   4.358 -0.1633  0.6372 -0.5786
 5801TIP3    H238895   2.977   2.788   4.388  1.2467  0.4521 -0.0142
 5802TIP3   OH238896   4.025   0.807   1.607  0.4002 -0.3599 -0.1571
 5802TIP3    H138897   3.963   0.785   1.537 -0.9126 -1.2953  1.2301
 5802TIP3    H238898   4.006   0.898   1.628  1.0327  0.0309 -1.2145
 5803TIP3   OH238899   6.125   1.871   3.306 -0.0754  0.2874  0.3676
 5803TIP3    H138900   6.204   1.916   3.275 -0.5450 -1.6051 -4.5796
 5803TIP3    H238901   6.155   1.784   3.331 -0.3527  0.1486  0.2249
 5804TIP3   OH238902   2.589   1.426   1.133  0.9605 -0.0352  0.0359
 5804TIP3    H138903   2.525   1.412   1.203 -0.0435 -0.6193 -0.9757
 5804TIP3    H238904   2.672   1.438   1.179  0.4120 -0.9089  1.3060
 5805TIP3   OH238905   5.159   5.972  16.476 -0.2684  0.0763 -0.3298
 5805TIP3    H138906   5.234   5.937  16.524 -0.4940 -0.7964 -0.5962
 5805TIP3    H238907   5.175   6.067  16.472  0.6876 -0.0678 -0.1654
 5806TIP3   OH238908   4.634   6.492  11.888 -0.2591  0.1945 -0.1389
 5806TIP3    H138909   4.695   6.427  11.921 -0.9726 -1.7454 -2.4141
 5806TIP3    H238910   4.554   6.478  11.940 -0.3970 -0.7670 -0.5864
 5807TIP3   OH238911   1.686   5.769   5.003 -0.2611  0.2202  0.2573
 5807TIP3    H138912   1.772   5.758   4.961  0.2395  1.1743  0.9751
 5807TIP3    H238913   1.623   5.754   4.933  0.4650 -1.0935 -0.1580
 5808TIP3   OH238914   2.155   3.151   0.833 -0.0825 -0.5984  0.0581
 5808TIP3    H138915   2.233   3.175   0.883 -0.4038 -0.6819  0.6052
 5808TIP3    H238916   2.113   3.234   0.813  0.7138 -0.4607 -1.2040
 5809TIP3   OH238917   2.446   1.503   5.856  0.1916  0.0541  0.3093
 5809TIP3    H138918   2.353   1.506   5.835  0.2310 -0.3844  0.0825
 5809TIP3    H238919   2.470   1.595   5.869 -0.5544  0.0976  1.6124
 5810TIP3   OH238920   5.546   5.152   4.435  0.2576 -0.0001 -0.4869
 5810TIP3    H138921   5.564   5.105   4.516 -0.6164 -0.3914 -0.5128
 5810TIP3    H238922   5.620   5.130   4.378  1.2469  0.8478  0.4279
 5811TIP3   OH238923   6.262   6.474  12.939 -0.0086 -0.0316 -0.0048
 5811TIP3    H138924   6.179   6.518  12.921 -0.7238 -0.0363  2.8228
 5811TIP3    H238925   6.302   6.462  12.852 -1.9303  1.9068 -1.2746
 5812TIP3   OH238926   3.401   3.929  11.913  0.3386  0.3436  0.0575
 5812TIP3    H138927   3.486   3.903  11.878 -0.7064  0.0041 -2.3826
 5812TIP3    H238928   3.376   3.857  11.970 -0.2351 -1.7780 -2.6742
 5813TIP3   OH238929   0.915   2.949  16.172  0.1381  0.3936 -0.0388
 5813TIP3    H138930   0.844   2.939  16.109  1.0774 -1.1637 -0.9100
 5813TIP3    H238931   0.920   3.043  16.188 -2.5807  0.5126  0.6436
 5814TIP3   OH238932   2.741   3.045  14.185  0.1929  0.1764  0.5490
 5814TIP3    H138933   2.726   2.958  14.148  1.8339  0.1687 -0.1706
 5814TIP3    H238934   2.668   3.097  14.152  0.3456 -0.4191 -0.8031
 5815TIP3   OH238935   2.209   0.370   3.241  0.0343  0.0215 -0.0004
 5815TIP3    H138936   2.215   0.437   3.308 -2.0280 -1.5756  1.9123
 5815TIP3    H238937   2.125   0.385   3.198  1.0209  0.6036 -1.8636
 5816TIP3   OH238938   2.194   4.700  12.331  0.6905 -0.2739 -0.2562
 5816TIP3    H138939   2.262   4.682  12.396  1.5804  0.7754 -0.8761
 5816TIP3    H238940   2.232   4.669  12.249 -0.4427 -1.6237 -0.3163
 5817TIP3   OH238941   3.211   5.619   1.573 -0.3795  0.2327 -0.0252
 5817TIP3    H138942   3.145   5.638   1.506  0.7509 -0.6859 -1.4582
 5817TIP3    H238943   3.221   5.701   1.621 -1.9218  0.6293 -0.3318
 5818TIP3   OH238944   5.450   3.249  13.392 -0.0062 -0.5059  0.4009
 5818TIP3    H138945   5.513   3.198  13.342 -1.0865 -1.3225 -0.1788
 5818TIP3    H238946   5.459   3.216  13.482  0.9786 -0.0013  0.5009
 5819TIP3   OH238947   3.845   3.051  12.447  0.4854 -0.1887 -0.0656
 5819TIP3    H138948   3.888   3.127  12.407 -0.8426 -0.0622 -1.3401
 5819TIP3    H238949   3.854   2.981  12.382 -1.4595 -0.0651 -0.5307
 5820TIP3   OH238950   2.087   3.439   4.361  0.3986 -0.3464 -0.3956
 5820TIP3    H138951   2.177   3.472   4.358 -0.0168  0.9300  0.3389
 5820TIP3    H238952   2.089   3.359   4.309  1.8055  0.0237 -0.9594
 5821TIP3   OH238953   6.620   3.038   2.333 -0.5998 -0.2522 -0.1049
 5821TIP3    H138954   6.582   3.125   2.341 -0.9493 -0.4569  0.5450
 5821TIP3    H238955   6.714   3.051   2.346 -0.5309  0.1580 -0.9891
 5822TIP3   OH238956   4.646   3.657  13.129  0.1746 -0.0493 -0.0466
 5822TIP3    H138957   4.566   3.697  13.096  0.7803 -0.0311 -1.5544
 5822TIP3    H238958   4.644   3.674  13.223 -1.6686 -0.2057 -0.0319
 5823TIP3   OH238959   4.997   6.168   4.550 -0.1070  0.7289 -0.4834
 5823TIP3    H138960   5.047   6.099   4.506  2.3583  0.7337  2.0294
 5823TIP3    H238961   4.913   6.171   4.503 -0.9131 -4.7667 -0.1083
 5824TIP3   OH238962   6.609   0.656  12.159 -0.4187 -0.1553  0.1620
 5824TIP3    H138963   6.548   0.720  12.193  0.4394  1.2014 -0.7717
 5824TIP3    H238964   6.591   0.653  12.065  1.5711  1.0322 -0.3105
 5825TIP3   OH238965   1.063   1.757   0.451  0.6148 -0.0914  0.7144
 5825TIP3    H138966   1.133   1.695   0.470  0.9585 -0.1045 -0.5146
 5825TIP3    H238967   1.100   1.843   0.473  0.5837 -0.2135  1.2323
 5826TIP3   OH238968   2.575   5.611  14.096 -0.3238 -1.0958 -0.0906
 5826TIP3    H138969   2.621   5.527  14.096 -0.5643 -1.2838  2.3428
 5826TIP3    H238970   2.593   5.648  14.182 -1.2925  0.7698 -0.6464
 5827TIP3   OH238971   1.250   2.193  15.039  0.2916  0.2108 -0.1078
 5827TIP3    H138972   1.344   2.181  15.024  0.4147  1.6335 -0.6033
 5827TIP3    H238973   1.240   2.185  15.133  0.9324  0.1283 -0.0402
 5828TIP3   OH238974   1.235   2.699   6.093  0.6428 -0.2906 -0.3242
 5828TIP3    H138975   1.210   2.725   6.181  0.7259 -0.4053 -0.2660
 5828TIP3    H238976   1.328   2.723   6.086  0.8125 -0.8664 -0.1532
 5829TIP3   OH238977   4.914   4.400  15.103  0.1089  0.2947  0.1977
 5829TIP3    H138978   4.989   4.398  15.044 -0.8909 -1.0225 -1.1094
 5829TIP3    H238979   4.881   4.490  15.097  0.2196  0.2735 -1.0347
 5830TIP3   OH238980   2.259   2.237  16.487  0.3028  0.1208 -0.6616
 5830TIP3    H138981   2.203   2.178  16.537 -1.4224  0.7592 -1.7587
 5830TIP3    H238982   2.339   2.244  16.539 -0.0791 -1.8844  0.2905
 5831TIP3   OH238983   1.762   2.082  14.120 -0.8160 -1.1732  0.5916
 5831TIP3    H138984   1.843   2.037  14.093 -0.7112 -2.2953  2.5313
 5831TIP3    H238985   1.792   2.166  14.155 -0.8316 -0.2850 -1.4080
 5832TIP3   OH238986   0.749   2.129   1.660  0.2167 -0.3693 -0.4098
 5832TIP3    H138987   0.656   2.136   1.640  0.4488  0.6426 -1.2337
 5832TIP3    H238988   0.753   2.115   1.755 -0.7526  0.3889 -0.2469
 5833TIP3   OH238989   0.056   4.910   2.808 -0.1911 -0.2127  0.0282
 5833TIP3    H138990   0.040   5.001   2.835 -0.9459 -0.5053  0.5656
 5833TIP3    H238991   0.151   4.906   2.795  0.0501  0.2431  1.4994
 5834TIP3   OH238992   0.625   4.708  15.045  0.5097  0.2510 -0.0343
 5834TIP3    H138993   0.563   4.658  15.098 -0.3293  1.8722  0.6071
 5834TIP3    H238994   0.575   4.735  14.968  1.2356 -0.6795 -0.8542
 5835TIP3   OH238995   4.240   4.196   0.331  0.1283  0.4416 -0.4156
 5835TIP3    H138996   4.250   4.159   0.244  2.1579  0.8168 -0.3811
 5835TIP3    H238997   4.243   4.121   0.390  2.3739  0.4144 -0.4749
 5836TIP3   OH238998   2.540   5.939   2.084 -0.0350 -0.2955 -0.3702
 5836TIP3    H138999   2.449   5.946   2.054 -0.5634 -1.5326  0.8145
 5836TIP3    H239000   2.540   5.980   2.171 -0.2382 -3.0042  1.0040
 5837TIP3   OH239001   1.761   2.378   3.423 -0.6526 -0.0152  0.1806
 5837TIP3    H139002   1.796   2.448   3.368 -2.4325 -0.7050 -1.9707
 5837TIP3    H239003   1.838   2.332   3.456  0.5280  2.2441  0.7622
 5838TIP3   OH239004   1.086   6.305   4.945  0.3547  0.3891  0.1622
 5838TIP3    H139005   1.025   6.359   4.995  0.6601  1.2838 -0.4036
 5838TIP3    H239006   1.128   6.366   4.884  1.9423 -0.1598  0.6464
 5839TIP3   OH239007   2.827   1.051  14.324  0.1180 -0.1651  0.1505
 5839TIP3    H139008   2.869   1.137  14.322  1.3142 -0.6713  1.3117
 5839TIP3    H239009   2.888   0.993  14.279 -0.4029 -0.5280 -0.1055
 5840TIP3   OH239010   1.349   4.553   5.313 -0.1414  0.0830 -0.2132
 5840TIP3    H139011   1.389   4.564   5.227 -0.9679  3.0725 -0.3508
 5840TIP3    H239012   1.299   4.634   5.327 -1.7168 -1.1576  2.2186
 5841TIP3   OH239013   0.375   0.054   2.671 -0.7145 -0.2399 -0.4035
 5841TIP3    H139014   0.288   0.091   2.686 -0.5841 -0.1696  0.1774
 5841TIP3    H239015   0.407   0.032   2.758  0.1367  0.3923 -0.5433
 5842TIP3   OH239016   0.031   5.981  11.565 -0.2524 -0.4211 -0.7016
 5842TIP3    H139017   0.096   5.914  11.585  0.8110  1.1434  1.5405
 5842TIP3    H239018  -0.047   5.954  11.615  1.0372  1.2434  2.5189
 5843TIP3   OH239019   3.746   3.182   4.566 -0.1220  0.1392  0.5011
 5843TIP3    H139020   3.804   3.141   4.502 -1.8950 -0.0323 -1.0964
 5843TIP3    H239021   3.794   3.179   4.648  1.8544 -0.5237 -0.6270
 5844TIP3   OH239022   1.953   2.668   2.016 -0.1660  0.2953  0.4168
 5844TIP3    H139023   1.933   2.728   2.088  0.2335 -0.3488  1.0835
 5844TIP3    H239024   2.037   2.698   1.982  1.5860 -1.5805  2.7016
 5845TIP3   OH239025   3.393   1.300  14.967  0.1156 -0.2308 -0.3561
 5845TIP3    H139026   3.375   1.217  15.011 -2.5574 -0.6428 -2.0076
 5845TIP3    H239027   3.361   1.366  15.029 -0.3015 -0.5892 -0.1839
 5846TIP3   OH239028   1.430   5.643   4.052 -0.2174 -0.2325 -0.0389
 5846TIP3    H139029   1.368   5.612   4.118 -0.7649  0.6373 -0.1249
 5846TIP3    H239030   1.459   5.563   4.007  0.0138 -0.8125  1.1092
 5847TIP3   OH239031   4.941   3.992  12.313 -0.4661 -0.0369  0.4548
 5847TIP3    H139032   5.024   3.955  12.282 -0.8823 -0.3897 -0.2586
 5847TIP3    H239033   4.874   3.934  12.277 -1.0265  0.2369  1.0418
 5848TIP3   OH239034   1.676   0.165   0.694 -0.3331  0.1071  0.1115
 5848TIP3    H139035   1.757   0.215   0.680  0.1911 -0.9146 -0.6583
 5848TIP3    H239036   1.696   0.078   0.659 -1.4723 -0.4245  0.7446
 5849TIP3   OH239037   1.925   1.382   0.864  0.4180  0.6299 -0.4261
 5849TIP3    H139038   1.842   1.343   0.888  0.4190  0.2474 -1.0385
 5849TIP3    H239039   1.943   1.350   0.776  1.1668  0.7810 -0.3396
 5850TIP3   OH239040   6.758   3.693   1.851  0.3279 -0.1317  0.2538
 5850TIP3    H139041   6.686   3.663   1.796 -0.9567 -1.2043  2.3895
 5850TIP3    H239042   6.836   3.654   1.811 -0.2426  0.8125 -1.9347
 5851TIP3   OH239043   6.069   5.549   1.000  0.2629  0.3979 -0.1224
 5851TIP3    H139044   5.979   5.517   0.987 -0.0605  1.0073  0.5477
 5851TIP3    H239045   6.071   5.577   1.092  1.2862 -0.0607  0.0005
 5852TIP3   OH239046   1.228   2.453   0.597 -0.5333 -0.1389 -0.3731
 5852TIP3    H139047   1.221   2.473   0.690 -1.9969 -0.2500 -0.4370
 5852TIP3    H239048   1.233   2.538   0.554 -0.0771 -0.0818 -0.2021
 5853TIP3   OH239049   3.470   2.940   3.202 -0.6806 -0.2678  0.3354
 5853TIP3    H139050   3.400   2.921   3.140 -1.6044 -0.5743  1.4267
 5853TIP3    H239051   3.532   2.868   3.192 -1.7501 -1.3329  1.0485
 5854TIP3   OH239052   6.331   6.801   1.122  0.1506  1.0161  0.1978
 5854TIP3    H139053   6.360   6.835   1.038  0.5311  1.7421  0.6205
 5854TIP3    H239054   6.284   6.720   1.100  0.2928  1.1720 -0.7012
 5855TIP3   OH239055   0.126   6.650  15.392  0.1078  0.0527 -0.4566
 5855TIP3    H139056   0.196   6.674  15.332  0.4282 -0.5435 -0.3334
 5855TIP3    H239057   0.048   6.646  15.338  0.7225 -2.4799 -1.3103
 5856TIP3   OH239058   1.522   0.015   0.022  0.4726 -0.2537 -0.0128
 5856TIP3    H139059   1.516   0.083  -0.045  2.5908  0.7119  0.6948
 5856TIP3    H239060   1.561  -0.060  -0.023 -0.2600 -0.4253 -0.3795
 5857TIP3   OH239061   3.102   2.968  15.893  0.3780 -0.1487  0.1195
 5857TIP3    H139062   3.016   2.925  15.896  0.5927 -0.5381  1.2077
 5857TIP3    H239063   3.081   3.062  15.888 -0.0940 -0.3052 -2.2945
 5858TIP3   OH239064   2.887   2.686  10.930 -0.0370  0.2387  0.2917
 5858TIP3    H139065   2.924   2.598  10.924 -0.1239  0.1808  0.5936
 5858TIP3    H239066   2.950   2.734  10.984 -1.2189 -0.3093  2.2585
 5859TIP3   OH239067   4.172   2.840  11.622  0.5039 -0.0465 -0.4384
 5859TIP3    H139068   4.183   2.828  11.716  0.1732  0.5325 -0.3167
 5859TIP3    H239069   4.077   2.847  11.610  0.5944  1.0629 -0.6438
 5860TIP3   OH239070   4.076   6.524   1.450 -0.3263  0.5755 -0.3075
 5860TIP3    H139071   4.163   6.485   1.453 -0.7593 -0.6005 -1.7131
 5860TIP3    H239072   4.023   6.461   1.401 -1.8692  1.4603  0.1555
 5861TIP3   OH239073   3.191   3.959  12.408 -0.1292  0.5170 -0.0738
 5861TIP3    H139074   3.206   3.988  12.318  2.3061  0.3681  0.2071
 5861TIP3    H239075   3.239   4.023  12.462 -0.0814 -0.3737  0.9818
 5862TIP3   OH239076   5.642   0.850   4.423  0.2232 -0.1532  0.3100
 5862TIP3    H139077   5.706   0.787   4.391 -0.3384  0.3024 -1.9485
 5862TIP3    H239078   5.559   0.823   4.383  0.0363  2.1534 -1.0507
 5863TIP3   OH239079   2.645   1.251  14.792 -0.2484  0.2171  0.3690
 5863TIP3    H139080   2.597   1.184  14.743 -0.2711  0.0791  0.5789
 5863TIP3    H239081   2.620   1.333  14.750  0.9414 -0.0123 -0.8604
 5864TIP3   OH239082   1.813   0.788  14.157  0.2323  0.6014 -0.0377
 5864TIP3    H139083   1.903   0.820  14.157  0.5069 -0.1432  0.1411
 5864TIP3    H239084   1.767   0.847  14.097  0.7992  1.0889 -0.0083
 5865TIP3   OH239085   5.293   3.792  16.859 -0.2558  0.1991 -0.6102
 5865TIP3    H139086   5.304   3.772  16.766 -0.4779 -2.3753 -0.1595
 5865TIP3    H239087   5.316   3.885  16.866  2.8953 -0.2460 -2.7439
 5866TIP3   OH239088   1.391   2.662   3.980  0.5745  0.0962  0.7515
 5866TIP3    H139089   1.452   2.730   4.007 -1.1065  0.9604  2.7312
 5866TIP3    H239090   1.428   2.626   3.899  0.4158  4.9401 -1.8417
 5867TIP3   OH239091   6.104   3.614  15.091  0.2879 -0.2367  0.1817
 5867TIP3    H139092   6.126   3.588  15.180 -0.8559  1.9786  1.2045
 5867TIP3    H239093   6.182   3.657  15.058 -0.0982  1.2992  1.1594
 5868TIP3   OH239094   0.951   6.349  14.881  0.4179  0.1211  0.0266
 5868TIP3    H139095   0.870   6.339  14.931  0.4783 -1.3861 -0.1408
 5868TIP3    H239096   0.987   6.433  14.909 -1.8524  1.4574 -0.8617
 5869TIP3   OH239097   3.374   4.224  13.721 -0.4268  0.1073  0.5716
 5869TIP3    H139098   3.383   4.173  13.802 -1.0729  1.4190  1.5143
 5869TIP3    H239099   3.285   4.207  13.692 -0.5828  0.5322  0.7886
 5870TIP3   OH239100   4.985   6.044   1.013  0.6243  0.2646 -1.1386
 5870TIP3    H139101   5.050   6.114   1.020  0.6200  0.1337  0.5235
 5870TIP3    H239102   4.955   6.030   1.103 -0.2880 -1.0171 -1.6172
 5871TIP3   OH239103   5.445   4.452  15.524 -0.8189  0.1437  0.3011
 5871TIP3    H139104   5.501   4.432  15.449 -0.6149  1.5129  0.0547
 5871TIP3    H239105   5.470   4.387  15.590  0.7049  0.3753  0.0070
 5872TIP3   OH239106   2.730   4.802  13.393 -0.4213 -0.3889 -0.7355
 5872TIP3    H139107   2.811   4.839  13.358 -0.0041  1.6729  2.0816
 5872TIP3    H239108   2.660   4.849  13.348  0.0458  0.7749 -0.2700
 5873TIP3   OH239109   0.184   6.092  14.096  0.0299 -0.0756 -0.0326
 5873TIP3    H139110   0.220   6.036  14.028  1.0537 -1.8410  1.8347
 5873TIP3    H239111   0.119   6.038  14.140 -0.3874  0.9040  0.5910
 5874TIP3   OH239112   6.092   4.536   1.370 -0.3052  0.5951  0.4009
 5874TIP3    H139113   6.064   4.514   1.459  1.3197 -0.9861  0.5859
 5874TIP3    H239114   6.126   4.453   1.335 -1.0409  1.1364 -1.7617
 5875TIP3   OH239115   2.261   6.299   6.108  0.3041 -0.7612 -0.4040
 5875TIP3    H139116   2.217   6.383   6.095 -0.1874 -0.9475  0.0381
 5875TIP3    H239117   2.353   6.322   6.118  0.6940 -0.5110 -3.4480
 5876TIP3   OH239118   1.353   4.464   2.198 -0.0436 -0.1851 -0.0046
 5876TIP3    H139119   1.384   4.477   2.288  0.9016  1.9730 -0.5464
 5876TIP3    H239120   1.259   4.476   2.202 -0.2453 -1.8672  0.9355
 5877TIP3   OH239121   2.275   2.884  12.740  0.3280  0.3204 -0.2380
 5877TIP3    H139122   2.266   2.966  12.693  0.6780  0.7206  0.3760
 5877TIP3    H239123   2.214   2.892  12.814  0.0978 -0.1203 -0.3755
 5878TIP3   OH239124   2.304   3.264  13.007  0.1499 -0.8068  0.5166
 5878TIP3    H139125   2.248   3.275  12.929  0.4227  0.4315  0.4846
 5878TIP3    H239126   2.354   3.345  13.012  1.6283 -1.7099  0.8184
 5879TIP3   OH239127   4.253   3.650   6.591 -0.0781 -0.1110  0.0388
 5879TIP3    H139128   4.180   3.710   6.603  1.1614  1.1972  1.5575
 5879TIP3    H239129   4.323   3.704   6.555  0.0293 -1.4499 -1.8934
 5880TIP3   OH239130   1.363   3.056   0.518 -0.0453 -0.2124  0.1241
 5880TIP3    H139131   1.387   3.011   0.437 -0.5368 -0.7251  0.2576
 5880TIP3    H239132   1.268   3.060   0.516 -0.0021  1.3491 -0.1555
 5881TIP3   OH239133   1.835   4.942   6.150 -0.1988  0.7939 -0.0017
 5881TIP3    H139134   1.827   5.007   6.220 -2.6071  0.4379  0.1515
 5881TIP3    H239135   1.825   4.858   6.194 -0.7213  0.5219 -0.6173
 5882TIP3   OH239136   0.343   5.004   4.891  0.0135 -0.6410  0.1069
 5882TIP3    H139137   0.376   5.081   4.938 -0.7446  0.0437 -0.4460
 5882TIP3    H239138   0.248   5.012   4.896 -0.0755 -1.1909 -0.5251
 5883TIP3   OH239139   5.611   4.081   0.759  0.3950 -0.4022  0.3969
 5883TIP3    H139140   5.626   4.087   0.664  2.0358 -0.6652  0.6106
 5883TIP3    H239141   5.659   4.155   0.795 -0.3044 -0.2477  1.0321
 5884TIP3   OH239142   5.272   0.944   1.014  0.9279 -0.4952 -0.3415
 5884TIP3    H139143   5.199   0.896   1.054 -0.1711  1.6338  0.3600
 5884TIP3    H239144   5.284   0.903   0.929 -0.8610 -1.1574 -0.3199
 5885TIP3   OH239145   1.619   1.827  11.741  0.1549 -0.2147  0.1437
 5885TIP3    H139146   1.537   1.876  11.743  0.4050  0.1802  2.2752
 5885TIP3    H239147   1.687   1.894  11.745  0.8170 -0.3079 -4.2469
 5886TIP3   OH239148   5.991   3.920   0.178 -0.4891 -0.3579  0.1277
 5886TIP3    H139149   6.020   4.007   0.150 -1.1515 -0.3353 -0.5179
 5886TIP3    H239150   5.932   3.891   0.109 -1.6271 -0.5945  1.1682
 5887TIP3   OH239151   0.567   0.725  15.172 -0.5974  0.5253  0.1591
 5887TIP3    H139152   0.552   0.677  15.090 -0.0118  0.1914  0.2448
 5887TIP3    H239153   0.662   0.727  15.182 -0.6655 -1.9232  2.2716
 5888TIP3   OH239154   5.972   1.484   1.656  0.2218  0.2035 -0.8284
 5888TIP3    H139155   5.954   1.395   1.686  3.7519 -1.0343 -1.8766
 5888TIP3    H239156   5.934   1.540   1.723  2.5706 -2.2699  2.9370
 5889TIP3   OH239157   2.952   3.742  16.976 -0.1814  0.0850  0.0359
 5889TIP3    H139158   2.992   3.660  16.947  0.7311  0.4587  0.2023
 5889TIP3    H239159   2.909   3.720  17.058  0.0381 -0.2317  0.0668
 5890TIP3   OH239160   3.289   2.537  12.289  0.3587 -0.3823 -0.1862
 5890TIP3    H139161   3.227   2.473  12.254  0.0809 -0.6789  0.8099
 5890TIP3    H239162   3.360   2.484  12.326  0.0373 -0.1265  0.8100
 5891TIP3   OH239163   0.666   2.830   4.523  0.2086  0.6356  0.3458
 5891TIP3    H139164   0.738   2.786   4.478 -0.7590 -1.0420  0.3679
 5891TIP3    H239165   0.703   2.915   4.550  1.6046  0.5894 -1.2413
 5892TIP3   OH239166   5.485   1.109   5.672  0.0153  0.3719 -0.2554
 5892TIP3    H139167   5.447   1.147   5.751  1.2917 -1.2903  1.2440
 5892TIP3    H239168   5.565   1.160   5.657 -0.2774  0.7513 -0.5590
 5893TIP3   OH239169   6.784   0.619  12.394  0.2513  0.0360  0.1478
 5893TIP3    H139170   6.744   0.674  12.462  0.8708 -2.4556  2.6982
 5893TIP3    H239171   6.716   0.611  12.327 -1.2269  0.8830  1.4607
 5894TIP3   OH239172   6.596   2.942  14.430  0.1243 -0.0458 -0.6573
 5894TIP3    H139173   6.634   2.914  14.346  2.1225 -1.2706  0.5626
 5894TIP3    H239174   6.590   2.861  14.481  0.4511  0.9084  0.9367
 5895TIP3   OH239175   6.601   3.351   2.372  0.1120  0.2388 -0.1394
 5895TIP3    H139176   6.695   3.341   2.355 -0.1148 -0.9927 -0.7637
 5895TIP3    H239177   6.597   3.385   2.461  1.2030  2.3258 -0.8108
 5896TIP3   OH239178   2.644   4.373   0.000 -0.1706  0.6918 -0.3973
 5896TIP3    H139179   2.681   4.353  -0.085 -0.1415 -1.3300  0.0399
 5896TIP3    H239180   2.652   4.468   0.008  2.1965  0.6566 -1.5532
 5897TIP3   OH239181   1.076   4.590   2.096 -0.5519  0.0960  0.1797
 5897TIP3    H139182   1.113   4.676   2.115 -0.1841 -0.2646  1.1877
 5897TIP3    H239183   1.039   4.561   2.180  2.1086 -2.0425  0.7345
 5898TIP3   OH239184   4.137   3.303   0.679 -0.1243 -0.1839 -0.5971
 5898TIP3    H139185   4.224   3.320   0.643  0.5271 -1.4612  0.2901
 5898TIP3    H239186   4.141   3.336   0.769 -1.9543  3.6334 -1.7164
 5899TIP3   OH239187   2.985   3.045  12.018  0.4814  0.2453 -0.0802
 5899TIP3    H139188   2.962   3.137  12.029  1.1602  0.7037 -2.0455
 5899TIP3    H239189   3.081   3.044  12.025  0.3227 -0.8896  3.3115
 5900TIP3   OH239190   6.740   0.854   2.125 -0.1921  0.4802  0.0221
 5900TIP3    H139191   6.700   0.885   2.206  2.3740  0.2904  1.4634
 5900TIP3    H239192   6.752   0.933   2.072 -2.0746  0.5776 -0.3556
 5901TIP3   OH239193   6.699   3.072   5.174  0.3225 -0.0578 -0.2886
 5901TIP3    H139194   6.743   2.994   5.210 -0.3887 -0.5569 -0.4734
 5901TIP3    H239195   6.723   3.073   5.082  1.2581  0.6016 -0.0513
 5902TIP3   OH239196   4.642   0.911   3.590  0.1589  0.1352  0.3255
 5902TIP3    H139197   4.710   0.971   3.622  0.3296 -0.0318  0.2815
 5902TIP3    H239198   4.570   0.968   3.563 -0.0056  0.2740  1.0374
 5903TIP3   OH239199   4.636   2.142  16.484 -0.7054  0.1144 -0.3876
 5903TIP3    H139200   4.695   2.097  16.544 -0.4979 -0.4507 -0.9970
 5903TIP3    H239201   4.564   2.174  16.539 -0.2523  0.0757  0.2291
 5904TIP3   OH239202   2.627   3.980  11.827  0.1573 -0.1520  0.0320
 5904TIP3    H139203   2.641   4.072  11.805 -1.2757 -0.1344 -0.9421
 5904TIP3    H239204   2.637   3.933  11.744 -2.7879 -0.3945 -0.2905
 5905TIP3   OH239205   3.401   1.246  16.525 -0.0968  0.1540 -0.2976
 5905TIP3    H139206   3.440   1.333  16.538 -1.3356  0.5706  0.9220
 5905TIP3    H239207   3.345   1.233  16.602  2.0226 -2.8772  0.9249
 5906TIP3   OH239208   3.531   0.010  15.046 -0.0019  0.4165 -0.1418
 5906TIP3    H139209   3.497   0.091  15.007 -1.2429  0.3350  0.7235
 5906TIP3    H239210   3.471  -0.009  15.118  1.8611  0.2244  1.4331
 5907TIP3   OH239211   0.638   2.378  16.624  0.2378  0.6964  0.1963
 5907TIP3    H139212   0.546   2.384  16.598  0.6318  2.8038 -0.9264
 5907TIP3    H239213   0.680   2.452  16.581  2.3102  0.3055  1.4130
 5908TIP3   OH239214   4.025   1.523  16.282  0.2572  0.4258  0.2253
 5908TIP3    H139215   3.949   1.541  16.337  0.1600 -2.5878  1.2516
 5908TIP3    H239216   4.100   1.540  16.338  0.1943 -0.9544  0.7614
 5909TIP3   OH239217   4.731   3.136   4.028 -0.5061  0.5708  0.0631
 5909TIP3    H139218   4.772   3.083   3.959 -1.0177  0.1684  0.0591
 5909TIP3    H239219   4.796   3.138   4.098 -1.2716 -1.9422  0.9797
 5910TIP3   OH239220   6.274   0.621   2.416 -0.6987 -1.3406 -0.2943
 5910TIP3    H139221   6.340   0.584   2.358  0.8925  1.5652 -0.5190
 5910TIP3    H239222   6.316   0.625   2.502  0.6783  2.8174 -0.8956
 5911TIP3   OH239223   3.071   5.477  11.169  0.2293  0.0894 -0.4626
 5911TIP3    H139224   3.112   5.390  11.168 -0.0843 -0.0894  0.9481
 5911TIP3    H239225   3.070   5.503  11.077  0.9467 -1.1070 -0.8367
 5912TIP3   OH239226   0.306   3.393  12.894 -0.3061  0.0454  0.4309
 5912TIP3    H139227   0.314   3.314  12.948 -1.4723 -0.2373  0.2163
 5912TIP3    H239228   0.393   3.432  12.896  0.3485 -1.3529  0.3866
 5913TIP3   OH239229   4.138   2.909   4.431 -0.3966 -0.2298  0.6400
 5913TIP3    H139230   4.205   2.883   4.368  0.2131  1.1176  0.6963
 5913TIP3    H239231   4.110   2.826   4.471  2.6113 -0.7373  1.9977
 5914TIP3   OH239232   6.631   5.885   1.566 -0.5056 -0.4740 -0.0888
 5914TIP3    H139233   6.691   5.936   1.621  1.0947 -1.2649 -1.0381
 5914TIP3    H239234   6.588   5.826   1.628 -0.2208  0.0251  0.6028
 5915TIP3   OH239235   1.845   0.902   3.467 -0.6234 -0.6600 -0.2864
 5915TIP3    H139236   1.786   0.953   3.413 -0.8091 -1.3124 -0.7157
 5915TIP3    H239237   1.805   0.903   3.554  0.2707  1.3675  0.1666
 5916TIP3   OH239238   6.287   4.010  16.789  0.3890 -0.2149  0.3412
 5916TIP3    H139239   6.232   4.059  16.851 -0.7497  0.7553 -1.3680
 5916TIP3    H239240   6.298   4.069  16.715  3.2281 -0.6405  0.3021
 5917TIP3   OH239241   5.295   6.064   2.059  0.0218 -0.0590 -0.0352
 5917TIP3    H139242   5.242   5.986   2.072 -0.4274  0.2226 -0.1788
 5917TIP3    H239243   5.259   6.129   2.119 -0.0157  0.2405 -0.3774
 5918TIP3   OH239244   1.695   3.587  13.919  0.3761  0.1490 -0.2259
 5918TIP3    H139245   1.600   3.597  13.925  0.3161  0.6668 -1.7340
 5918TIP3    H239246   1.729   3.676  13.926  0.8398 -0.1064  1.1986
 5919TIP3   OH239247   0.667   5.680  13.854 -0.4014 -0.1088  0.5532
 5919TIP3    H139248   0.758   5.652  13.845  0.0657  1.5746 -0.6843
 5919TIP3    H239249   0.673   5.775  13.865 -2.0449  0.3021 -1.4680
 5920TIP3   OH239250   1.087   6.421  12.206  0.4404 -0.1180 -0.6193
 5920TIP3    H139251   1.037   6.343  12.232 -2.3829  1.3597 -1.1390
 5920TIP3    H239252   1.103   6.409  12.113  1.7518 -0.9160 -0.3121
 5921TIP3   OH239253   4.075   0.610  13.841  0.3281 -0.5696  0.1804
 5921TIP3    H139254   4.057   0.552  13.915  0.4162  0.7377  1.2699
 5921TIP3    H239255   4.168   0.633  13.851  0.4931 -0.8426 -0.6843
 5922TIP3   OH239256   6.529   0.650   1.276  0.1882 -0.4263  0.1385
 5922TIP3    H139257   6.444   0.660   1.233  0.7592 -1.7977 -1.3915
 5922TIP3    H239258   6.559   0.563   1.251  1.8282 -0.1813  1.0785
 5923TIP3   OH239259   5.225   2.375  14.113  0.4328  0.2559 -0.7086
 5923TIP3    H139260   5.303   2.357  14.060  1.0092  0.7322 -0.0357
 5923TIP3    H239261   5.155   2.390  14.049  1.3111  1.7500 -1.3748
 5924TIP3   OH239262   4.381   1.183   1.612  0.0285  0.2036 -0.3996
 5924TIP3    H139263   4.413   1.100   1.649 -0.5104  0.6043  1.0331
 5924TIP3    H239264   4.310   1.209   1.670  0.9879  2.3005 -0.0646
 5925TIP3   OH239265   6.029   6.608   5.105  0.2032  0.1454 -0.3999
 5925TIP3    H139266   6.003   6.660   5.181  1.8889 -1.1736  1.1687
 5925TIP3    H239267   6.024   6.669   5.031  1.0857  2.2514  1.1816
 5926TIP3   OH239268   0.214   5.159   5.664  0.3921 -0.7256  0.3946
 5926TIP3    H139269   0.132   5.207   5.659  0.7778  0.0178  1.0261
 5926TIP3    H239270   0.272   5.215   5.716  0.9008 -1.7975  1.0281
 5927TIP3   OH239271   2.222   4.880  13.249 -0.0202  0.8958  0.6167
 5927TIP3    H139272   2.187   4.792  13.239 -0.2923  1.0598  0.1184
 5927TIP3    H239273   2.168   4.934  13.191 -0.3530  1.5195  1.4829
 5928TIP3   OH239274   6.419   1.857  11.500 -0.2444  0.1673 -0.1536
 5928TIP3    H139275   6.454   1.884  11.585  0.1782 -1.8238  0.3528
 5928TIP3    H239276   6.434   1.932  11.443  2.0839  0.5240  0.8124
 5929TIP3   OH239277   4.872   1.192   2.569  0.4436  0.3558 -0.5726
 5929TIP3    H139278   4.826   1.137   2.505  0.1689  0.5789 -0.5665
 5929TIP3    H239279   4.840   1.280   2.554 -2.1415  0.0227  1.9737
 5930TIP3   OH239280   6.239   0.022  13.079  0.2367 -0.6870  0.1808
 5930TIP3    H139281   6.248   0.083  13.152  0.6460 -0.3850 -0.1227
 5930TIP3    H239282   6.145   0.003  13.075  0.2831 -1.1882  1.1750
 5931TIP3   OH239283   5.190   1.564  11.098  0.3235  0.1929 -0.0309
 5931TIP3    H139284   5.164   1.594  11.011  0.6457 -0.7494 -0.4657
 5931TIP3    H239285   5.109   1.567  11.149 -0.0126  0.1377 -0.5458
 5932TIP3   OH239286   4.568   2.174   1.292  0.0044 -0.3425  0.2553
 5932TIP3    H139287   4.606   2.100   1.340 -0.5280  0.2574  1.6519
 5932TIP3    H239288   4.533   2.135   1.212  1.7843 -1.2216 -0.1469
 5933TIP3   OH239289   5.370   0.902  12.777  0.1992 -0.0184 -0.3622
 5933TIP3    H139290   5.354   0.830  12.716 -0.4098 -1.3323  1.2718
 5933TIP3    H239291   5.285   0.944  12.788 -0.0552 -0.7926  0.7708
 5934TIP3   OH239292   1.400   4.361  11.942 -0.5231  0.1007  0.3109
 5934TIP3    H139293   1.362   4.432  11.891 -1.2256 -0.9175 -0.6317
 5934TIP3    H239294   1.410   4.397  12.030 -0.5058  1.4768 -0.2271
 5935TIP3   OH239295   5.833   4.994   5.036 -0.0035 -0.0655 -0.0027
 5935TIP3    H139296   5.872   5.003   5.123  0.2744  0.0555 -0.1382
 5935TIP3    H239297   5.774   5.068   5.028  0.1329  0.0439  0.0001
 5936TIP3   OH239298   5.556   5.908  14.869 -0.2894 -0.0496 -0.0454
 5936TIP3    H139299   5.481   5.850  14.872 -1.3862  1.3135  2.2664
 5936TIP3    H239300   5.549   5.954  14.785 -0.5399 -1.7395 -0.9816
 5937TIP3   OH239301   4.152   3.300   4.855 -0.2117  0.0842 -0.1106
 5937TIP3    H139302   4.238   3.264   4.876  0.6146  1.8187 -0.2859
 5937TIP3    H239303   4.106   3.229   4.811 -0.1337 -1.9799  2.8902
 5938TIP3   OH239304   2.735   1.915  15.174 -0.1252  0.0161  0.0194
 5938TIP3    H139305   2.695   2.002  15.172  1.0586  0.5617 -0.3779
 5938TIP3    H239306   2.660   1.855  15.177 -0.9607  1.0555  2.0921
 5939TIP3   OH239307   0.381   4.849   1.361 -0.1215  0.4646  0.0107
 5939TIP3    H139308   0.391   4.876   1.269  0.9192 -0.0181 -0.0373
 5939TIP3    H239309   0.471   4.832   1.390 -0.5913 -1.2611  0.5417
 5940TIP3   OH239310   5.525   2.513   2.022  0.1896 -0.1898  0.1263
 5940TIP3    H139311   5.528   2.417   2.030  0.0252 -0.0605  3.6307
 5940TIP3    H239312   5.433   2.534   2.034 -0.0150  0.4236 -2.1249
 5941TIP3   OH239313   6.278   4.832  17.004 -0.0581 -0.4078 -0.0583
 5941TIP3    H139314   6.221   4.836  17.080 -0.7297  1.3832 -0.6020
 5941TIP3    H239315   6.220   4.807  16.932  0.1004  0.1301 -0.3782
 5942TIP3   OH239316   3.437   0.391  13.155  0.0981 -0.3366  0.0455
 5942TIP3    H139317   3.418   0.455  13.224 -1.9992 -1.9169  1.0266
 5942TIP3    H239318   3.356   0.383  13.105  0.7860 -1.1447 -1.0025
 5943TIP3   OH239319   6.328   3.814  12.581 -0.1896 -0.3831  0.1418
 5943TIP3    H139320   6.254   3.811  12.520  1.2093  1.1916 -1.7622
 5943TIP3    H239321   6.405   3.799  12.526  1.0737 -0.0466  1.7307
 5944TIP3   OH239322   6.519   0.187  11.967  0.1828  0.1552 -0.1550
 5944TIP3    H139323   6.611   0.212  11.978  0.2714  0.7642 -1.9236
 5944TIP3    H239324   6.501   0.130  12.042  1.2297  2.0575  1.6475
 5945TIP3   OH239325   5.224   2.145  12.431 -0.2006  0.4908  0.0232
 5945TIP3    H139326   5.153   2.194  12.473 -0.3797  0.5300 -0.3197
 5945TIP3    H239327   5.258   2.088  12.499  1.3016  2.4377  1.0078
 5946TIP3   OH239328   6.774   3.796  13.375 -0.0234  0.4947  0.7192
 5946TIP3    H139329   6.748   3.774  13.464 -0.7254  2.5355  1.0776
 5946TIP3    H239330   6.842   3.862  13.386 -0.7158  1.3977 -0.2295
 5947TIP3   OH239331   1.077   6.788   2.086  0.0755  0.3879  0.6064
 5947TIP3    H139332   0.987   6.821   2.093 -0.6321 -1.6139  1.9056
 5947TIP3    H239333   1.093   6.744   2.170  2.3446  0.8014  0.4549
 5948TIP3   OH239334   5.857   2.224   1.523  0.3137  0.3644  0.5926
 5948TIP3    H139335   5.890   2.144   1.565 -0.1842 -0.1913 -0.0495
 5948TIP3    H239336   5.933   2.259   1.476 -0.1839 -1.5458 -1.8533
 5949TIP3   OH239337   6.163   5.231  16.337 -0.2272  0.7304  0.3092
 5949TIP3    H139338   6.150   5.144  16.301 -0.7153  1.4521 -1.3603
 5949TIP3    H239339   6.258   5.240  16.344 -0.1668  0.1651  0.2536
 5950TIP3   OH239340   4.375   3.489  16.139 -0.3006 -0.8093 -0.0827
 5950TIP3    H139341   4.347   3.468  16.228 -1.1777 -1.0632 -0.4176
 5950TIP3    H239342   4.469   3.468  16.139 -0.1910 -0.4105  0.8952
 5951TIP3   OH239343   5.395   2.132  12.661 -0.0796 -0.5113 -0.1139
 5951TIP3    H139344   5.469   2.170  12.707 -1.2259  1.7430  0.0014
 5951TIP3    H239345   5.319   2.155  12.715 -1.0469 -1.2538 -1.1080
 5952TIP3   OH239346   0.028   4.263  11.611  0.6088 -0.5583 -0.0548
 5952TIP3    H139347  -0.036   4.232  11.674  2.1754 -1.2263  1.3034
 5952TIP3    H239348  -0.008   4.345  11.577 -1.5259 -1.5598 -0.3416
 5953TIP3   OH239349   3.790   3.020   5.181  0.7310 -0.0325  0.2619
 5953TIP3    H139350   3.715   3.029   5.123  2.2628  0.4507 -1.7487
 5953TIP3    H239351   3.752   2.996   5.266 -1.7171  0.9952 -0.4611
 5954TIP3   OH239352   6.534   1.919   6.051 -0.3391 -0.3085 -0.1793
 5954TIP3    H139353   6.484   1.866   5.988  0.1384 -0.4612 -0.4365
 5954TIP3    H239354   6.550   2.002   6.005 -1.4357  0.2317  0.3730
 5955TIP3   OH239355   6.096   1.915  12.713  0.1378  0.0227  0.0800
 5955TIP3    H139356   6.054   1.971  12.779 -0.8799 -2.0098  1.2586
 5955TIP3    H239357   6.157   1.861  12.762 -0.8864 -1.7745 -0.5442
 5956TIP3   OH239358   1.950   6.753   6.183  0.0532  0.8362 -0.1641
 5956TIP3    H139359   1.868   6.789   6.220  1.0589  2.2099  0.8414
 5956TIP3    H239360   2.002   6.830   6.162  1.4312 -0.0329 -0.0176
 5957TIP3   OH239361   4.172   0.529   0.498  0.0212  0.9259 -0.1717
 5957TIP3    H139362   4.085   0.528   0.456  1.4299  1.6285 -3.3901
 5957TIP3    H239363   4.154   0.560   0.587 -3.1783 -0.4135 -0.1830
 5958TIP3   OH239364   2.767   4.364  12.243 -0.4462  0.2208 -0.0695
 5958TIP3    H139365   2.839   4.368  12.181 -0.1471  0.3333  0.2820
 5958TIP3    H239366   2.791   4.426  12.312  0.7060 -2.0458  1.7190
 5959TIP3   OH239367   5.854   2.189  13.276 -0.4148 -0.1379  0.3547
 5959TIP3    H139368   5.854   2.126  13.204 -0.1281  1.4076 -1.0481
 5959TIP3    H239369   5.809   2.266  13.241  2.3114  1.7826  0.7461
 5960TIP3   OH239370   6.088   3.419   2.972  0.5479  0.2115 -0.3090
 5960TIP3    H139371   6.025   3.471   2.922  0.3210  2.1597  1.8554
 5960TIP3    H239372   6.093   3.462   3.057  2.7085 -1.5666  0.5626
 5961TIP3   OH239373   3.573   3.399   4.543 -0.0994 -0.0449  0.2019
 5961TIP3    H139374   3.628   3.329   4.580 -0.1405  1.0226  2.4802
 5961TIP3    H239375   3.484   3.376   4.572 -0.3528  0.0868 -0.4682
 5962TIP3   OH239376   6.460   3.465   3.734 -0.0115 -0.1290  0.2688
 5962TIP3    H139377   6.428   3.425   3.653  2.3973 -1.1419 -0.2644
 5962TIP3    H239378   6.517   3.536   3.704  1.1433 -0.7005  1.0241
 5963TIP3   OH239379   2.905   4.770   0.812  0.0431  0.6905  0.3441
 5963TIP3    H139380   2.867   4.856   0.826  0.5595  0.5978  2.9049
 5963TIP3    H239381   2.891   4.724   0.895  0.8952 -1.2447 -0.5200
 5964TIP3   OH239382   2.908   0.880   4.477  0.4153  0.0368  0.3399
 5964TIP3    H139383   2.985   0.889   4.532  0.9561  1.2701 -0.5823
 5964TIP3    H239384   2.917   0.948   4.410 -0.7600 -0.7123 -0.6326
 5965TIP3   OH239385   1.355   5.617   1.445  0.1394 -0.1828 -0.1842
 5965TIP3    H139386   1.260   5.611   1.453  0.0800 -2.3467 -1.4230
 5965TIP3    H239387   1.378   5.702   1.481 -2.2735  0.4204  0.0792
 5966TIP3   OH239388   1.594   5.673  10.535 -0.6743  0.6013 -0.4381
 5966TIP3    H139389   1.667   5.713  10.581  1.8157 -2.5210 -1.2772
 5966TIP3    H239390   1.564   5.604  10.594 -1.3516  0.3167 -1.1009
 5967TIP3   OH239391   5.484   2.273   5.612 -0.2332  0.5301  0.7578
 5967TIP3    H139392   5.447   2.357   5.584 -0.1612  0.2269 -0.3009
 5967TIP3    H239393   5.579   2.287   5.610 -0.2406  0.8537  2.0104
 5968TIP3   OH239394   6.050   2.012  16.045 -0.3207  0.9773 -0.9884
 5968TIP3    H139395   5.989   2.059  16.101  0.1162  1.2712 -0.7523
 5968TIP3    H239396   6.132   2.061  16.052  0.5077 -0.5192  0.2418
 5969TIP3   OH239397   6.482   3.196   0.047 -0.1771  0.4145 -0.1408
 5969TIP3    H139398   6.446   3.200   0.135  1.3812 -1.1398  0.6291
 5969TIP3    H239399   6.405   3.198  -0.011 -1.2849  0.3664  1.2828
 5970TIP3   OH239400   0.945   5.008  15.766 -0.5523 -0.3972  0.4446
 5970TIP3    H139401   0.952   5.102  15.753  0.6574 -0.6416 -0.8375
 5970TIP3    H239402   1.035   4.976  15.766 -0.9852 -1.8067 -1.3520
 5971TIP3   OH239403   6.635   6.325   4.195  0.1465 -0.0005 -0.3434
 5971TIP3    H139404   6.708   6.309   4.135  1.1982  1.1352  0.5836
 5971TIP3    H239405   6.644   6.258   4.263  0.5997  0.4136  0.0084
 5972TIP3   OH239406   6.672   5.438  15.397 -0.5237 -0.4160  0.6096
 5972TIP3    H139407   6.617   5.413  15.323 -0.6559  1.0952  0.1547
 5972TIP3    H239408   6.761   5.442  15.361 -0.4580 -0.5560  0.7552
 5973TIP3   OH239409   1.673   4.581  11.944 -0.6728 -0.6554  0.0589
 5973TIP3    H139410   1.760   4.605  11.976 -0.7524  0.0084 -0.2021
 5973TIP3    H239411   1.638   4.522  12.010 -0.6513  0.3179  0.9657
 5974TIP3   OH239412   2.066   2.314   4.488 -0.3862 -0.4415 -0.3122
 5974TIP3    H139413   2.073   2.323   4.583  2.3349 -0.4079 -0.4371
 5974TIP3    H239414   2.028   2.227   4.475 -0.5102 -0.5693  0.8051
 5975TIP3   OH239415   4.179   4.713   4.142  0.2452 -0.0768  0.4875
 5975TIP3    H139416   4.215   4.704   4.230  0.7018  0.1648  0.3271
 5975TIP3    H239417   4.233   4.780   4.101 -0.4021  0.3097  0.2519
 5976TIP3   OH239418   6.302   3.264  16.672  0.2842 -0.1105  0.1021
 5976TIP3    H139419   6.262   3.343  16.638  1.7132  0.3952 -0.4931
 5976TIP3    H239420   6.390   3.263  16.634  1.0920 -0.8065  1.8691
 5977TIP3   OH239421   4.553   6.516   5.850  0.5783 -0.5156 -0.6394
 5977TIP3    H139422   4.606   6.587   5.887 -0.3486 -0.7345  1.2325
 5977TIP3    H239423   4.589   6.436   5.890  0.4530 -0.9263 -1.3315
 5978TIP3   OH239424   5.771   4.455   4.556  0.4933  0.1179 -0.3026
 5978TIP3    H139425   5.851   4.413   4.586 -0.0304  0.3776  1.5832
 5978TIP3    H239426   5.794   4.548   4.550  0.1451  0.3123  1.0521
 5979TIP3   OH239427   1.389   4.939   3.624  0.4279  0.6647 -0.1209
 5979TIP3    H139428   1.327   4.879   3.583 -0.5214  0.4737  1.4792
 5979TIP3    H239429   1.385   5.019   3.571 -0.8526  0.4795 -0.3286
 5980TIP3   OH239430   0.884   0.700  13.006 -0.5055  0.5240  0.1158
 5980TIP3    H139431   0.904   0.607  12.999 -0.4262  0.6226 -1.4248
 5980TIP3    H239432   0.918   0.738  12.924 -1.2149  1.7768  0.3690
 5981TIP3   OH239433   6.214   0.479   1.501 -0.0920 -0.1927 -0.8363
 5981TIP3    H139434   6.197   0.386   1.483  1.0438 -0.6147  0.1726
 5981TIP3    H239435   6.289   0.479   1.559 -0.1513  1.3756 -0.7202
 5982TIP3   OH239436   6.685   5.208   6.447  0.3476 -0.4187 -0.0247
 5982TIP3    H139437   6.754   5.274   6.456  0.8958 -0.4136 -3.0837
 5982TIP3    H239438   6.612   5.256   6.408 -0.4627 -0.9648  0.8055
 5983TIP3   OH239439   1.932   5.477   5.503  0.1866 -0.5914 -0.3609
 5983TIP3    H139440   1.952   5.570   5.505  0.3198 -0.6052 -0.8559
 5983TIP3    H239441   1.971   5.442   5.584 -0.4950 -0.1009  0.1854
 5984TIP3   OH239442   0.851   3.158   6.211 -0.9164  0.1646  0.1775
 5984TIP3    H139443   0.914   3.091   6.238 -1.4159 -0.2882  0.2455
 5984TIP3    H239444   0.898   3.212   6.148 -0.3373  0.0783  0.5276
 5985TIP3   OH239445   4.556   2.666  14.168  0.3884  0.3894 -0.2818
 5985TIP3    H139446   4.585   2.757  14.170 -4.5382  2.2531 -0.5479
 5985TIP3    H239447   4.545   2.643  14.260  1.5989 -0.0278 -0.2161
 5986TIP3   OH239448   0.926   5.930   3.258  0.1344  0.8983  0.1001
 5986TIP3    H139449   0.973   5.967   3.184 -0.9955  3.1933  0.4321
 5986TIP3    H239450   0.988   5.934   3.331  0.3298  1.3328 -0.0870
 5987TIP3   OH239451   5.749   6.825   4.489 -0.0725 -0.2166 -0.1010
 5987TIP3    H139452   5.816   6.758   4.473 -1.2237 -1.4677  0.0925
 5987TIP3    H239453   5.679   6.802   4.428 -0.4090  0.9743 -0.1788
 5988TIP3   OH239454   6.243   4.935  12.665  0.3327  0.3117  0.1390
 5988TIP3    H139455   6.250   5.005  12.600  1.6309  0.9354  0.9208
 5988TIP3    H239456   6.204   4.976  12.742  1.9279  0.4527  0.9192
 5989TIP3   OH239457   1.463   3.640  14.718  0.6269 -0.1511  0.0327
 5989TIP3    H139458   1.371   3.662  14.733  0.9474  0.5099  1.1845
 5989TIP3    H239459   1.480   3.568  14.780  0.5376 -1.2309 -1.1616
 5990TIP3   OH239460   4.502   3.499   0.300 -0.1692 -0.7834  0.3865
 5990TIP3    H139461   4.422   3.447   0.300 -1.7073  1.4153  1.1231
 5990TIP3    H239462   4.528   3.503   0.392  1.0906 -1.8326  0.1074
 5991TIP3   OH239463   5.372   2.692  15.239 -0.6178 -0.3179 -0.0539
 5991TIP3    H139464   5.343   2.781  15.261 -1.7743 -0.4247 -1.0286
 5991TIP3    H239465   5.444   2.675  15.299 -1.9791  0.3329  1.8599
 5992TIP3   OH239466   6.382   6.210   2.535 -0.2860 -0.2883  0.5445
 5992TIP3    H139467   6.428   6.169   2.608  1.4568  0.7672  0.1130
 5992TIP3    H239468   6.316   6.146   2.508 -0.7259 -0.8396  2.7781
 5993TIP3   OH239469   6.125   3.136  14.055  0.5557 -0.2860 -0.4130
 5993TIP3    H139470   6.178   3.173  14.126 -2.3572  2.2079  0.6828
 5993TIP3    H239471   6.085   3.058  14.094  0.0499  0.2968  0.2737
 5994TIP3   OH239472   2.766   6.244   4.315  0.3239  0.2150 -0.1260
 5994TIP3    H139473   2.679   6.219   4.347 -0.5116  2.5673 -0.4021
 5994TIP3    H239474   2.819   6.165   4.328 -1.1167 -0.4159  2.6935
 5995TIP3   OH239475   0.456   4.190  16.489  0.3362 -0.4582  0.4071
 5995TIP3    H139476   0.532   4.224  16.537  0.9340  1.9478 -1.9991
 5995TIP3    H239477   0.386   4.252  16.508  0.3674  0.0826 -1.1229
 5996TIP3   OH239478   5.987   0.477   5.478  0.5903  0.0266 -0.6608
 5996TIP3    H139479   5.913   0.441   5.526 -0.0780  0.4490 -1.3521
 5996TIP3    H239480   6.054   0.494   5.546  0.2924 -0.9134 -0.1169
 5997TIP3   OH239481   1.316   1.990  13.475 -0.0633 -0.8320 -0.5647
 5997TIP3    H139482   1.258   1.970  13.401 -2.0575  0.7686  0.4519
 5997TIP3    H239483   1.280   2.071  13.511  2.7101  0.0790  0.3285
 5998TIP3   OH239484   5.322   6.727   0.692 -0.4351 -0.7097 -0.5007
 5998TIP3    H139485   5.374   6.647   0.695 -1.0695 -1.1101  0.2134
 5998TIP3    H239486   5.367   6.788   0.750  1.2371  0.2299 -2.6439
 5999TIP3   OH239487   6.774   1.736  14.575 -0.4570 -0.1683  0.3396
 5999TIP3    H139488   6.759   1.791  14.497  1.3714  0.3339  0.3112
 5999TIP3    H239489   6.732   1.785  14.646 -1.7783 -0.4295 -0.2138
 6000TIP3   OH239490   0.284   2.201   3.867  0.2754  0.1384 -0.6416
 6000TIP3    H139491   0.332   2.132   3.915 -0.7769  0.7786  1.4644
 6000TIP3    H239492   0.240   2.154   3.796  2.4135 -0.7633 -1.4507
 6001TIP3   OH239493   5.744   1.144  13.863 -0.2664  0.1002  0.1714
 6001TIP3    H139494   5.679   1.206  13.896 -0.3485 -0.0002  0.1942
 6001TIP3    H239495   5.702   1.101  13.789 -0.2272  0.0346  0.1869
 6002TIP3   OH239496   4.326   0.481  13.647 -0.0331  0.6557 -0.2808
 6002TIP3    H139497   4.338   0.444  13.559  1.6677  1.9142 -0.6487
 6002TIP3    H239498   4.368   0.567  13.641  0.8268  0.4405  1.9883
 6003TIP3   OH239499   3.895   5.650   5.577 -0.3769 -0.2953  0.3657
 6003TIP3    H139500   3.984   5.686   5.580  0.2462 -1.7203  0.1002
 6003TIP3    H239501   3.906   5.562   5.540 -1.9020 -0.5158  0.3551
 6004TIP3   OH239502   1.680   2.612   0.821  0.0188 -0.1517 -0.1227
 6004TIP3    H139503   1.659   2.592   0.912  0.2381 -2.2694 -0.4920
 6004TIP3    H239504   1.776   2.605   0.817 -0.0253 -0.5185 -0.6029
 6005TIP3   OH239505   4.991   3.665  15.544 -0.1621 -0.2753 -0.0109
 6005TIP3    H139506   4.951   3.752  15.546  0.2645 -0.0305 -1.2180
 6005TIP3    H239507   4.921   3.606  15.573 -0.8558  0.3363 -0.4134
 6006TIP3   OH239508   4.691   0.839  10.304 -0.1249 -0.2703  0.3415
 6006TIP3    H139509   4.604   0.874  10.288 -0.1778  0.3824  1.9180
 6006TIP3    H239510   4.678   0.744  10.309 -0.2665 -0.4415 -2.1352
 6007TIP3   OH239511   2.413   3.526   6.042  0.8264 -0.0301  0.2000
 6007TIP3    H139512   2.338   3.498   6.095  1.3085 -1.6266  0.1166
 6007TIP3    H239513   2.428   3.617   6.067 -1.6242  0.5920 -0.3868
 6008TIP3   OH239514   4.790   3.837   8.437  0.6016  0.6101 -0.3594
 6008TIP3    H139515   4.732   3.834   8.360  0.3749 -0.7537 -0.1653
 6008TIP3    H239516   4.748   3.899   8.496 -0.6315 -0.2789 -0.2663
 6009TIP3   OH239517   3.691   1.792  13.868  0.6588 -0.0266 -0.0924
 6009TIP3    H139518   3.645   1.718  13.907  0.7070 -1.0585 -1.8750
 6009TIP3    H239519   3.621   1.851  13.837  0.6170  0.5114  0.9957
 6010TIP3   OH239520   4.244   3.572  10.808 -0.8965  0.8429  0.2135
 6010TIP3    H139521   4.262   3.634  10.738 -0.9639  1.8579  1.0681
 6010TIP3    H239522   4.328   3.532  10.828 -0.6207  1.5223  0.4421
 6011TIP3   OH239523   1.150   1.455   0.129  0.1217 -0.1441 -0.1023
 6011TIP3    H139524   1.233   1.499   0.151  0.8424 -0.1794 -2.4930
 6011TIP3    H239525   1.172   1.362   0.129  0.0325 -0.1658 -0.5416
 6012TIP3   OH239526   2.581   4.720   3.275 -0.1084 -0.3260  1.0804
 6012TIP3    H139527   2.549   4.803   3.238 -0.5430  1.3687  4.7912
 6012TIP3    H239528   2.671   4.739   3.302  0.9142 -2.1413 -0.7422
 6013TIP3   OH239529   4.356   2.761   0.638  0.0120  0.6777  1.0263
 6013TIP3    H139530   4.370   2.669   0.619 -0.6334  0.6754  0.5192
 6013TIP3    H239531   4.289   2.761   0.707 -1.4011  0.7887 -0.2952
 6014TIP3   OH239532   5.904   3.585  16.652 -0.2709  0.7409  0.0634
 6014TIP3    H139533   5.867   3.548  16.732  0.2803  2.1594  1.0038
 6014TIP3    H239534   5.858   3.540  16.582 -0.4311 -0.8961  1.1524
 6015TIP3   OH239535   2.750   0.698  16.816 -0.2129  0.2071 -0.2474
 6015TIP3    H139536   2.708   0.764  16.870 -1.1216 -0.6724  0.1550
 6015TIP3    H239537   2.817   0.746  16.766 -0.6741  1.3631  0.2183
 6016TIP3   OH239538   1.696   0.689   4.782  0.5704 -0.1472 -0.1794
 6016TIP3    H139539   1.740   0.669   4.699 -0.5002  1.3310 -1.1578
 6016TIP3    H239540   1.615   0.638   4.779  0.5881 -0.1860  0.0077
 6017TIP3   OH239541   3.581   4.329   2.395  0.3021 -0.0778  0.1195
 6017TIP3    H139542   3.567   4.386   2.471  0.6495  0.0237  0.1113
 6017TIP3    H239543   3.676   4.320   2.390  0.2239 -1.6362  0.8382
 6018TIP3   OH239544   0.010   6.305   5.496 -0.0745  0.1021  0.0620
 6018TIP3    H139545   0.076   6.237   5.505  0.5628  0.8152  1.0682
 6018TIP3    H239546   0.018   6.336   5.406 -1.2515 -1.9795 -0.8290
 6019TIP3   OH239547   0.961   1.407  12.113 -0.0485 -0.4485 -0.1289
 6019TIP3    H139548   1.010   1.401  12.030 -0.3125  1.0651 -0.4262
 6019TIP3    H239549   0.952   1.317  12.142  2.8649 -0.8256 -0.0974
 6020TIP3   OH239550   1.092   0.918   2.726  0.0767  0.0366 -0.2906
 6020TIP3    H139551   1.137   0.862   2.789  1.6101  0.7713 -0.6890
 6020TIP3    H239552   1.135   0.900   2.643 -1.6901 -0.6564 -1.1020
 6021TIP3   OH239553   5.837   1.753  11.364  0.5556  0.7002 -0.2578
 6021TIP3    H139554   5.782   1.773  11.440 -3.5062 -2.0393 -2.1144
 6021TIP3    H239555   5.891   1.679  11.392  0.5271  0.9462  0.4846
 6022TIP3   OH239556   4.562   6.776   1.127  0.0673  0.3235 -0.2184
 6022TIP3    H139557   4.523   6.810   1.208 -0.8225 -0.7484 -0.1777
 6022TIP3    H239558   4.582   6.854   1.075 -0.2834  0.9751  0.6162
 6023TIP3   OH239559   1.824   5.746  15.623 -0.0377  0.0069  0.3198
 6023TIP3    H139560   1.901   5.692  15.641  1.2127  1.8348  0.8743
 6023TIP3    H239561   1.816   5.745  15.527  1.4423  0.6906  0.1503
 6024TIP3   OH239562   4.693   4.874  16.093 -0.1437  0.3655  0.6637
 6024TIP3    H139563   4.770   4.818  16.104  0.5655  1.2417  0.2543
 6024TIP3    H239564   4.640   4.828  16.028  0.7515  0.4773 -0.1753
 6025TIP3   OH239565   5.545   3.721   3.433 -0.5479 -0.1514  0.1516
 6025TIP3    H139566   5.498   3.780   3.373  0.4712  0.5246 -0.0127
 6025TIP3    H239567   5.564   3.644   3.381  0.1203  0.3355 -0.3437
 6026TIP3   OH239568   3.616   2.734  16.743  0.1125 -0.4041 -0.2527
 6026TIP3    H139569   3.670   2.790  16.798 -1.4970 -0.5931  1.6156
 6026TIP3    H239570   3.677   2.669  16.707  1.4508  0.6526  0.0491
 6027TIP3   OH239571   5.341   4.317   2.830 -0.2775 -0.1870  0.2164
 6027TIP3    H139572   5.327   4.223   2.818 -2.5572  0.1982 -0.6224
 6027TIP3    H239573   5.293   4.338   2.911 -0.8194  0.4596 -0.2650
 6028TIP3   OH239574   4.924   6.694   4.197 -0.6914  0.1575 -0.2725
 6028TIP3    H139575   4.912   6.770   4.140 -0.7361 -0.5483 -1.2179
 6028TIP3    H239576   4.995   6.720   4.257 -1.1164  1.1619 -0.1781
 6029TIP3   OH239577   1.280   6.249   4.082  0.4810 -0.3514 -0.1278
 6029TIP3    H139578   1.350   6.270   4.020  0.2203  1.3147  0.1030
 6029TIP3    H239579   1.293   6.310   4.155 -0.4437 -0.8965  0.5112
 6030TIP3   OH239580   3.254   1.936   1.764 -0.2095  0.5930 -0.3743
 6030TIP3    H139581   3.167   1.959   1.796 -0.1469  0.2473  0.0639
 6030TIP3    H239582   3.306   2.015   1.780 -0.6120  1.0651 -1.3347
 6031TIP3   OH239583   3.776   5.283  16.206  0.1438  0.3569 -0.8299
 6031TIP3    H139584   3.694   5.332  16.211  0.2805  0.6180 -1.0841
 6031TIP3    H239585   3.796   5.279  16.112  0.4678  0.3773 -0.7657
 6032TIP3   OH239586   3.078   4.983   4.937 -0.4276  0.0090  0.3613
 6032TIP3    H139587   3.087   5.062   4.884  1.6001  0.3011  1.0681
 6032TIP3    H239588   3.167   4.961   4.964 -1.2450 -0.8902  2.5497
 6033TIP3   OH239589   0.931   5.273   1.875  0.3030 -0.0619 -0.0697
 6033TIP3    H139590   0.962   5.200   1.821 -0.2490  0.0076 -0.4970
 6033TIP3    H239591   0.836   5.273   1.862  0.3959  1.4865 -1.0735
 6034TIP3   OH239592   6.762   3.092   4.035 -0.5588  0.5291  0.0095
 6034TIP3    H139593   6.828   3.118   3.971  0.1624 -1.0097  0.0771
 6034TIP3    H239594   6.793   3.128   4.118 -0.4500  0.8302 -0.1608
 6035TIP3   OH239595   2.705   0.295   2.251  0.2345 -0.6155  0.1592
 6035TIP3    H139596   2.695   0.258   2.164 -0.4018  0.4765 -0.2556
 6035TIP3    H239597   2.684   0.223   2.310  2.5556 -1.9420 -0.4948
 6036TIP3   OH239598   0.358   4.767  16.121  0.3127  0.5357 -0.1186
 6036TIP3    H139599   0.304   4.712  16.064 -2.0751 -0.8452  3.1058
 6036TIP3    H239600   0.395   4.705  16.185  1.7238  2.1081  0.6740
 6037TIP3   OH239601   3.347   0.252   0.994 -0.3021  0.0115 -0.2481
 6037TIP3    H139602   3.367   0.239   0.901 -1.1199  1.8502 -0.7453
 6037TIP3    H239603   3.395   0.183   1.040  1.8578  0.3251 -1.8625
 6038TIP3   OH239604   2.701   0.706  14.565  0.4719 -0.8529  0.3068
 6038TIP3    H139605   2.752   0.764  14.622  0.5818 -0.9134  0.2703
 6038TIP3    H239606   2.693   0.624  14.615  1.7696 -1.3996 -0.3273
 6039TIP3   OH239607   1.979   1.185   5.799 -0.3281 -0.2584 -0.4283
 6039TIP3    H139608   1.958   1.115   5.859  1.1176 -0.7782 -0.4814
 6039TIP3    H239609   2.030   1.143   5.729  0.5232  0.8136 -0.4880
 6040TIP3   OH239610   1.169   4.032   5.467 -0.4501  0.6300  0.2342
 6040TIP3    H139611   1.112   4.081   5.407  1.1697  1.2212 -0.8795
 6040TIP3    H239612   1.182   4.091   5.541 -0.9244  0.6675  0.2905
 6041TIP3   OH239613   2.958   4.732  15.555  0.1049 -0.3743 -0.4039
 6041TIP3    H139614   2.903   4.763  15.484 -0.6802  0.9186  0.7075
 6041TIP3    H239615   2.920   4.772  15.634  1.4143 -1.1017  0.6460
 6042TIP3   OH239616   6.787   3.804  14.137  0.3417  0.4158 -0.6204
 6042TIP3    H139617   6.855   3.837  14.195 -0.9573 -0.1030  1.3255
 6042TIP3    H239618   6.820   3.720  14.106  1.1906  0.8448 -0.9045
 6043TIP3   OH239619   5.935   5.013   2.374  0.0144  0.5781  0.1982
 6043TIP3    H139620   5.936   5.022   2.469 -0.2905 -0.2246  0.2796
 6043TIP3    H239621   6.022   5.042   2.346 -0.3626  2.1704  0.5868
 6044TIP3   OH239622   6.443   0.325   1.934  0.1169  0.6312 -0.6276
 6044TIP3    H139623   6.354   0.291   1.946  0.2349  0.5277 -0.0017
 6044TIP3    H239624   6.494   0.250   1.904  0.1631  0.4849 -0.1972
 6045TIP3   OH239625   6.520   1.518   2.316  0.7804  0.0385 -0.2163
 6045TIP3    H139626   6.546   1.476   2.399  2.1305  0.1917 -0.5460
 6045TIP3    H239627   6.567   1.601   2.315  0.7820  0.0350 -1.1451
 6046TIP3   OH239628   6.521   6.250   1.509 -0.2689 -0.3022 -0.4404
 6046TIP3    H139629   6.555   6.201   1.584 -1.6022 -0.8675 -0.1851
 6046TIP3    H239630   6.579   6.225   1.437  1.7960  1.1854  0.6017
 6047TIP3   OH239631   1.202   2.480  13.443  0.3271  0.0388  0.2719
 6047TIP3    H139632   1.278   2.488  13.386  0.0434 -0.2084 -0.1535
 6047TIP3    H239633   1.134   2.530  13.398 -0.0753 -0.6704  0.0728
 6048TIP3   OH239634   1.337   5.181   5.482 -0.0479  0.1810 -0.0478
 6048TIP3    H139635   1.267   5.186   5.547 -0.7141  0.7409 -0.7906
 6048TIP3    H239636   1.391   5.108   5.512 -1.5487 -0.9808 -0.0204
 6049TIP3   OH239637   3.665   0.756  14.327  0.4263  0.4599  0.1222
 6049TIP3    H139638   3.663   0.661  14.342 -0.8407  0.7640  2.2998
 6049TIP3    H239639   3.595   0.771  14.264  0.2489  0.0085  0.2067
 6050TIP3   OH239640   0.840   0.572  12.318 -0.0120 -0.1955 -0.4958
 6050TIP3    H139641   0.862   0.661  12.290  1.0760  0.4666  2.1371
 6050TIP3    H239642   0.773   0.584  12.385  0.5852 -1.2801  0.3311
 6051TIP3   OH239643   2.163   1.449  16.495  0.2244  0.4088 -0.5353
 6051TIP3    H139644   2.238   1.391  16.480  0.6636  0.8705 -0.1227
 6051TIP3    H239645   2.109   1.402  16.558 -0.4434 -0.4639 -1.7110
 6052TIP3   OH239646   2.747   3.594   1.465  0.1362  0.0941  0.0377
 6052TIP3    H139647   2.682   3.581   1.534 -2.2484 -1.1399 -2.2365
 6052TIP3    H239648   2.702   3.648   1.399  1.4547 -0.6185 -1.5316
 6053TIP3   OH239649   3.336   5.015  11.394 -0.2199 -0.2551  0.0761
 6053TIP3    H139650   3.331   5.102  11.355 -2.1667  0.1527  1.1083
 6053TIP3    H239651   3.268   4.965  11.349  0.5917 -1.1453 -0.2061
 6054TIP3   OH239652   6.780   3.861   3.097 -0.1063  0.8272 -0.5470
 6054TIP3    H139653   6.795   3.806   3.174  1.1939  1.5680 -0.2316
 6054TIP3    H239654   6.748   3.800   3.030  0.7798 -0.2311 -0.0506
 6055TIP3   OH239655   0.793   3.847  16.016  0.4924  0.1473  0.0388
 6055TIP3    H139656   0.825   3.908  15.949  0.6707 -0.6520 -0.6311
 6055TIP3    H239657   0.860   3.850  16.084 -0.1478  1.6718  0.6506
 6056TIP3   OH239658   6.485   4.236  11.208  0.5814  0.4756 -0.4280
 6056TIP3    H139659   6.457   4.149  11.237  1.2113 -0.0199 -1.2533
 6056TIP3    H239660   6.580   4.238  11.225  0.7066  0.7035 -1.1117
 6057TIP3   OH239661   3.417   6.145   0.166  0.1184  0.1824  0.0989
 6057TIP3    H139662   3.360   6.100   0.104 -2.5815  1.8441  1.1683
 6057TIP3    H239663   3.498   6.095   0.166 -1.1331 -2.0227 -1.9536
 6058TIP3   OH239664   0.492   3.511   0.083  0.1959  0.1944 -0.4268
 6058TIP3    H139665   0.573   3.463   0.102  0.4683  0.8751  0.2010
 6058TIP3    H239666   0.496   3.588   0.140 -1.4806 -0.3639  0.5283
 6059TIP3   OH239667   2.134   5.050  12.783 -0.2807  0.1266  0.1193
 6059TIP3    H139668   2.207   4.994  12.757  0.5529  0.8128  0.9166
 6059TIP3    H239669   2.103   5.012  12.865 -0.1825  0.4031  0.2846
 6060TIP3   OH239670   5.453   3.639   5.148 -0.4813 -0.5423 -0.2493
 6060TIP3    H139671   5.417   3.710   5.202  0.4023  0.7621 -1.3102
 6060TIP3    H239672   5.438   3.560   5.199 -0.7290  0.5054  1.3696
 6061TIP3   OH239673   5.684   6.361   1.390 -0.4226 -0.2718 -0.1165
 6061TIP3    H139674   5.633   6.376   1.470  0.2141 -0.8062  0.4021
 6061TIP3    H239675   5.758   6.307   1.419  2.8741  3.8236  0.0792
 6062TIP3   OH239676   4.035   3.817   2.582 -0.2033 -0.0459 -0.3348
 6062TIP3    H139677   3.978   3.742   2.573  0.0932 -0.2263 -0.7389
 6062TIP3    H239678   4.046   3.851   2.493  0.1340  0.1180 -0.2352
 6063TIP3   OH239679   6.329   6.383  12.490  0.1235  0.4076  0.3828
 6063TIP3    H139680   6.355   6.474  12.501  0.1946  0.6552 -1.4806
 6063TIP3    H239681   6.272   6.383  12.413  0.9639 -1.2494 -0.2995
 6064TIP3   OH239682   5.839   3.600  15.182 -0.5953 -0.1775  0.2168
 6064TIP3    H139683   5.922   3.643  15.164  0.9426 -2.9959 -0.0647
 6064TIP3    H239684   5.782   3.626  15.109  0.9675 -0.3297 -1.1169
 6065TIP3   OH239685   3.404   5.553  11.914 -0.9120  0.1515  0.1276
 6065TIP3    H139686   3.430   5.578  11.825  0.0897  0.2778  0.4478
 6065TIP3    H239687   3.418   5.631  11.967 -1.1295 -0.0405  0.4773
 6066TIP3   OH239688   2.383   3.052  14.575 -0.0120 -0.5786 -0.5045
 6066TIP3    H139689   2.398   3.086  14.664  2.2073  0.8102 -1.3092
 6066TIP3    H239690   2.384   2.957  14.586  2.1593 -0.4972  0.7945
 6067TIP3   OH239691   0.129   4.186   2.105 -0.4012 -0.0569  0.2216
 6067TIP3    H139692   0.128   4.276   2.072  1.3314 -0.2586 -0.4552
 6067TIP3    H239693   0.037   4.165   2.120 -1.1184  0.7893 -2.5037
 6068TIP3   OH239694   5.799   3.344  13.515  0.0661  0.7000  0.1395
 6068TIP3    H139695   5.886   3.355  13.476  1.1792  1.6575  2.6515
 6068TIP3    H239696   5.779   3.429  13.554 -2.7658  0.9837 -1.6313
 6069TIP3   OH239697   3.768   1.249   3.707 -0.0065  0.2454  0.0166
 6069TIP3    H139698   3.835   1.243   3.775 -0.6952 -0.3641  0.6477
 6069TIP3    H239699   3.705   1.312   3.741  0.0819  0.5987 -0.4521
 6070TIP3   OH239700   5.853   5.251  13.596 -0.8002 -0.4925  0.0015
 6070TIP3    H139701   5.869   5.345  13.586 -0.1683 -0.5801  0.1431
 6070TIP3    H239702   5.758   5.244  13.607 -0.8442  0.1371  0.0727
 6071TIP3   OH239703   5.078   0.161  17.116  0.0369 -0.1227 -0.2636
 6071TIP3    H139704   5.062   0.189  17.026  0.9400  0.5943 -0.2079
 6071TIP3    H239705   5.169   0.186  17.134  0.2746 -1.3754  0.4330
 6072TIP3   OH239706   1.277   3.250  15.793 -0.3590 -0.0504  0.3878
 6072TIP3    H139707   1.275   3.263  15.698  0.4418  0.4328  0.4307
 6072TIP3    H239708   1.367   3.224  15.811 -0.7377 -1.0643  0.9055
 6073TIP3   OH239709   1.638   5.001  15.482 -0.1715 -0.1968 -0.2130
 6073TIP3    H139710   1.604   4.912  15.476  0.4242 -0.5486  1.2334
 6073TIP3    H239711   1.588   5.051  15.417 -0.7055 -1.5159 -0.8434
 6074TIP3   OH239712   4.351   6.482   6.100  0.2330 -0.1157 -0.4643
 6074TIP3    H139713   4.413   6.549   6.128 -0.4748  0.4651 -0.2639
 6074TIP3    H239714   4.392   6.399   6.125  0.1749  0.3221  1.1734
 6075TIP3   OH239715   3.923   6.168  16.199 -0.3670 -0.0899  0.1870
 6075TIP3    H139716   3.877   6.245  16.164 -0.3798 -0.9546 -1.8280
 6075TIP3    H239717   3.858   6.126  16.256 -0.6431  0.9123  0.6479
 6076TIP3   OH239718   0.095   1.314   5.148 -0.3239 -0.0079  0.2073
 6076TIP3    H139719   0.098   1.361   5.065 -0.6833 -0.5154 -0.0989
 6076TIP3    H239720   0.057   1.376   5.210 -2.0329 -0.3105 -0.4912
 6077TIP3   OH239721   4.596   1.103   6.370 -0.0648 -0.0690  0.2954
 6077TIP3    H139722   4.615   1.181   6.422 -0.3448 -1.1622  2.1177
 6077TIP3    H239723   4.507   1.078   6.395  0.3627 -1.5037  0.4722
 6078TIP3   OH239724   2.443   3.254   5.870 -0.1248  0.3969 -0.3875
 6078TIP3    H139725   2.451   3.203   5.951  0.4070  1.1698  0.0597
 6078TIP3    H239726   2.359   3.226   5.833  0.0461 -0.6228 -0.0407
 6079TIP3   OH239727   1.968   0.772   2.558  0.0486 -0.2582  0.1674
 6079TIP3    H139728   1.953   0.705   2.624 -0.7717  0.0704  0.3287
 6079TIP3    H239729   1.906   0.752   2.488 -1.5633  1.3640  1.0289
 6080TIP3   OH239730   4.678   3.462  16.702 -0.0984  0.0511  0.4209
 6080TIP3    H139731   4.685   3.546  16.747  2.1137  0.8366 -1.2112
 6080TIP3    H239732   4.748   3.409  16.740  1.5762  0.6135 -1.7561
 6081TIP3   OH239733   1.989   2.953  14.094  0.9836  0.3974  0.0472
 6081TIP3    H139734   1.899   2.921  14.103  0.7954  0.8872 -0.0798
 6081TIP3    H239735   1.995   2.981  14.003  0.9822  1.2151  0.2955
 6082TIP3   OH239736   6.821   4.182   5.370  0.1493 -0.5626 -0.1354
 6082TIP3    H139737   6.910   4.191   5.404  0.1263  2.0128 -0.5530
 6082TIP3    H239738   6.831   4.185   5.275 -0.2329 -2.5271 -0.2717
 6083TIP3   OH239739   5.874   4.337   2.429  0.2036 -0.5271  0.0009
 6083TIP3    H139740   5.787   4.313   2.398 -0.0803  0.0591  0.3402
 6083TIP3    H239741   5.874   4.315   2.522  0.2998 -0.1928  0.0803
 6084TIP3   OH239742   1.553   2.519  16.583  0.7554 -0.1076  0.3456
 6084TIP3    H139743   1.588   2.562  16.661  2.7918 -0.3769 -0.3480
 6084TIP3    H239744   1.562   2.426  16.600  0.9092 -0.1735 -0.0716
 6085TIP3   OH239745   2.830   4.764   4.461  0.3136 -0.2851  0.2148
 6085TIP3    H139746   2.856   4.674   4.442 -1.7674 -0.7648 -0.6748
 6085TIP3    H239747   2.787   4.760   4.546  0.0056 -0.1924  0.0670
 6086TIP3   OH239748   3.047   1.406  11.684 -0.6425 -0.8497 -0.1772
 6086TIP3    H139749   2.966   1.387  11.731 -0.0093 -0.8299  0.9511
 6086TIP3    H239750   3.039   1.498  11.658  0.0072 -0.0990  2.0524
 6087TIP3   OH239751   6.426   4.616  15.205 -0.2784 -0.7618  0.0549
 6087TIP3    H139752   6.504   4.619  15.150  0.7960 -0.7616  1.5253
 6087TIP3    H239753   6.376   4.542  15.172  0.0993 -0.4741 -1.2172
 6088TIP3   OH239754   1.134   0.930  14.064  0.0307  0.1530 -0.3106
 6088TIP3    H139755   1.078   0.852  14.059  0.6044 -0.2279 -1.1352
 6088TIP3    H239756   1.215   0.904  14.020  1.1256  0.4755  1.3976
 6089TIP3   OH239757   2.937   6.152  12.180  0.6568 -0.3883  0.1721
 6089TIP3    H139758   2.953   6.097  12.104  0.8547  0.0186 -0.0831
 6089TIP3    H239759   2.919   6.239  12.144 -0.9760 -0.5449  0.4951
 6090TIP3   OH239760   2.956   4.729  13.765 -0.3983  0.1867  0.3548
 6090TIP3    H139761   3.032   4.783  13.743  0.0491 -0.0506  1.2678
 6090TIP3    H239762   2.894   4.790  13.805 -0.3833  0.2439  0.2922
 6091TIP3   OH239763   2.532   0.558  11.060  0.0661  0.0153 -0.3837
 6091TIP3    H139764   2.543   0.554  11.155 -0.9098 -0.4343 -0.2873
 6091TIP3    H239765   2.448   0.516  11.043 -0.2537  0.9845 -1.3513
 6092TIP3   OH239766   5.860   4.169   2.975 -0.4176  0.0681 -0.1978
 6092TIP3    H139767   5.782   4.201   3.020  0.1694  0.5411  0.5130
 6092TIP3    H239768   5.928   4.233   2.997  0.6015 -1.2559  0.6398
 6093TIP3   OH239769   1.482   3.366  14.185 -0.0173 -0.2467 -0.0927
 6093TIP3    H139770   1.489   3.393  14.277 -0.0772  1.8674 -0.6674
 6093TIP3    H239771   1.562   3.316  14.169  0.7435  0.6645  0.7184
 6094TIP3   OH239772   2.105   4.183  14.020  0.3859 -0.1967 -0.0135
 6094TIP3    H139773   2.069   4.102  14.055 -3.0129  0.7380 -0.9446
 6094TIP3    H239774   2.098   4.246  14.091  1.1423 -0.2012  0.0792
 6095TIP3   OH239775   4.068   1.034  11.960 -0.5313  0.1383  0.5835
 6095TIP3    H139776   4.072   1.063  12.051 -2.9733  0.3641  0.6702
 6095TIP3    H239777   4.085   0.939  11.964  0.5209  0.3320  1.1013
 6096TIP3   OH239778   5.432   5.078   5.240  0.2194 -0.0417  0.0122
 6096TIP3    H139779   5.429   4.991   5.199 -0.2123 -0.8335  1.6079
 6096TIP3    H239780   5.486   5.065   5.318 -1.8688  0.4667  1.6312
 6097TIP3   OH239781   1.729   0.567   2.083 -0.3012  0.0480  0.6648
 6097TIP3    H139782   1.759   0.630   2.017  0.0215  1.1206  1.8075
 6097TIP3    H239783   1.773   0.486   2.059  0.4691  0.6312  0.0391
 6098TIP3   OH239784   1.835   6.774  11.051  0.8638 -0.2112  0.4588
 6098TIP3    H139785   1.766   6.747  10.991  0.7886 -1.3935  1.0440
 6098TIP3    H239786   1.816   6.866  11.071  0.0035 -0.2653 -0.1052
 6099TIP3   OH239787   5.245   0.266   4.061  0.2654  0.1163  0.3263
 6099TIP3    H139788   5.194   0.240   3.984 -1.0390  0.5773  0.9964
 6099TIP3    H239789   5.287   0.185   4.090  0.5390 -0.1173 -0.6899
 6100TIP3   OH239790   5.652   6.290  12.696  0.4486  0.2238  0.0317
 6100TIP3    H139791   5.677   6.241  12.618  1.0078  0.8504 -0.1815
 6100TIP3    H239792   5.591   6.357  12.665 -0.6815 -0.5985  0.3901
 6101TIP3   OH239793   1.531   2.956  13.584  0.3599  0.2590  0.0921
 6101TIP3    H139794   1.501   3.042  13.557  0.6178  0.3267  0.0148
 6101TIP3    H239795   1.607   2.973  13.640 -1.5304  0.2476  2.8195
 6102TIP3   OH239796   4.875   1.276  10.703  0.3596  0.0612  0.1187
 6102TIP3    H139797   4.963   1.306  10.724  0.8810 -0.2549 -1.4994
 6102TIP3    H239798   4.886   1.218  10.628 -1.0843 -1.0786  0.7417
 6103TIP3   OH239799   4.217   5.480   2.886  0.2992 -0.3057  0.2505
 6103TIP3    H139800   4.155   5.465   2.958  1.4621  0.9030  1.5470
 6103TIP3    H239801   4.234   5.574   2.888  1.1261 -0.4119 -0.9849
 6104TIP3   OH239802   2.572   4.452   2.533 -0.5552  0.1784 -0.4537
 6104TIP3    H139803   2.509   4.512   2.571 -1.4198 -0.3713 -0.9857
 6104TIP3    H239804   2.521   4.397   2.474  0.3079 -0.6986 -0.4187
 6105TIP3   OH239805   2.657   5.397   6.564  0.0299  0.6029  0.6993
 6105TIP3    H139806   2.704   5.472   6.528 -2.7564  2.3211  0.2678
 6105TIP3    H239807   2.659   5.411   6.659  0.6117  0.4902  0.7073
 6106TIP3   OH239808   5.612   0.622   1.290 -0.1555  0.3683  0.0337
 6106TIP3    H139809   5.608   0.659   1.202  1.9810 -1.1808 -0.8072
 6106TIP3    H239810   5.646   0.693   1.345  1.8215  0.3800 -1.1209
 6107TIP3   OH239811   0.450   0.523  15.856 -0.0007 -0.8790  0.4038
 6107TIP3    H139812   0.371   0.516  15.910  0.1107  0.8951  0.8737
 6107TIP3    H239813   0.521   0.495  15.914  0.4550  3.2902  2.2246
 6108TIP3   OH239814   5.020   1.264   0.172 -0.0745  0.4419  0.4188
 6108TIP3    H139815   5.109   1.267   0.138  0.3527 -0.2848  1.4260
 6108TIP3    H239816   5.031   1.243   0.265 -1.3397 -0.6726  0.3365
 6109TIP3   OH239817   0.852   4.639   5.455  0.4739 -0.2853 -0.1450
 6109TIP3    H139818   0.809   4.626   5.539 -1.9786  0.7402 -1.1364
 6109TIP3    H239819   0.858   4.551   5.417 -0.6854 -0.4820  0.0900
 6110TIP3   OH239820   3.865   3.175   1.992  0.2997  0.0284  0.0758
 6110TIP3    H139821   3.884   3.138   2.078  2.8687  1.9220  0.4512
 6110TIP3    H239822   3.866   3.100   1.932  0.9502 -1.0227  1.3615
 6111TIP3   OH239823   4.950   2.073  14.388 -0.1418 -0.3319  0.2364
 6111TIP3    H139824   4.924   1.987  14.355 -0.3904 -0.3670  0.5107
 6111TIP3    H239825   5.014   2.105  14.325 -3.1236  1.1531 -2.3702
 6112TIP3   OH239826   3.459   1.668  12.519 -0.7714  0.1935 -0.5517
 6112TIP3    H139827   3.528   1.729  12.495 -0.5253  0.0019 -0.3426
 6112TIP3    H239828   3.406   1.659  12.440  0.9571 -1.6757 -1.5952
 6113TIP3   OH239829   4.577   0.691   2.326  0.1884 -0.0267  0.2244
 6113TIP3    H139830   4.662   0.720   2.293  0.1193  0.6640  0.6422
 6113TIP3    H239831   4.514   0.720   2.260  0.1224  0.7730  0.6272
 6114TIP3   OH239832   5.888   4.968  16.428 -0.2755  0.1413  0.1387
 6114TIP3    H139833   5.816   4.941  16.485  0.2815 -2.8736 -0.4042
 6114TIP3    H239834   5.851   4.965  16.340  0.6499 -2.4828 -0.2525
 6115TIP3   OH239835   0.433   1.339  10.425  0.3190 -0.7385 -0.0896
 6115TIP3    H139836   0.481   1.344  10.342 -0.9712 -2.5118 -1.0096
 6115TIP3    H239837   0.354   1.392  10.410  1.2537  1.0518  0.9502
 6116TIP3   OH239838   0.124   3.999  12.245 -0.0347 -0.9793 -0.3219
 6116TIP3    H139839   0.213   3.969  12.228  0.2429  0.1652 -0.9745
 6116TIP3    H239840   0.073   3.919  12.253  1.0570 -1.6563  0.1264
 6117TIP3   OH239841   0.363   2.381   0.678  0.2545  0.3996 -0.6018
 6117TIP3    H139842   0.347   2.324   0.754 -0.6615 -1.4175 -2.0596
 6117TIP3    H239843   0.455   2.405   0.685 -0.1288  1.4339  1.7938
 6118TIP3   OH239844   2.268   2.174  15.789 -0.2344 -0.0084 -0.2463
 6118TIP3    H139845   2.286   2.242  15.724  0.0015  0.7171  0.5512
 6118TIP3    H239846   2.313   2.096  15.756 -1.5882 -0.1610 -1.8285
 6119TIP3   OH239847   0.403   5.791   0.008  0.3503  0.9966  1.1837
 6119TIP3    H139848   0.352   5.867  -0.016 -1.2732 -0.2866  0.3705
 6119TIP3    H239849   0.374   5.769   0.096 -0.5174  0.2839  0.7328
 6120TIP3   OH239850   0.809   2.080   4.083 -0.2630  0.5327 -0.5693
 6120TIP3    H139851   0.741   2.148   4.073  0.2618  1.1115 -0.2586
 6120TIP3    H239852   0.878   2.123   4.132 -0.4392 -0.6034  0.7247
 6121TIP3   OH239853   2.280   3.057   6.320  0.6970 -0.6234  0.1716
 6121TIP3    H139854   2.267   3.097   6.234 -0.5411  1.1487  1.1178
 6121TIP3    H239855   2.221   2.981   6.320 -0.0945 -0.0263 -0.1897
 6122TIP3   OH239856   1.576   3.103  12.832  0.0073 -0.3125  0.2400
 6122TIP3    H139857   1.653   3.100  12.776 -0.5147 -1.3301 -0.4696
 6122TIP3    H239858   1.606   3.071  12.917  0.2197 -1.4559 -0.2456
 6123TIP3   OH239859   5.110   2.515  14.325  0.0132 -0.0825  0.0234
 6123TIP3    H139860   5.135   2.452  14.257 -1.5889 -2.2669  1.3687
 6123TIP3    H239861   5.153   2.596  14.298  0.9989 -1.3458 -2.5554
 6124TIP3   OH239862   2.540   1.943  13.326  0.1157  0.0531  0.0094
 6124TIP3    H139863   2.489   2.005  13.378 -0.9631 -0.8608  0.0787
 6124TIP3    H239864   2.504   1.951  13.237  0.8013  0.3963 -0.2396
 6125TIP3   OH239865   5.053   5.505  15.335 -0.3279 -0.1105  0.1400
 6125TIP3    H139866   5.029   5.448  15.408 -0.6180  0.7790  0.7638
 6125TIP3    H239867   5.097   5.579  15.377  0.6724 -0.2159 -0.7170
 6126TIP3   OH239868   2.403   5.474  12.950 -0.5797  0.6921 -0.2901
 6126TIP3    H139869   2.432   5.504  13.036  0.0656  0.7913 -0.5341
 6126TIP3    H239870   2.483   5.473  12.897 -0.8081 -0.2832 -0.6251
 6127TIP3   OH239871   6.457   5.382  10.427  0.7139 -0.4969  0.1029
 6127TIP3    H139872   6.392   5.312  10.421  2.5027 -2.0970 -2.5731
 6127TIP3    H239873   6.432   5.444  10.359 -0.2178  0.9984  1.7287
 6128TIP3   OH239874   2.831   2.106  12.415  0.3368  0.1803 -0.2966
 6128TIP3    H139875   2.817   2.126  12.507 -2.6306 -0.8433 -0.4077
 6128TIP3    H239876   2.889   2.029  12.415  0.1710  0.0487  0.7171
 6129TIP3   OH239877   3.213   3.926  13.416  0.3471  0.0427 -0.2683
 6129TIP3    H139878   3.252   3.957  13.334  1.3556 -0.3357  0.0537
 6129TIP3    H239879   3.273   3.958  13.484 -1.3181  1.7866  0.4939
 6130TIP3   OH239880   2.396   6.469   6.407 -0.3249  0.4963  0.7680
 6130TIP3    H139881   2.407   6.496   6.316  1.4640  1.1328  1.1357
 6130TIP3    H239882   2.340   6.536   6.446 -0.6880  0.4868  0.2771
 6131TIP3   OH239883   0.375   1.678   0.582 -0.3298 -0.0130 -0.1837
 6131TIP3    H139884   0.350   1.617   0.512  0.9360 -2.9092  1.6833
 6131TIP3    H239885   0.470   1.690   0.571 -0.2385  0.0559  0.6092
 6132TIP3   OH239886   0.749   2.797   5.705  0.5782  0.3793 -0.5007
 6132TIP3    H139887   0.774   2.709   5.730  0.0190  0.3019 -0.2114
 6132TIP3    H239888   0.784   2.853   5.774 -0.2087  0.2504  0.0187
 6133TIP3   OH239889   6.035   3.111  16.943 -0.3925  0.2293  0.2550
 6133TIP3    H139890   6.096   3.118  16.870 -2.3683  0.5321 -1.4624
 6133TIP3    H239891   6.079   3.154  17.016  2.1334 -1.1098 -0.3892
 6134TIP3   OH239892   0.727   4.671   3.273 -0.6233 -0.4262 -0.1330
 6134TIP3    H139893   0.685   4.586   3.277  0.0970 -0.9123 -2.0080
 6134TIP3    H239894   0.804   4.658   3.218  0.9248  0.8740  1.6009
 6135TIP3   OH239895   5.478   1.612   1.478  0.0759  0.2307 -0.1665
 6135TIP3    H139896   5.486   1.583   1.387 -0.5994  0.1791 -0.2149
 6135TIP3    H239897   5.414   1.683   1.475 -0.7537 -0.4745  0.4072
 6136TIP3   OH239898   5.119   5.863   2.148 -0.0627 -0.3411  0.2229
 6136TIP3    H139899   5.080   5.784   2.186 -0.0846 -0.7412 -0.6265
 6136TIP3    H239900   5.047   5.925   2.143 -0.6488 -1.1162 -1.4491
 6137TIP3   OH239901   4.174   6.203   3.856  0.0864 -0.7372  0.1692
 6137TIP3    H139902   4.127   6.129   3.895  0.1259 -1.3891 -0.9775
 6137TIP3    H239903   4.110   6.245   3.799 -0.2246  0.7259  1.5461
 6138TIP3   OH239904   3.530   3.328  10.893  0.2915  0.2186  0.8189
 6138TIP3    H139905   3.468   3.395  10.862 -0.2942  0.1240  1.7362
 6138TIP3    H239906   3.586   3.310  10.817  0.0019  1.2290  0.3461
 6139TIP3   OH239907   4.060   5.271  15.437 -0.3979  0.7028 -0.1024
 6139TIP3    H139908   4.106   5.277  15.353 -3.1088  0.9853 -1.6972
 6139TIP3    H239909   4.047   5.362  15.464 -0.7166  0.6593 -0.1031
 6140TIP3   OH239910   2.244   0.805  11.597 -0.1929 -0.2509 -0.2577
 6140TIP3    H139911   2.232   0.719  11.557 -3.2438  0.1763 -0.5067
 6140TIP3    H239912   2.213   0.795  11.687  0.1904  0.4119 -0.0417
 6141TIP3   OH239913   1.565   2.245  10.953 -0.2701 -0.1849 -0.1947
 6141TIP3    H139914   1.571   2.311  11.023  1.4434 -0.1308 -0.3698
 6141TIP3    H239915   1.616   2.282  10.881 -0.2161 -1.2257 -0.6967
 6142TIP3   OH239916   4.655   0.921   1.362  0.1938  0.0133  0.1285
 6142TIP3    H139917   4.693   0.956   1.282 -0.4250  0.1283 -0.1194
 6142TIP3    H239918   4.562   0.911   1.342  0.0003  0.2338  0.9007
 6143TIP3   OH239919   0.363   4.930   4.431  0.6366  0.1667 -0.0272
 6143TIP3    H139920   0.412   4.893   4.357  1.0686 -1.2332  0.9034
 6143TIP3    H239921   0.421   4.996   4.468  0.8441  0.1650 -0.3488
 6144TIP3   OH239922   2.079   1.999  12.834  0.1496  0.2320  0.2314
 6144TIP3    H139923   2.081   1.948  12.753  1.9601  1.2329 -0.4073
 6144TIP3    H239924   2.066   2.089  12.805  0.7712  0.5990  1.0514
 6145TIP3   OH239925   5.052   0.980  12.213 -0.3946  0.1839 -0.3290
 6145TIP3    H139926   5.129   0.943  12.170 -0.4076 -0.1460 -0.0639
 6145TIP3    H239927   5.038   1.064  12.168  0.3168  0.4000 -0.1539
 6146TIP3   OH239928   4.248   4.343  11.349  0.1424 -0.2931 -0.2022
 6146TIP3    H139929   4.241   4.248  11.338 -0.8298 -0.1777 -0.6509
 6146TIP3    H239930   4.286   4.373  11.267 -0.7614 -0.1654 -0.5853
 6147TIP3   OH239931   1.298   0.319   0.102  0.5897 -0.5188 -0.2969
 6147TIP3    H139932   1.351   0.287   0.175  0.4356 -1.8107 -0.7294
 6147TIP3    H239933   1.359   0.325   0.029  0.6888  0.5331 -0.1438
 6148TIP3   OH239934   4.670   5.503   5.812 -0.4611  0.2812 -0.1467
 6148TIP3    H139935   4.667   5.544   5.899 -1.5200  0.3763 -0.2112
 6148TIP3    H239936   4.713   5.419   5.827 -1.6784 -0.2134  0.7066
 6149TIP3   OH239937   1.816   1.125   2.290 -0.1438  0.1968 -0.5058
 6149TIP3    H139938   1.805   1.059   2.359 -1.0781 -0.6535 -1.4348
 6149TIP3    H239939   1.827   1.207   2.338  0.1745 -0.4999  0.6698
 6150TIP3   OH239940   3.316   0.540   0.317 -0.3422 -1.0198 -0.7879
 6150TIP3    H139941   3.252   0.480   0.279 -1.5098 -0.4025  0.1535
 6150TIP3    H239942   3.264   0.613   0.352  0.8896 -0.3731 -0.2221
 6151TIP3   OH239943   3.469   3.988   2.499  0.1394  0.1893 -0.3926
 6151TIP3    H139944   3.400   3.926   2.522  0.0254 -0.1349 -1.5483
 6151TIP3    H239945   3.547   3.954   2.544 -0.1850 -0.1008 -0.0340
 6152TIP3   OH239946   6.113   6.549  14.299  0.1214  0.0957  0.6076
 6152TIP3    H139947   6.094   6.569  14.207  0.5574  0.8074  0.6704
 6152TIP3    H239948   6.026   6.539  14.339 -0.1513  2.0903  0.6128
 6153TIP3   OH239949   5.363   6.410   3.148  0.1511  0.4530 -0.0946
 6153TIP3    H139950   5.326   6.336   3.100  0.7050  0.7539 -0.9935
 6153TIP3    H239951   5.358   6.383   3.240 -0.0589 -0.5159 -0.3751
 6154TIP3   OH239952   6.040   0.839  15.890  0.1554  0.4206 -0.2260
 6154TIP3    H139953   6.097   0.891  15.947  0.9873 -1.9444  1.2375
 6154TIP3    H239954   5.999   0.775  15.949 -0.4415 -0.9018 -1.9975
 6155TIP3   OH239955   4.874   2.215  12.081 -0.2840  0.2318 -0.5986
 6155TIP3    H139956   4.858   2.297  12.128  0.8894  0.0287  0.1853
 6155TIP3    H239957   4.836   2.147  12.137 -1.4713  0.2384 -1.3618
 6156TIP3   OH239958   4.588   4.034  12.402 -0.5833  0.0752  0.0721
 6156TIP3    H139959   4.596   4.023  12.497  0.6838 -0.7997 -0.1053
 6156TIP3    H239960   4.600   4.128  12.388  0.1319  0.0969  0.7227
 6157TIP3   OH239961   5.195   3.987  11.351  0.5731  0.2518  0.0247
 6157TIP3    H139962   5.165   3.897  11.363 -0.3405  0.5880  0.3399
 6157TIP3    H239963   5.122   4.032  11.309  0.6335  1.0764  0.7496
 6158TIP3   OH239964   6.766   0.683  15.848  0.2766 -0.2512  0.1679
 6158TIP3    H139965   6.773   0.724  15.934  1.2191 -0.9197  0.4157
 6158TIP3    H239966   6.704   0.611  15.861  2.1697 -1.8296  0.8936
 6159TIP3   OH239967   4.595   2.386  11.802  0.4557 -0.1314 -0.2407
 6159TIP3    H139968   4.643   2.444  11.743 -1.0089 -0.0665 -1.4391
 6159TIP3    H239969   4.642   2.392  11.886  2.0378  0.4985 -1.1284
 6160TIP3   OH239970   5.961   2.079   3.898 -0.4021  0.1160  0.1541
 6160TIP3    H139971   5.981   2.171   3.885 -1.0038  0.2988  0.4832
 6160TIP3    H239972   6.034   2.045   3.950  0.1851  0.2292 -0.5901
 6161TIP3   OH239973   4.656   5.486  13.698  0.3702  0.5403  0.0059
 6161TIP3    H139974   4.726   5.421  13.705  0.7890  1.0919  1.0908
 6161TIP3    H239975   4.577   5.435  13.688  1.0118 -0.1082 -2.6872
 6162TIP3   OH239976   1.378   5.591  14.182  0.1302  0.1617  0.1065
 6162TIP3    H139977   1.386   5.668  14.239  0.3390 -0.3986  0.8527
 6162TIP3    H239978   1.441   5.529  14.217 -2.5937 -1.8218  1.9965
 6163TIP3   OH239979   3.858   4.615   1.535 -0.6490  0.1485 -0.5583
 6163TIP3    H139980   3.929   4.678   1.544 -2.7070  2.7502 -1.3607
 6163TIP3    H239981   3.881   4.562   1.459  0.8024  0.3833 -0.3020
 6164TIP3   OH239982   1.967   1.567   3.963 -0.1751 -0.0864  0.2219
 6164TIP3    H139983   1.890   1.532   3.919 -1.4704  0.6706  1.7902
 6164TIP3    H239984   1.982   1.652   3.921 -1.4257  0.6464  1.1766
 6165TIP3   OH239985   1.606   0.171  15.329  0.2770  0.5690 -0.1691
 6165TIP3    H139986   1.552   0.129  15.261  1.7307 -1.0163 -0.4053
 6165TIP3    H239987   1.544   0.224  15.378 -1.1577  0.3344 -1.6137
 6166TIP3   OH239988   6.426   3.080  13.997  0.4984 -0.0913  0.3170
 6166TIP3    H139989   6.388   3.115  14.078  1.0365  0.8866  0.1564
 6166TIP3    H239990   6.352   3.071  13.938  0.4078  1.2181  0.2103
 6167TIP3   OH239991   6.411   2.759  12.181 -0.4596 -0.3902  0.5180
 6167TIP3    H139992   6.499   2.795  12.189 -0.5702  0.1303 -0.4131
 6167TIP3    H239993   6.355   2.836  12.172 -0.5915 -0.7071 -2.5875
 6168TIP3   OH239994   4.349   2.568   3.074 -0.6829 -0.0796 -0.0352
 6168TIP3    H139995   4.386   2.584   3.161 -0.8019  0.3017 -0.0530
 6168TIP3    H239996   4.285   2.498   3.087 -0.3410 -0.3687  0.0937
 6169TIP3   OH239997   3.179   2.374   4.682 -0.5008 -0.1340 -0.3214
 6169TIP3    H139998   3.163   2.282   4.705 -0.4977 -0.2118 -0.6297
 6169TIP3    H239999   3.119   2.423   4.738 -0.1717 -0.2941  0.1872
 6170TIP3   OH240000   1.790   1.380   5.116 -0.8051  0.1112  0.5398
 6170TIP3    H140001   1.741   1.410   5.039 -1.3288  0.6939  1.0787
 6170TIP3    H240002   1.722   1.361   5.181 -0.3531 -0.0447  0.9728
 6171TIP3   OH240003   6.239   3.441  14.631 -0.4352  0.3808  0.1227
 6171TIP3    H140004   6.188   3.361  14.639  0.9924 -0.5600  0.3077
 6171TIP3    H240005   6.329   3.410  14.616 -0.1235  1.9700 -1.5544
 6172TIP3   OH240006   3.481   3.706  15.618 -0.3742 -0.3285 -0.2838
 6172TIP3    H140007   3.537   3.783  15.620 -1.8066  0.7673  0.3300
 6172TIP3    H240008   3.478   3.680  15.526  0.1467  0.3433 -0.5007
 6173TIP3   OH240009   1.794   6.290   3.471  0.1216  0.7047 -0.2033
 6173TIP3    H140010   1.722   6.353   3.473 -1.3688 -0.9349  0.6303
 6173TIP3    H240011   1.770   6.228   3.402  0.9939  0.4159 -0.2592
 6174TIP3   OH240012   3.158   3.890  11.796 -0.2707 -0.7714  0.3962
 6174TIP3    H140013   3.231   3.945  11.825 -1.9602  1.4521  0.6926
 6174TIP3    H240014   3.121   3.937  11.721 -0.5181 -2.6255 -0.6943
 6175TIP3   OH240015   2.191   5.674   2.374 -0.1201  0.4546 -0.1974
 6175TIP3    H140016   2.268   5.710   2.419  1.5533 -1.9158 -0.9395
 6175TIP3    H240017   2.180   5.729   2.297  0.4131  1.2352  0.2722
 6176TIP3   OH240018   1.453   5.683  11.456  0.5983  0.0537 -0.5992
 6176TIP3    H140019   1.471   5.642  11.371 -0.8597  0.9938 -1.4190
 6176TIP3    H240020   1.381   5.631  11.493 -0.9699  1.4845 -1.4541
 6177TIP3   OH240021   4.814   6.666  16.936  0.5016 -0.0148 -0.1586
 6177TIP3    H140022   4.824   6.677  16.841 -2.3712  0.5936 -0.4923
 6177TIP3    H240023   4.781   6.577  16.947  3.1611 -0.9792  0.5653
 6178TIP3   OH240024   2.215   3.298  12.728 -0.1009  1.2701 -0.8338
 6178TIP3    H140025   2.220   3.238  12.654  0.1147  0.3351 -0.0892
 6178TIP3    H240026   2.180   3.379  12.692 -0.9101  0.5256 -1.7692
 6179TIP3   OH240027   1.177   3.946   0.838  0.9487 -0.7708 -0.5448
 6179TIP3    H140028   1.107   3.972   0.779 -1.0698  0.7110  2.2649
 6179TIP3    H240029   1.258   3.973   0.793 -0.5015  1.0548 -2.2304
 6180TIP3   OH240030   0.329   1.116   3.603 -0.3651  0.0990  0.4745
 6180TIP3    H140031   0.282   1.164   3.534  0.1773 -0.6258 -0.4267
 6180TIP3    H240032   0.415   1.097   3.565 -0.0824 -0.3888  1.3287
 6181TIP3   OH240033   5.648   3.342  15.067 -0.4778 -0.3497  0.4970
 6181TIP3    H140034   5.554   3.325  15.061 -0.9630  2.2499 -0.3727
 6181TIP3    H240035   5.657   3.435  15.050  2.1623 -0.2361  1.9779
 6182TIP3   OH240036   1.356   3.673   2.039  0.6317 -0.2748  0.5885
 6182TIP3    H140037   1.323   3.654   2.127 -1.9347 -2.0104 -0.6447
 6182TIP3    H240038   1.392   3.590   2.008 -2.2875 -0.9230 -1.4466
 6183TIP3   OH240039   1.247   6.315  11.701 -0.3423 -0.2773  0.0050
 6183TIP3    H140040   1.302   6.245  11.666  0.9026  0.3766  0.5842
 6183TIP3    H240041   1.280   6.394  11.659 -0.0693  0.2743  1.2023
 6184TIP3   OH240042   2.746   4.667  13.091  0.0227  0.1973  0.3626
 6184TIP3    H140043   2.687   4.594  13.069 -0.2817  0.1316  1.3186
 6184TIP3    H240044   2.687   4.740  13.109  0.2461  0.2648  0.8495
 6185TIP3   OH240045   3.191   0.463  13.788 -0.1343 -0.0893  0.0343
 6185TIP3    H140046   3.194   0.446  13.694  1.0052  1.9004 -0.3544
 6185TIP3    H240047   3.283   0.462  13.815 -0.4829 -1.3970  1.3159
 6186TIP3   OH240048   6.103   2.117   0.005 -0.3079  0.2210 -0.5795
 6186TIP3    H140049   6.103   2.206  -0.030 -1.3299  0.7527  0.6798
 6186TIP3    H240050   6.040   2.119   0.077 -0.9282 -1.7210 -0.9871
 6187TIP3   OH240051   5.122   2.691   0.576  0.1817 -0.2262  0.4556
 6187TIP3    H140052   5.051   2.671   0.516  0.3647 -1.9331  0.7627
 6187TIP3    H240053   5.114   2.785   0.593 -1.6099 -0.2741  0.0120
 6188TIP3   OH240054   4.448   6.245  14.742  0.2917  0.7771  0.0334
 6188TIP3    H140055   4.432   6.296  14.822 -0.2526 -0.3140  0.6348
 6188TIP3    H240056   4.377   6.272  14.683 -1.7636 -1.3279  1.3758
 6189TIP3   OH240057   1.468   5.589   2.555 -0.4307 -0.1623 -0.8062
 6189TIP3    H140058   1.485   5.666   2.609 -2.5273 -1.3737  1.8457
 6189TIP3    H240059   1.388   5.610   2.508 -0.8485 -0.5980 -0.2967
 6190TIP3   OH240060   3.521   5.512   5.747  0.1052 -0.4638  0.3922
 6190TIP3    H140061   3.472   5.591   5.767  0.5188  0.4060 -1.7319
 6190TIP3    H240062   3.457   5.441   5.756 -0.6095  0.2533  1.0709
 6191TIP3   OH240063   2.864   1.438   3.370  0.7926 -0.0730  0.1566
 6191TIP3    H140064   2.954   1.430   3.339  0.6110 -0.0536 -0.3909
 6191TIP3    H240065   2.813   1.454   3.290  0.5223  1.6943  0.6446
 6192TIP3   OH240066   1.038   1.289   5.548  0.1176 -0.2364  0.6793
 6192TIP3    H140067   0.996   1.207   5.520 -1.2367  0.7771 -0.3858
 6192TIP3    H240068   1.110   1.302   5.486  1.7753 -1.7035  2.1854
 6193TIP3   OH240069   1.290   5.282   3.856  0.4990 -0.3619 -0.0056
 6193TIP3    H140070   1.362   5.221   3.875  1.4105  1.2305  2.1642
 6193TIP3    H240071   1.266   5.318   3.942 -1.0463  1.1660 -1.0081
 6194TIP3   OH240072   2.729   3.192   4.375  0.1253 -0.4942 -0.0390
 6194TIP3    H140073   2.683   3.209   4.293  1.8471 -1.6567 -1.2984
 6194TIP3    H240074   2.689   3.112   4.409 -1.6137  0.7746  1.1106
 6195TIP3   OH240075   4.249   3.943  17.022 -0.1744  0.3702 -0.0180
 6195TIP3    H140076   4.227   4.031  16.989 -1.3416 -0.2328 -0.9171
 6195TIP3    H240077   4.341   3.932  17.000 -0.7083  0.3059 -2.4814
 6196TIP3   OH240078   2.078   2.506  13.215 -0.0662 -0.2957 -0.0926
 6196TIP3    H140079   2.136   2.515  13.291 -0.1296 -0.1116 -0.0664
 6196TIP3    H240080   2.000   2.463  13.250 -0.7784  1.2476  0.2960
 6197TIP3   OH240081   2.833   4.247  11.252 -0.9008 -0.4120  0.5783
 6197TIP3    H140082   2.925   4.252  11.279 -0.6107 -0.0808 -0.4369
 6197TIP3    H240083   2.791   4.319  11.298 -0.6290 -0.4852  0.9486
 6198TIP3   OH240084   0.790   1.902   1.834  0.2556  0.4279  0.4071
 6198TIP3    H140085   0.776   1.810   1.811  0.4485  0.4212  0.3185
 6198TIP3    H240086   0.884   1.909   1.850  0.2937  0.6940  0.0570
 6199TIP3   OH240087   3.891   6.237  12.230 -0.9975 -0.0769 -0.0276
 6199TIP3    H140088   3.860   6.192  12.309 -1.5653 -0.0036 -0.2015
 6199TIP3    H240089   3.968   6.187  12.203 -1.1088 -0.4218  0.2776
 6200TIP3   OH240090   6.758   6.626  13.588  0.0665  0.0545  0.4600
 6200TIP3    H140091   6.745   6.551  13.529 -0.1997  0.3978  0.0775
 6200TIP3    H240092   6.683   6.682  13.572 -0.5900 -0.3645  1.9372
 6201TIP3   OH240093   3.910   0.092   0.992  0.1025  0.2958  0.0981
 6201TIP3    H140094   3.944   0.005   0.973 -2.2786 -0.8689  0.8297
 6201TIP3    H240095   3.885   0.127   0.906 -1.7636 -1.0460  0.0351
 6202TIP3   OH240096   4.610   4.072  15.203 -0.0710 -0.0765  0.2238
 6202TIP3    H140097   4.702   4.095  15.213 -0.1973  1.2322 -1.1218
 6202TIP3    H240098   4.608   4.013  15.127 -0.4622  1.0783 -0.6908
 6203TIP3   OH240099   0.349   4.824   0.800 -0.1696 -0.0333 -0.7562
 6203TIP3    H140100   0.419   4.787   0.747  0.2036  1.0902 -1.0915
 6203TIP3    H240101   0.271   4.773   0.777  0.1303 -0.0083 -1.8814
 6204TIP3   OH240102   4.387   0.308  15.255  0.1830  0.1440  0.0221
 6204TIP3    H140103   4.373   0.377  15.320  2.7346  0.2486  0.5686
 6204TIP3    H240104   4.373   0.227  15.304 -0.4678  0.2432  0.0075
 6205TIP3   OH240105   2.477   2.533  12.026  0.1701  0.0030 -0.7097
 6205TIP3    H140106   2.491   2.444  12.059  1.0200  0.1308 -0.7048
 6205TIP3    H240107   2.412   2.522  11.956  0.4107 -0.6526 -0.8387
 6206TIP3   OH240108   1.146   0.573   5.548 -0.1652  0.1561 -0.1796
 6206TIP3    H140109   1.144   0.556   5.454  0.4641 -0.8129 -0.0372
 6206TIP3    H240110   1.060   0.610   5.568  0.1196  1.5396 -1.3317
 6207TIP3   OH240111   5.251   3.321   2.037  0.6399  0.6896  0.0633
 6207TIP3    H140112   5.274   3.256   2.103 -0.4900  1.3258  1.1038
 6207TIP3    H240113   5.204   3.272   1.970 -2.6978  0.7773  2.1470
 6208TIP3   OH240114   6.354   1.013   4.467  0.0640  0.4753  0.4390
 6208TIP3    H140115   6.441   1.020   4.506 -0.5652  2.1248  1.6871
 6208TIP3    H240116   6.344   1.094   4.416 -0.5348  0.0552 -0.1261
 6209TIP3   OH240117   6.136   4.997  16.218  0.7551  0.0618 -0.1393
 6209TIP3    H140118   6.081   4.919  16.214  0.0260  0.5149  0.6709
 6209TIP3    H240119   6.226   4.963  16.221  0.4085 -0.8330  1.7918
 6210TIP3   OH240120   2.168   4.644   2.255 -0.0064 -0.1196  0.5460
 6210TIP3    H140121   2.138   4.576   2.194 -2.4919 -0.3200  1.8548
 6210TIP3    H240122   2.263   4.638   2.253 -0.0439 -1.0405 -2.2305
 6211TIP3   OH240123   5.053   0.977  16.991  0.2157  0.7733 -0.3920
 6211TIP3    H140124   5.127   0.918  16.977  0.3575  1.0180 -0.7101
 6211TIP3    H240125   5.049   0.989  17.086  1.0919  1.3905 -0.4213
 6212TIP3   OH240126   0.737   2.282  10.065  0.2817  0.1466 -0.6353
 6212TIP3    H140127   0.780   2.243   9.988  1.0356  1.2405 -0.7869
 6212TIP3    H240128   0.660   2.227  10.079  0.7774 -0.7946 -1.4432
 6213TIP3   OH240129   6.336   1.958   2.964  0.1120 -0.1974 -0.1678
 6213TIP3    H140130   6.356   2.028   2.901 -0.5290 -0.1837 -0.3686
 6213TIP3    H240131   6.250   1.926   2.937 -0.3452  0.0670  0.9458
 6214TIP3   OH240132   4.585   1.355   0.977 -0.1363  0.2972  0.1024
 6214TIP3    H140133   4.547   1.433   1.017 -0.7881  0.0559 -0.0393
 6214TIP3    H240134   4.520   1.286   0.992  0.9878 -0.5393  1.3790
 6215TIP3   OH240135   4.745   2.040  10.395  0.0373 -0.2043 -0.4501
 6215TIP3    H140136   4.760   1.950  10.425  0.8581  0.2437  0.5593
 6215TIP3    H240137   4.698   2.030  10.312 -0.7630 -1.5440  0.1226
 6216TIP3   OH240138   4.476   3.467   3.422 -0.1502 -0.0210 -0.2889
 6216TIP3    H140139   4.387   3.431   3.423 -0.1549 -0.0510  1.3002
 6216TIP3    H240140   4.531   3.394   3.451  0.5364 -0.2766 -2.1166
 6217TIP3   OH240141   1.237   4.100  17.221 -0.0871  0.0667  0.1475
 6217TIP3    H140142   1.318   4.148  17.201  0.1334  0.5148  1.9841
 6217TIP3    H240143   1.251   4.013  17.183  1.6483 -0.1558  1.1827
 6218TIP3   OH240144   2.411   3.889  17.176 -0.0926  0.0761 -0.6425
 6218TIP3    H140145   2.379   3.826  17.112  0.0242  0.2247 -0.8500
 6218TIP3    H240146   2.344   3.890  17.245 -0.5365  0.3802 -1.0680
 6219TIP3   OH240147   2.552   6.664   5.567 -0.0693 -0.0028 -0.1707
 6219TIP3    H140148   2.485   6.712   5.616  0.3711  0.5565 -0.1073
 6219TIP3    H240149   2.607   6.732   5.529  0.0180 -0.4478 -0.8542
 6220TIP3   OH240150   0.247   6.165  17.051 -0.4428  0.0892 -0.0273
 6220TIP3    H140151   0.265   6.071  17.054 -0.9042 -0.1718 -3.0067
 6220TIP3    H240152   0.189   6.180  17.126 -1.5502 -2.3088 -0.2879
 6221TIP3   OH240153   2.578   1.869  12.576 -0.3328  0.0623  0.6879
 6221TIP3    H140154   2.561   1.803  12.643  0.5477 -1.4243 -0.4898
 6221TIP3    H240155   2.651   1.920  12.612  2.5262 -2.9009 -0.4598
 6222TIP3   OH240156   0.530   6.162   3.083  0.1953 -0.2484 -0.1392
 6222TIP3    H140157   0.547   6.188   3.174  0.3353  1.3104 -0.5723
 6222TIP3    H240158   0.441   6.127   3.084 -0.5364  1.5131  0.3026
 6223TIP3   OH240159   0.601   6.206   0.027 -0.2298  0.0496  0.7216
 6223TIP3    H140160   0.669   6.272   0.041 -0.1332 -0.0060  0.5170
 6223TIP3    H240161   0.527   6.235   0.081  0.5181 -0.7598  2.2484
 6224TIP3   OH240162   2.177   6.801  12.772  0.1911 -0.1949  0.0472
 6224TIP3    H140163   2.228   6.863  12.721  0.5053 -2.5327 -2.7471
 6224TIP3    H240164   2.213   6.806  12.860  0.2081  3.4389 -0.0462
 6225TIP3   OH240165   5.425   3.165   4.979 -0.4726  0.0779 -0.4720
 6225TIP3    H140166   5.408   3.257   4.956  0.5208  0.5184  0.4801
 6225TIP3    H240167   5.519   3.154   4.967 -0.6622 -0.9783 -1.0797
 6226TIP3   OH240168   6.023   2.186  10.976  0.0633 -0.0813  0.4053
 6226TIP3    H140169   5.956   2.221  10.916 -1.3619 -0.7149  1.5636
 6226TIP3    H240170   6.096   2.163  10.919  0.4526  3.1537 -0.6402
 6227TIP3   OH240171   0.100   5.214  12.716 -0.1938  0.2641 -0.1114
 6227TIP3    H140172   0.192   5.187  12.715 -0.0777  0.6774 -0.8418
 6227TIP3    H240173   0.082   5.231  12.809  0.0063 -1.3421  0.2503
 6228TIP3   OH240174   5.839   0.168  14.134 -0.0856  0.2146 -0.0344
 6228TIP3    H140175   5.881   0.228  14.196  1.6078 -1.7205  0.8026
 6228TIP3    H240176   5.775   0.120  14.186  2.8689 -3.0100  1.0157
 6229TIP3   OH240177   2.360   5.077   6.335 -0.4559 -0.3178 -0.1892
 6229TIP3    H140178   2.296   5.114   6.274  1.4661  0.1053 -2.0879
 6229TIP3    H240179   2.339   4.983   6.337 -0.9046 -0.2487 -1.0763
 6230TIP3   OH240180   3.317   2.232   4.913 -0.0732 -0.3154  0.0794
 6230TIP3    H140181   3.358   2.309   4.873 -2.2636  0.0186 -1.7207
 6230TIP3    H240182   3.268   2.267   4.988 -1.2053  0.1482 -0.8347
 6231TIP3   OH240183   5.372   5.671  14.324  0.1533  0.7895 -0.0195
 6231TIP3    H140184   5.378   5.580  14.353 -1.6444  0.3466 -0.9444
 6231TIP3    H240185   5.386   5.667  14.229  1.5299  1.6869  0.1117
 6232TIP3   OH240186   3.326   6.122   7.017  0.1922 -0.1444 -0.0071
 6232TIP3    H140187   3.383   6.194   7.045  0.4579 -0.9789  1.7547
 6232TIP3    H240188   3.238   6.160   7.015  0.2390  0.1128  1.4944
 6233TIP3   OH240189   3.792   4.389  15.164  0.5299  0.4849  0.2662
 6233TIP3    H140190   3.870   4.334  15.171  0.1315 -0.0450  0.6087
 6233TIP3    H240191   3.784   4.409  15.070  2.6299  2.8429  0.4704
 6234TIP3   OH240192   0.142   6.203   3.100  0.6582 -0.2956 -0.9979
 6234TIP3    H140193   0.201   6.153   3.156 -0.9480 -0.3553  0.6897
 6234TIP3    H240194   0.178   6.191   3.012  1.4327 -2.8197 -0.4185
 6235TIP3   OH240195   2.764   2.035  12.679  0.4571 -0.1780  0.2902
 6235TIP3    H140196   2.827   1.970  12.713 -0.3581 -0.3881  1.4400
 6235TIP3    H240197   2.759   2.101  12.747 -0.1480  0.1333 -0.0538
 6236TIP3   OH240198   4.338   1.074   0.814 -0.3053  0.1564 -0.3796
 6236TIP3    H140199   4.368   1.062   0.724  0.9532  1.3505 -0.1525
 6236TIP3    H240200   4.263   1.133   0.806  1.6460  2.7997 -0.4957
 6237TIP3   OH240201   6.294   2.984  16.908 -0.2159 -0.2378 -0.1562
 6237TIP3    H140202   6.253   2.903  16.876 -2.7533  1.2680 -0.9940
 6237TIP3    H240203   6.301   3.039  16.830 -0.1491  1.0035  0.7006
 6238TIP3   OH240204   1.303   4.659   5.807 -0.7052  0.0048  0.1336
 6238TIP3    H140205   1.310   4.729   5.873  0.9861 -0.0832  0.1029
 6238TIP3    H240206   1.276   4.582   5.856  3.6686 -0.9208  1.5165
 6239TIP3   OH240207   4.287   5.652   0.082 -0.2524 -0.2109  0.0692
 6239TIP3    H140208   4.348   5.611   0.143 -0.7794 -1.1947 -0.0528
 6239TIP3    H240209   4.322   5.632  -0.005 -0.7513 -0.7897 -0.0010
 6240TIP3   OH240210   6.778   5.257   0.040 -0.3147  0.3899 -0.1167
 6240TIP3    H140211   6.823   5.336   0.072 -0.9552  0.5594  0.4027
 6240TIP3    H240212   6.814   5.186   0.093 -2.9915  0.9568  2.7715
 6241TIP3   OH240213   1.497   5.712  12.485  0.1127  0.3320  0.0251
 6241TIP3    H140214   1.557   5.728  12.557  2.7147  1.3674 -2.1633
 6241TIP3    H240215   1.478   5.618  12.489  0.4121  0.3286  1.8499
 6242TIP3   OH240216   0.972   2.720  16.911  0.1316 -0.2700  0.0248
 6242TIP3    H140217   0.952   2.759  16.826 -2.4682 -0.0112  0.6918
 6242TIP3    H240218   0.967   2.626  16.897  0.7472 -0.2558 -0.3206
 6243TIP3   OH240219   4.125   4.270   5.593 -0.0448 -0.9687 -0.2445
 6243TIP3    H140220   4.178   4.333   5.544  1.5735 -1.4517  0.8001
 6243TIP3    H240221   4.035   4.296   5.575  0.5203 -0.0205 -1.9797
 6244TIP3   OH240222   4.690   6.193   0.696  0.0599 -0.8558  0.0439
 6244TIP3    H140223   4.724   6.136   0.627  1.6940  3.3294 -3.0764
 6244TIP3    H240224   4.605   6.224   0.662 -0.4378 -0.8514  1.2647
 6245TIP3   OH240225   5.634   2.488   0.242 -0.1082 -0.3627  0.3561
 6245TIP3    H140226   5.652   2.395   0.225  1.4287 -0.2612  1.2626
 6245TIP3    H240227   5.585   2.489   0.324  1.8260 -0.3167  1.5911
 6246TIP3   OH240228   6.257   3.983   3.183  0.2195 -0.2642 -0.2453
 6246TIP3    H140229   6.168   4.014   3.195  0.3523 -0.3680  1.1415
 6246TIP3    H240230   6.304   4.013   3.261  2.0506  1.9575 -2.0595
 6247TIP3   OH240231   5.792   0.750  12.229  0.0858 -0.6840 -0.0411
 6247TIP3    H140232   5.760   0.660  12.218  1.9652 -1.4225  0.2325
 6247TIP3    H240233   5.871   0.755  12.175  0.3392  0.6294  0.4089
 6248TIP3   OH240234   3.329   5.423  14.752 -0.3672 -0.2420 -0.3672
 6248TIP3    H140235   3.355   5.466  14.670 -0.2369 -0.1893 -0.2980
 6248TIP3    H240236   3.351   5.331  14.738  0.8422 -0.0471  0.0780
 6249TIP3   OH240237   5.351   2.899   5.480 -0.4067 -0.1964 -0.0506
 6249TIP3    H140238   5.440   2.863   5.478 -0.1897 -0.0185  2.7752
 6249TIP3    H240239   5.295   2.826   5.454  0.3630 -1.1955  1.0403
 6250TIP3   OH240240   1.184   3.008   4.570  0.4632 -0.0622  0.0485
 6250TIP3    H140241   1.226   2.934   4.525  0.4486  0.5140 -0.9455
 6250TIP3    H240242   1.096   2.976   4.591  0.2303 -0.1338 -0.9596
 6251TIP3   OH240243   5.538   3.388   2.825 -0.1732 -0.7301 -0.1942
 6251TIP3    H140244   5.600   3.385   2.898  0.6487 -0.7119 -0.8810
 6251TIP3    H240245   5.523   3.482   2.810  0.8008 -0.6768 -0.9774
 6252TIP3   OH240246   6.404   1.278  12.988  0.1972 -0.0966  0.0248
 6252TIP3    H140247   6.486   1.238  13.018  0.7748  0.5424 -0.6266
 6252TIP3    H240248   6.375   1.221  12.916 -0.3662 -0.7702  0.7762
 6253TIP3   OH240249   6.461   3.327   3.452  0.2303  0.2792 -0.2331
 6253TIP3    H140250   6.434   3.248   3.499 -0.6719  0.0894 -1.0253
 6253TIP3    H240251   6.381   3.379   3.446 -0.6331 -1.1561 -4.3511
 6254TIP3   OH240252   3.350   6.770   3.373  0.2841 -0.3831  0.3940
 6254TIP3    H140253   3.397   6.786   3.291 -0.2570  0.5866  0.2519
 6254TIP3    H240254   3.261   6.748   3.345 -0.5965  2.3837  0.7163
 6255TIP3   OH240255   1.107   1.665   4.544 -0.3292  0.0326  0.5538
 6255TIP3    H140256   1.186   1.671   4.598 -0.0209  0.5853  0.0448
 6255TIP3    H240257   1.100   1.572   4.522  1.7528  0.3208 -1.7188
 6256TIP3   OH240258   1.162   3.221   2.129 -0.3442 -0.3407  0.4442
 6256TIP3    H140259   1.075   3.191   2.102  0.4762 -0.5236 -2.2990
 6256TIP3    H240260   1.216   3.141   2.130  0.6238  0.2249 -1.6527
 6257TIP3   OH240261   3.893   6.309  16.811  0.1032  0.4175  0.0063
 6257TIP3    H140262   3.965   6.321  16.873  0.5121 -0.2014 -0.3347
 6257TIP3    H240263   3.936   6.303  16.725 -0.4159  0.7809 -0.2836
 6258TIP3   OH240264   5.513   5.822   5.418 -0.1420 -0.1800  0.1045
 6258TIP3    H140265   5.477   5.744   5.377  0.0080 -0.8919  1.2682
 6258TIP3    H240266   5.606   5.819   5.397  0.1392 -1.1333  1.3314
 6259TIP3   OH240267   2.647   6.226   2.321  0.5651  0.3845 -0.1852
 6259TIP3    H140268   2.691   6.311   2.328 -0.5417  1.1269 -1.7936
 6259TIP3    H240269   2.645   6.207   2.227  2.1556 -2.1985  0.1977
 6260TIP3   OH240270   6.294   4.050   0.781  0.2567  0.0894 -0.3049
 6260TIP3    H140271   6.320   4.077   0.692 -0.3441  0.6800 -0.3064
 6260TIP3    H240272   6.329   4.118   0.838  1.9086 -1.0313  0.0858
 6261TIP3   OH240273   2.768   4.639   1.033  0.0385 -0.7422  0.5820
 6261TIP3    H140274   2.723   4.722   1.011 -1.5096 -2.0871 -1.8336
 6261TIP3    H240275   2.698   4.574   1.033  1.6212 -2.5427 -0.7511
 6262TIP3   OH240276   0.595   0.232   1.943 -0.1660  0.1448 -0.1588
 6262TIP3    H140277   0.522   0.203   1.889  0.4119  1.1974 -1.5508
 6262TIP3    H240278   0.666   0.171   1.921 -0.4257 -0.5110  0.7531
 6263TIP3   OH240279   5.670   4.336   1.609  0.7247  0.0492  0.9281
 6263TIP3    H140280   5.735   4.267   1.618 -0.2137 -0.8160  1.2866
 6263TIP3    H240281   5.638   4.351   1.698  1.7168  1.7836  1.0509
 6264TIP3   OH240282   4.786   0.608  14.015  0.3099 -0.3090 -0.1562
 6264TIP3    H140283   4.858   0.643  13.962 -0.1823 -0.0546 -0.6566
 6264TIP3    H240284   4.709   0.656  13.986 -0.1344 -0.8568  0.1059
 6265TIP3   OH240285   0.890   5.213  11.987  0.1158 -0.5869 -0.0981
 6265TIP3    H140286   0.916   5.184  11.899 -1.0100  1.3991 -1.1771
 6265TIP3    H240287   0.800   5.242  11.976  0.0509 -0.0227  1.6691
 6266TIP3   OH240288   4.239   6.106  11.737  0.4413 -0.1078  0.0793
 6266TIP3    H140289   4.147   6.107  11.763  0.8305 -0.9825  1.5871
 6266TIP3    H240290   4.237   6.109  11.641 -1.2030 -1.9468  0.0135
 6267TIP3   OH240291   6.553   4.870  16.856 -0.5756 -0.5263 -0.3456
 6267TIP3    H140292   6.617   4.799  16.863 -0.2116 -0.1283  0.4296
 6267TIP3    H240293   6.489   4.851  16.924 -1.1380 -0.7649 -0.9296
 6268TIP3   OH240294   6.323   6.033   2.976  0.1550 -0.0580 -0.0446
 6268TIP3    H140295   6.397   5.975   2.993  0.4315  0.1533 -0.5211
 6268TIP3    H240296   6.361   6.121   2.975  0.0430 -0.0100 -1.1246
 6269TIP3   OH240297   2.211   0.308   4.249  0.9410  0.1302 -0.2093
 6269TIP3    H140298   2.270   0.306   4.325  1.8617  0.8803 -0.8771
 6269TIP3    H240299   2.211   0.218   4.217  2.3971  0.2563 -0.6710
 6270TIP3   OH240300   3.945   4.160  15.234 -0.0662 -0.6684  0.5604
 6270TIP3    H140301   4.017   4.184  15.294 -0.6267  2.2628  0.2339
 6270TIP3    H240302   3.990   4.130  15.155  0.8835  0.9008  0.4410
 6271TIP3   OH240303   5.504   6.438  10.664 -0.1213 -0.0850  0.5952
 6271TIP3    H140304   5.508   6.506  10.731 -2.7482  0.9068 -0.1307
 6271TIP3    H240305   5.591   6.438  10.625  0.3247  2.0154  1.4298
 6272TIP3   OH240306   5.163   5.685   0.586  0.1861 -0.0550  0.2427
 6272TIP3    H140307   5.238   5.735   0.555  0.9911 -1.6008 -0.4467
 6272TIP3    H240308   5.185   5.663   0.677  0.7463 -0.7798 -0.0565
 6273TIP3   OH240309   2.387   0.682  14.862 -0.1500  0.1278  0.3909
 6273TIP3    H140310   2.414   0.665  14.952 -0.0554  0.8104  0.4943
 6273TIP3    H240311   2.307   0.734  14.871  0.7277  1.5884  0.0987
 6274TIP3   OH240312   3.378   5.446   3.086 -0.0522  0.2366  0.0193
 6274TIP3    H140313   3.439   5.470   3.016  0.3962 -0.0002  0.3249
 6274TIP3    H240314   3.380   5.520   3.146  0.1906  0.0865  0.1983
 6275TIP3   OH240315   3.588   1.370   0.688  0.3207 -0.6190  0.4074
 6275TIP3    H140316   3.672   1.323   0.684  0.8915  0.4433 -0.9372
 6275TIP3    H240317   3.529   1.318   0.634  0.9898  0.1931 -1.1962
 6276TIP3   OH240318   0.738   6.249  16.039  0.1600 -0.0048  0.2901
 6276TIP3    H140319   0.773   6.338  16.038 -3.8268  1.9195  3.4797
 6276TIP3    H240320   0.686   6.243  15.959  1.8714 -0.2480 -0.8524
 6277TIP3   OH240321   0.088   0.744   4.294 -0.0291  0.2285  0.6127
 6277TIP3    H140322   0.071   0.739   4.200 -0.6972 -0.9884  0.7655
 6277TIP3    H240323   0.001   0.751   4.334  0.0280 -1.7647  1.2255
 6278TIP3   OH240324   4.815   1.455  14.541  0.0714  0.0662  0.3452
 6278TIP3    H140325   4.801   1.364  14.568  1.1006  0.0456  0.8364
 6278TIP3    H240326   4.834   1.450  14.448  1.0858 -0.3274  0.5609
 6279TIP3   OH240327   5.361   2.453   2.280  0.2788  0.1993 -0.2011
 6279TIP3    H140328   5.291   2.425   2.338 -0.2356  2.0365  0.0994
 6279TIP3    H240329   5.404   2.371   2.254 -1.3452 -0.8843  0.3716
 6280TIP3   OH240330   2.497   5.808  13.187 -0.1511  0.3616  0.3761
 6280TIP3    H140331   2.524   5.835  13.275  1.1240 -2.1277  0.8491
 6280TIP3    H240332   2.439   5.733  13.202 -0.3477  0.2310 -0.9125
 6281TIP3   OH240333   0.713   3.254   5.177 -0.7858 -0.6810 -0.1365
 6281TIP3    H140334   0.631   3.235   5.132 -0.2766 -1.2991 -0.8359
 6281TIP3    H240335   0.731   3.175   5.228  0.7986 -1.7531 -2.2190
 6282TIP3   OH240336   1.550   1.263  12.598  0.4973  0.4138  0.2396
 6282TIP3    H140337   1.526   1.198  12.663 -1.4591 -0.5655 -1.3334
 6282TIP3    H240338   1.579   1.212  12.522  0.3165  1.4004 -0.5190
 6283TIP3   OH240339   3.186   3.275  13.283 -0.0364 -0.1252 -0.1468
 6283TIP3    H140340   3.224   3.357  13.251 -0.8001 -0.4573 -2.0325
 6283TIP3    H240341   3.225   3.207  13.227  0.4433 -1.0441  1.2641
 6284TIP3   OH240342   6.478   0.023   1.361  0.3307  0.6677 -0.1445
 6284TIP3    H140343   6.440  -0.037   1.425 -0.1906  1.3288  0.1721
 6284TIP3    H240344   6.431   0.004   1.279 -1.1410  1.8921  0.3804
 6285TIP3   OH240345   4.832   0.826   2.317  0.0376  0.1707  0.1629
 6285TIP3    H140346   4.904   0.802   2.376  0.7421  0.0842 -0.7201
 6285TIP3    H240347   4.830   0.922   2.322 -2.5936  0.1109  3.4654
 6286TIP3   OH240348   0.408   1.960  12.541  0.2321 -0.3765 -0.4569
 6286TIP3    H140349   0.406   1.921  12.628 -0.8912 -1.6194 -0.9892
 6286TIP3    H240350   0.358   1.898  12.487  1.5218 -0.0077 -2.1339
 6287TIP3   OH240351   5.116   2.071   6.169 -0.3915 -0.0894 -0.3631
 6287TIP3    H140352   5.027   2.063   6.205  0.7519 -1.7640  2.4701
 6287TIP3    H240353   5.110   2.033   6.082 -2.2649 -1.1652  0.1731
 6288TIP3   OH240354   5.951   2.518   4.889 -0.2142  0.3154 -0.6526
 6288TIP3    H140355   5.862   2.553   4.899 -0.3919 -0.6772  2.7967
 6288TIP3    H240356   5.938   2.425   4.874  0.2812  0.3646 -1.4366
 6289TIP3   OH240357   4.743   6.243   4.442  0.2710 -0.3903  0.2940
 6289TIP3    H140358   4.754   6.213   4.352 -0.2942  0.5125 -0.0821
 6289TIP3    H240359   4.661   6.204   4.470 -0.0179  0.0717  0.1021
 6290TIP3   OH240360   4.252   5.885   3.242 -0.7322 -0.0211 -0.2861
 6290TIP3    H140361   4.292   5.971   3.231  1.2822 -0.6280  1.5463
 6290TIP3    H240362   4.246   5.850   3.154 -0.7609  1.6110 -0.9777
 6291TIP3   OH240363   4.918   3.157   3.007 -0.6634  0.4838  0.2296
 6291TIP3    H140364   4.941   3.219   3.076 -1.0052 -0.3999  1.1531
 6291TIP3    H240365   4.902   3.213   2.930  0.0869  1.4511  0.7383
 6292TIP3   OH240366   2.179   4.141  12.130 -0.6487  0.0059 -0.2308
 6292TIP3    H140367   2.203   4.204  12.062  0.3267 -0.6348 -0.4943
 6292TIP3    H240368   2.226   4.171  12.208 -1.0943  0.2486 -0.0478
 6293TIP3   OH240369   0.884   6.342  15.619 -0.1762  0.3506 -0.1279
 6293TIP3    H140370   0.952   6.406  15.639 -1.2758  1.8664 -1.0306
 6293TIP3    H240371   0.802   6.389  15.631 -1.0282 -0.8911 -0.8114
 6294TIP3   OH240372   2.505   3.740   5.239  0.3929  0.1269  0.3689
 6294TIP3    H140373   2.582   3.713   5.289 -0.8085 -1.0634  1.6889
 6294TIP3    H240374   2.482   3.664   5.185  0.4317  0.6514 -0.4037
 6295TIP3   OH240375   2.085   2.767   2.860 -0.4649  0.4013 -0.3348
 6295TIP3    H140376   2.167   2.815   2.863 -1.8438  3.0797 -1.7073
 6295TIP3    H240377   2.045   2.782   2.946  0.4954 -1.1285  0.4354
 6296TIP3   OH240378   1.142   3.532  12.426  0.0551  0.8325 -0.7915
 6296TIP3    H140379   1.117   3.459  12.370 -0.6919  0.1243  0.4332
 6296TIP3    H240380   1.238   3.530  12.427  0.0281 -0.5835 -0.1892
 6297TIP3   OH240381   2.613   1.341   2.052  0.2055  0.2608 -0.4033
 6297TIP3    H140382   2.539   1.396   2.077 -1.9317 -1.8964 -1.5407
 6297TIP3    H240383   2.638   1.295   2.133  0.3176  0.9801 -0.0225
 6298TIP3   OH240384   3.553   2.097   0.635  0.0687 -0.1356  0.7513
 6298TIP3    H140385   3.462   2.108   0.609 -0.3454 -0.7399  1.8973
 6298TIP3    H240386   3.603   2.113   0.555 -1.0544 -0.1139  0.0386
 6299TIP3   OH240387   4.009   3.820   3.512 -0.2030 -0.1810 -0.4730
 6299TIP3    H140388   3.954   3.790   3.440  0.2697  0.4661 -1.1197
 6299TIP3    H240389   3.978   3.771   3.588 -3.0767  1.5917 -0.3532
 6300TIP3   OH240390   1.839   3.230   5.263 -0.1104 -0.2424 -0.0539
 6300TIP3    H140391   1.786   3.260   5.337  0.6607  1.3366 -0.0893
 6300TIP3    H240392   1.789   3.257   5.186 -0.1963 -0.5357 -0.1011
 6301TIP3   OH240393   1.506   0.762  11.193 -0.1188  0.1018  0.4720
 6301TIP3    H140394   1.430   0.704  11.190  1.4138 -1.9669 -0.7989
 6301TIP3    H240395   1.572   0.713  11.242  0.9917  1.0796  0.0022
 6302TIP3   OH240396   6.197   2.465  16.298 -0.1004  0.5040 -0.4874
 6302TIP3    H140397   6.135   2.393  16.289 -0.5071  0.7935 -0.0372
 6302TIP3    H240398   6.257   2.437  16.368 -0.0278  0.4392 -0.5747
 6303TIP3   OH240399   0.024   1.178  13.364 -0.0977 -0.4337 -0.0933
 6303TIP3    H140400  -0.043   1.245  13.348 -1.8510 -1.8447  1.0261
 6303TIP3    H240401   0.057   1.198  13.452  2.0321  1.0707 -1.1435
 6304TIP3   OH240402   2.260   3.537  14.007  0.1584  0.0561 -0.1105
 6304TIP3    H140403   2.300   3.557  14.091  2.3800 -1.1136 -0.8211
 6304TIP3    H240404   2.245   3.443  14.008  0.3291  0.0047 -1.0756
 6305TIP3   OH240405   0.900   3.280  11.543  0.4343 -0.7818 -0.4030
 6305TIP3    H140406   0.944   3.303  11.461  0.4388 -2.3499 -0.8830
 6305TIP3    H240407   0.969   3.246  11.599  0.5696  1.0142  0.5938
 6306TIP3   OH240408   4.722   4.409   3.171  0.5506  0.2418 -0.1058
 6306TIP3    H140409   4.816   4.396   3.181  0.5007 -0.5804 -0.6192
 6306TIP3    H240410   4.712   4.504   3.161  1.0395  0.6586  2.6452
 6307TIP3   OH240411   3.413   0.678   2.171 -0.4448  0.6457  0.1019
 6307TIP3    H140412   3.325   0.697   2.139 -0.4487  0.2030 -0.1541
 6307TIP3    H240413   3.437   0.755   2.222 -0.8957  0.8599 -0.0064
 6308TIP3   OH240414   5.946   3.832   1.897 -0.1171  0.0674  0.9143
 6308TIP3    H140415   5.973   3.740   1.896 -0.6956 -0.1185  1.6350
 6308TIP3    H240416   5.854   3.830   1.925 -0.6670  0.7416 -0.7113
 6309TIP3   OH240417   3.125   2.510   2.019 -0.0200 -0.1077 -0.2322
 6309TIP3    H140418   3.118   2.441   2.085 -3.4319 -0.0701 -0.3791
 6309TIP3    H240419   3.135   2.463   1.936 -0.0238 -0.3119 -0.1190
 6310TIP3   OH240420   5.117   6.812   0.106  0.7864  0.0079 -0.2622
 6310TIP3    H140421   5.111   6.870   0.182  1.6060 -0.7247  0.3801
 6310TIP3    H240422   5.080   6.864   0.034 -2.1047 -0.1191  1.0298
 6311TIP3   OH240423   3.620   0.265  15.597 -0.1790 -0.4109  0.0013
 6311TIP3    H140424   3.547   0.216  15.561  0.5143 -0.5787 -1.2221
 6311TIP3    H240425   3.673   0.289  15.521  1.6401 -1.2841  0.9136
 6312TIP3   OH240426   4.732   4.299   3.718  0.0153 -0.2271 -0.4416
 6312TIP3    H140427   4.660   4.314   3.656  0.8675  2.2583 -0.9697
 6312TIP3    H240428   4.811   4.324   3.670  0.9064  0.0004  1.0681
 6313TIP3   OH240429   5.374   4.303   0.951  0.3868  0.2927 -0.6123
 6313TIP3    H140430   5.426   4.360   0.895  1.9308 -0.8069 -0.3788
 6313TIP3    H240431   5.412   4.314   1.038  0.1015 -0.3885 -0.3920
 6314TIP3   OH240432   3.288   1.827   1.279  0.1304  0.0463 -0.2603
 6314TIP3    H140433   3.315   1.769   1.350 -3.9732 -1.5033  0.2905
 6314TIP3    H240434   3.269   1.769   1.206  0.6570  1.2809 -1.4261
 6315TIP3   OH240435   5.872   4.610   2.559 -0.2288  0.1603  0.1283
 6315TIP3    H140436   5.879   4.634   2.466  2.2925  0.5678  0.3456
 6315TIP3    H240437   5.880   4.694   2.606 -0.9551 -0.1006  0.7410
 6316TIP3   OH240438   3.857   0.889  16.861  0.1971  0.5307  0.5281
 6316TIP3    H140439   3.770   0.875  16.900  0.0045  0.7349  0.1806
 6316TIP3    H240440   3.856   0.836  16.781  0.7314 -0.1964  0.9854
 6317TIP3   OH240441   4.401   0.899  12.905  0.1979 -0.4477  0.0236
 6317TIP3    H140442   4.372   0.940  12.987 -2.2255 -1.8035 -0.0713
 6317TIP3    H240443   4.456   0.826  12.933  0.6423  0.0061  0.3598
 6318TIP3   OH240444   0.577   1.232   2.561 -0.5239  0.5671  0.1322
 6318TIP3    H140445   0.646   1.182   2.605 -0.5714  0.7051  0.3634
 6318TIP3    H240446   0.615   1.256   2.476  0.4281  2.2803  0.9978
 6319TIP3   OH240447   3.111   0.756   2.538  0.0196  0.5197  0.5594
 6319TIP3    H140448   3.076   0.762   2.449 -0.9852  0.2580  0.9303
 6319TIP3    H240449   3.199   0.720   2.526  0.1061  0.9896 -0.3673
 6320TIP3   OH240450   0.487   1.737  15.402  0.5618 -0.4592  0.0624
 6320TIP3    H140451   0.566   1.740  15.456 -0.0116 -0.8383  0.9458
 6320TIP3    H240452   0.510   1.678  15.330  2.6041  2.8630 -2.3053
 6321TIP3   OH240453   6.367   4.613   2.388  0.2305 -0.1158 -0.3151
 6321TIP3    H140454   6.379   4.666   2.310  1.1893  1.2835  0.7505
 6321TIP3    H240455   6.272   4.607   2.399  0.0912  1.8090 -0.2004
 6322TIP3   OH240456   4.528   4.977   0.588  1.0487 -0.0553  0.1663
 6322TIP3    H140457   4.529   5.019   0.674 -0.7200 -1.2796  0.8408
 6322TIP3    H240458   4.494   5.043   0.528  0.1642  0.1075  0.8392
 6323TIP3   OH240459   0.736   2.103  11.855 -0.8530  0.5511  0.0951
 6323TIP3    H140460   0.723   2.038  11.786 -0.0827  1.2160 -0.7029
 6323TIP3    H240461   0.651   2.108  11.899 -1.5112  0.4434 -1.1033
 6324TIP3   OH240462   4.179   5.029  11.779 -0.1635 -0.2888  0.0858
 6324TIP3    H140463   4.260   5.041  11.730  0.0022 -0.1275  0.4018
 6324TIP3    H240464   4.174   4.934  11.793 -0.4471 -0.3926 -0.6401
 6325TIP3   OH240465   5.290   4.241  13.261 -0.7035  0.2195  0.1344
 6325TIP3    H140466   5.294   4.323  13.211  1.5422 -0.9001 -1.7104
 6325TIP3    H240467   5.217   4.192  13.221 -0.2520  0.1967 -0.6942
 6326TIP3   OH240468   4.751   2.824  16.601 -0.3027  0.0069 -0.0802
 6326TIP3    H140469   4.705   2.754  16.554  0.6674  0.1285 -1.2615
 6326TIP3    H240470   4.821   2.779  16.647  0.7401  0.2389 -1.3813
 6327TIP3   OH240471   1.751   0.883  17.218 -0.1664  0.3011  0.3379
 6327TIP3    H140472   1.707   0.933  17.286  1.7921  1.0215  1.1308
 6327TIP3    H240473   1.734   0.792  17.240 -2.3523  0.5228 -0.1684
 6328TIP3   OH240474   4.864   2.283   3.103  0.2276  0.1447  0.8601
 6328TIP3    H140475   4.843   2.285   3.010  2.1952 -0.0447  0.3663
 6328TIP3    H240476   4.842   2.194   3.131  0.5149 -0.0861  0.3528
 6329TIP3   OH240477   6.248   1.186  16.100  0.4200  0.1078 -0.1654
 6329TIP3    H140478   6.336   1.202  16.066  0.7797  1.3262  1.2055
 6329TIP3    H240479   6.197   1.263  16.072  0.7774  1.2454  2.0533
 6330TIP3   OH240480   2.243   2.042  14.110  0.5395  0.0041 -0.4433
 6330TIP3    H140481   2.212   2.043  14.201  0.1088 -1.3487 -0.5621
 6330TIP3    H240482   2.296   2.121  14.103  0.9047 -0.0688  1.0962
 6331TIP3   OH240483   4.874   5.493  16.760 -0.2771  0.0410 -0.2077
 6331TIP3    H140484   4.805   5.494  16.826 -0.8072 -0.2044 -0.7539
 6331TIP3    H240485   4.842   5.433  16.693  0.9978 -1.0390  0.1091
 6332TIP3   OH240486   1.293   0.263   1.526 -0.3249 -0.0150 -0.6083
 6332TIP3    H140487   1.225   0.206   1.489 -1.4004  0.5425  0.4610
 6332TIP3    H240488   1.246   0.341   1.555  0.6475  0.0452  0.8999
 6333TIP3   OH240489   5.476   1.664   5.298  0.3791  0.0249 -0.2039
 6333TIP3    H140490   5.424   1.606   5.243 -0.1052  0.7613 -0.5378
 6333TIP3    H240491   5.513   1.606   5.366 -0.8566 -0.5183  0.0323
 6334TIP3   OH240492   6.397   4.001  12.314  0.5044 -0.0797  0.0739
 6334TIP3    H140493   6.485   3.982  12.346 -0.0300 -0.2029  1.5517
 6334TIP3    H240494   6.387   3.945  12.237  2.0757  0.7163 -0.7572
 6335TIP3   OH240495   4.963   5.027   2.536 -0.4019  0.4056 -0.1028
 6335TIP3    H140496   4.873   5.048   2.560 -0.0972  0.7054  0.8241
 6335TIP3    H240497   4.961   4.934   2.514 -0.8076  0.2532  0.5616
 6336TIP3   OH240498   3.027   6.672   4.657  0.1708 -0.2371 -0.1191
 6336TIP3    H140499   2.971   6.687   4.733 -1.6005 -1.2243 -1.1558
 6336TIP3    H240500   2.997   6.736   4.592 -0.3842 -1.3588 -0.9934
 6337TIP3   OH240501   2.917   2.368  16.280 -0.4166 -0.0391  0.5985
 6337TIP3    H140502   2.856   2.311  16.327 -0.1610 -0.0936  0.8607
 6337TIP3    H240503   2.869   2.393  16.200 -0.9659  0.2959  1.0266
 6338TIP3   OH240504   2.483   5.779   4.396 -0.3910  0.5744  0.0819
 6338TIP3    H140505   2.473   5.773   4.301  2.0043  1.6058 -0.2904
 6338TIP3    H240506   2.433   5.705   4.430 -0.9763 -0.0399 -1.9938
 6339TIP3   OH240507   2.300   1.225  15.334  0.4421 -0.1555  0.2183
 6339TIP3    H140508   2.224   1.211  15.390  1.0973  0.3516  1.2663
 6339TIP3    H240509   2.321   1.318  15.344 -0.1606  0.2507 -1.8577
 6340TIP3   OH240510   5.320   4.929   0.038 -0.5247  0.7304 -0.3859
 6340TIP3    H140511   5.310   4.886   0.123  1.2466 -0.9960 -0.9548
 6340TIP3    H240512   5.317   5.022   0.058 -1.8980  0.3846  1.3055
 6341TIP3   OH240513   4.970   5.108  14.889  0.1646 -0.2016 -0.2292
 6341TIP3    H140514   4.921   5.183  14.855 -0.8606  0.1946  1.9440
 6341TIP3    H240515   4.939   5.097  14.979  2.1650 -1.6385  0.3742
 6342TIP3   OH240516   0.828   6.153   0.265 -0.8941  0.5667 -0.2989
 6342TIP3    H140517   0.851   6.227   0.209 -0.0305  0.8817  0.4398
 6342TIP3    H240518   0.912   6.109   0.283 -0.8356  1.4703  2.0862
 6343TIP3   OH240519   2.985   6.569   0.833  0.0599  0.2570 -0.3434
 6343TIP3    H140520   2.910   6.628   0.835  0.5650  0.8946  0.0005
 6343TIP3    H240521   3.059   6.622   0.862  0.5290 -0.5354 -0.0366
 6344TIP3   OH240522   3.763   4.149  15.794 -0.0199  0.4044  0.4377
 6344TIP3    H140523   3.846   4.196  15.784  0.6331 -0.4750  1.4712
 6344TIP3    H240524   3.696   4.217  15.790  0.4904  0.8928 -3.1041
 6345TIP3   OH240525   6.562   0.593   0.809 -1.0231 -0.4885  0.1640
 6345TIP3    H140526   6.555   0.579   0.715 -0.6543  4.4923 -0.8926
 6345TIP3    H240527   6.471   0.598   0.839 -1.1896 -4.1116  0.6745
 6346TIP3   OH240528   1.108   5.473  10.386  0.2962 -0.4878 -0.0762
 6346TIP3    H140529   1.112   5.563  10.420 -0.0075 -0.0102 -1.2533
 6346TIP3    H240530   1.042   5.477  10.317  1.1565 -1.3362 -0.9704
 6347TIP3   OH240531   0.554   2.464   5.796 -0.3357 -0.1287 -0.2643
 6347TIP3    H140532   0.617   2.429   5.859 -0.7722 -1.1237 -0.3550
 6347TIP3    H240533   0.471   2.463   5.843 -0.2919  1.2386 -0.1235
 6348TIP3   OH240534   5.498   3.243  14.663  0.9900 -0.0308 -0.6890
 6348TIP3    H140535   5.540   3.322  14.628  0.0764  0.8165  0.0672
 6348TIP3    H240536   5.412   3.273  14.694 -0.1407 -1.6744 -2.0369
 6349TIP3   OH240537   0.342   1.490  14.780  0.2774 -0.0206  0.0127
 6349TIP3    H140538   0.288   1.433  14.835 -1.1593  1.3849  0.1486
 6349TIP3    H240539   0.415   1.436  14.753 -0.6626 -1.7033  0.7050
 6350TIP3   OH240540   2.068   6.762   0.286 -0.2890  0.6411 -0.0483
 6350TIP3    H140541   2.113   6.833   0.330  1.3685 -1.0229  1.1020
 6350TIP3    H240542   2.100   6.765   0.196  0.3306  0.9086  0.1798
 6351TIP3   OH240543   0.369   2.714   3.118  0.1836 -0.8375  0.2450
 6351TIP3    H140544   0.401   2.777   3.184  1.2753  0.8936 -1.8208
 6351TIP3    H240545   0.281   2.747   3.096  0.9987  0.4235 -1.2911
 6352TIP3   OH240546   3.923   6.454   0.219  0.0740  0.7196  0.6876
 6352TIP3    H140547   3.958   6.377   0.174 -0.0275  0.1639  1.5529
 6352TIP3    H240548   3.902   6.424   0.307 -2.5761  1.0114  0.2453
 6353TIP3   OH240549   5.928   0.708  11.502 -0.2086  0.2969  0.1582
 6353TIP3    H140550   6.003   0.696  11.560 -0.5115  0.7073  0.6467
 6353TIP3    H240551   5.884   0.624  11.502 -0.7306  0.5511  1.2887
 6354TIP3   OH240552   3.476   2.055   1.064 -0.3164  0.1998  0.3268
 6354TIP3    H140553   3.384   2.036   1.043 -0.0253 -0.8453 -0.0903
 6354TIP3    H240554   3.482   2.043   1.159 -0.3628 -0.9208  0.2008
 6355TIP3   OH240555   0.921   6.095   5.269 -0.5006 -0.0639 -0.4425
 6355TIP3    H140556   0.906   6.189   5.260 -0.0941 -0.0726 -1.3228
 6355TIP3    H240557   0.977   6.072   5.195 -0.2667 -0.9310 -0.0181
 6356TIP3   OH240558   0.947   4.203  11.936  0.4647 -0.1416  0.1802
 6356TIP3    H140559   0.998   4.197  11.856 -0.1735 -0.3448 -0.2189
 6356TIP3    H240560   1.011   4.190  12.006  1.1396  0.6749 -0.2567
 6357TIP3   OH240561   0.494   6.494  13.077  0.3306 -0.1771 -0.0604
 6357TIP3    H140562   0.518   6.430  13.144 -0.3428 -0.6352 -0.2492
 6357TIP3    H240563   0.428   6.450  13.024 -1.0546  1.0795  0.5333
 6358TIP3   OH240564   4.518   5.390   1.893 -0.0426  0.2643  0.1443
 6358TIP3    H140565   4.588   5.341   1.936  0.9011  1.8364  0.4878
 6358TIP3    H240566   4.563   5.441   1.826 -1.1804 -0.3358 -1.1080
 6359TIP3   OH240567   4.921   0.761   6.053  0.7605 -0.3105 -0.2343
 6359TIP3    H140568   4.876   0.774   6.137  0.7203 -0.5570 -0.2178
 6359TIP3    H240569   5.008   0.799   6.067  0.0205  1.7275 -0.8058
 6360TIP3   OH240570   5.211   3.348   5.863 -0.0734 -0.7631  0.2704
 6360TIP3    H140571   5.269   3.344   5.787  1.0397 -3.5515  1.1299
 6360TIP3    H240572   5.206   3.441   5.884  0.8920 -0.0581 -2.2066
 6361TIP3   OH240573   6.203   2.546  11.708 -0.2657 -0.1539 -0.4434
 6361TIP3    H140574   6.259   2.603  11.655 -1.0201 -0.3949 -1.5226
 6361TIP3    H240575   6.219   2.458  11.674 -0.0870 -0.4446  0.3475
 6362TIP3   OH240576   3.357   2.997   5.936 -0.4381 -0.4360 -0.6234
 6362TIP3    H140577   3.407   2.924   5.973  1.7955  1.8269  1.1838
 6362TIP3    H240578   3.281   3.006   5.995  0.5263  0.0990  0.5936
 6363TIP3   OH240579   6.193   5.094   2.325 -0.3159  0.1254 -0.6225
 6363TIP3    H140580   6.283   5.064   2.336 -0.5046 -0.2060  0.1099
 6363TIP3    H240581   6.200   5.187   2.306  0.1876  0.0730 -0.6962
 6364TIP3   OH240582   5.313   5.149  14.193 -0.5358  0.6398  0.3114
 6364TIP3    H140583   5.347   5.146  14.104 -2.2247 -1.5553 -0.3861
 6364TIP3    H240584   5.237   5.206  14.188 -1.6141 -0.7595 -0.1368
 6365TIP3   OH240585   5.108   0.385  15.185 -0.1123 -0.7689  0.3590
 6365TIP3    H140586   5.088   0.328  15.259  0.7023  0.5133  1.6220
 6365TIP3    H240587   5.189   0.429  15.210 -0.3665  0.4566 -0.8486
 6366TIP3   OH240588   3.965   0.605   2.743 -0.7016 -0.5637 -0.1820
 6366TIP3    H140589   3.949   0.699   2.733 -0.3205 -0.5586 -0.8166
 6366TIP3    H240590   4.046   0.599   2.793 -0.1660 -0.5280 -1.0122
 6367TIP3   OH240591   3.400   5.303   6.851 -0.6562 -0.3192  0.2309
 6367TIP3    H140592   3.321   5.279   6.900 -0.9021  1.2647  0.6894
 6367TIP3    H240593   3.381   5.391   6.818 -0.1878 -1.0299 -2.1172
 6368TIP3   OH240594   5.994   3.634   3.612  0.4796 -0.6920  0.1361
 6368TIP3    H140595   6.061   3.634   3.681 -0.0581 -2.1620  0.6930
 6368TIP3    H240596   5.915   3.664   3.656 -0.1140 -2.6166  0.4615
 6369TIP3   OH240597   2.065   2.843   5.450  0.4269  0.6461  0.5805
 6369TIP3    H140598   2.013   2.876   5.376  1.3292  2.7562  0.7936
 6369TIP3    H240599   2.155   2.846   5.419  0.6214 -0.9391  0.9309
 6370TIP3   OH240600   0.663   0.160  12.649  0.2764  0.7737 -0.5924
 6370TIP3    H140601   0.644   0.079  12.603 -0.3870  0.2018  0.6263
 6370TIP3    H240602   0.580   0.208  12.648 -0.9740 -0.9367  3.2040
 6371TIP3   OH240603   0.008   0.914  16.995 -0.3572 -0.4543 -0.3091
 6371TIP3    H140604  -0.084   0.897  16.973 -0.6148  1.5591 -1.0146
 6371TIP3    H240605   0.004   0.972  17.071  0.4023 -1.8133  0.8036
 6372TIP3   OH240606   2.962   6.284  16.399 -0.4784  0.2509 -0.4518
 6372TIP3    H140607   2.951   6.222  16.471  1.4978  1.1793  0.7315
 6372TIP3    H240608   2.986   6.366  16.442 -0.0282  1.0543 -2.1465
 6373TIP3   OH240609   0.882   5.904  12.361  0.4513 -0.4935  0.5237
 6373TIP3    H140610   0.859   5.835  12.424 -0.4251  0.8476  1.7215
 6373TIP3    H240611   0.911   5.856  12.283  0.5340 -2.2096  1.5591
 6374TIP3   OH240612   5.986   1.468   3.010 -0.1015  0.4462  0.1774
 6374TIP3    H140613   5.996   1.396   3.072  1.0795 -0.4575 -1.0132
 6374TIP3    H240614   6.059   1.527   3.031 -0.0314  0.4185  0.0097
 6375TIP3   OH240615   2.639   6.531   6.007 -0.4030 -0.1534 -0.1794
 6375TIP3    H140616   2.596   6.462   6.058 -1.7682  1.1787  0.5815
 6375TIP3    H240617   2.567   6.587   5.977  0.7229  1.9267  0.7622
 6376TIP3   OH240618   0.299   6.281   0.690 -0.0721  0.4211 -0.7770
 6376TIP3    H140619   0.335   6.368   0.706 -0.7358  0.3769  1.2622
 6376TIP3    H240620   0.288   6.276   0.595  1.4341  1.9516 -1.0692
 6377TIP3   OH240621   3.135   0.620  15.342 -0.0256  0.3927  0.0178
 6377TIP3    H140622   3.183   0.537  15.353  1.8910  1.0020 -2.7823
 6377TIP3    H240623   3.085   0.609  15.261 -2.9098  0.6757  1.6206
 6378TIP3   OH240624   2.437   0.724   3.433 -0.0170  0.3813  0.3233
 6378TIP3    H140625   2.385   0.793   3.393 -0.3886 -0.2459 -0.2960
 6378TIP3    H240626   2.521   0.766   3.454 -0.1540  0.9581 -0.2628
 6379TIP3   OH240627   4.142   4.604   0.382  0.2468 -0.2063 -0.2753
 6379TIP3    H140628   4.223   4.631   0.425  0.1518 -0.6920  0.2047
 6379TIP3    H240629   4.093   4.686   0.369 -0.0677 -0.1321  1.2243
 6380TIP3   OH240630   0.999   0.856   3.191 -0.2286  0.8805  0.3111
 6380TIP3    H140631   0.954   0.923   3.242  0.0014  1.0699  0.2657
 6380TIP3    H240632   1.026   0.790   3.255 -1.5655  0.1882  0.2111
 6381TIP3   OH240633   2.450   2.770  14.973  0.2823  0.8457  0.0509
 6381TIP3    H140634   2.366   2.814  14.987  0.3175  1.6688 -1.9435
 6381TIP3    H240635   2.486   2.758  15.060 -2.3182 -0.3978  1.0483
 6382TIP3   OH240636   0.417   5.708   1.405 -0.1046 -0.1617  0.1607
 6382TIP3    H140637   0.502   5.666   1.393  0.0017  0.4710 -1.6191
 6382TIP3    H240638   0.401   5.754   1.322 -1.4701  1.0211  1.0359
 6383TIP3   OH240639   2.909   2.298  11.443 -0.1871 -0.1363 -0.1016
 6383TIP3    H140640   2.930   2.241  11.516  1.1114  0.3648 -0.0646
 6383TIP3    H240641   2.991   2.308  11.395 -0.2835  1.9368  0.0725
 6384TIP3   OH240642   2.074   1.547   2.628 -0.6976 -0.1518 -0.0981
 6384TIP3    H140643   2.058   1.622   2.686 -1.4919 -0.1712 -0.2757
 6384TIP3    H240644   2.045   1.471   2.678  2.6921 -0.7463  1.2121
 6385TIP3   OH240645   5.473   1.674  16.106  0.5084 -0.0344 -0.4321
 6385TIP3    H140646   5.458   1.621  16.185  0.8588  0.5871  0.0664
 6385TIP3    H240647   5.423   1.754  16.121  0.1927 -0.1060 -1.0635
 6386TIP3   OH240648   5.565   6.634  12.672  0.6926  0.0952  0.1080
 6386TIP3    H140649   5.518   6.687  12.608 -1.0382 -0.1720  1.0910
 6386TIP3    H240650   5.651   6.618  12.633  0.5572  1.9793 -1.0431
 6387TIP3   OH240651   6.778   3.893   3.996  0.0842 -0.2849  0.7028
 6387TIP3    H140652   6.765   3.802   4.023  2.2794 -1.1519 -0.8248
 6387TIP3    H240653   6.871   3.897   3.972 -0.6742  1.3857 -2.5446
 6388TIP3   OH240654   1.188   1.794   5.534 -0.0158  0.1270 -0.9557
 6388TIP3    H140655   1.107   1.791   5.584  0.4335  1.3553 -0.1012
 6388TIP3    H240656   1.165   1.757   5.449 -1.2801 -0.2282 -0.4812
 6389TIP3   OH240657   0.018   1.335   4.554  0.0758  0.3035 -0.4478
 6389TIP3    H140658  -0.040   1.399   4.512 -1.0808 -0.9941 -0.9151
 6389TIP3    H240659   0.090   1.323   4.492  0.3369  1.1743 -0.3251
 6390TIP3   OH240660   2.306   5.444   5.738  0.0960 -0.2400 -0.0939
 6390TIP3    H140661   2.356   5.521   5.767 -0.9585  1.3621 -2.2790
 6390TIP3    H240662   2.238   5.479   5.681  0.7832 -2.9177 -2.8285
 6391TIP3   OH240663   3.534   0.035   5.420  0.3611 -0.4672  0.2754
 6391TIP3    H140664   3.591  -0.016   5.477  3.1825 -0.3708 -2.1965
 6391TIP3    H240665   3.487  -0.030   5.368  1.2153 -0.5948 -0.3614
 6392TIP3   OH240666   0.616   3.504   0.579  0.3378  0.7554  0.0288
 6392TIP3    H140667   0.648   3.426   0.624 -0.2367 -0.7146 -1.9785
 6392TIP3    H240668   0.684   3.524   0.515  0.7370  2.2786  0.8882
 6393TIP3   OH240669   3.652   3.194   5.707 -0.4189 -0.0860 -0.3800
 6393TIP3    H140670   3.676   3.111   5.667 -0.6249 -0.1898 -0.2915
 6393TIP3    H240671   3.558   3.203   5.690 -0.7014 -0.5571  0.8219
 6394TIP3   OH240672   3.033   2.302   0.556 -0.2919 -0.4807 -0.1516
 6394TIP3    H140673   3.076   2.388   0.550 -0.9916 -0.1054  0.1390
 6394TIP3    H240674   2.962   2.315   0.618 -0.3816 -1.2871 -0.0796
 6395TIP3   OH240675   4.725   3.848   4.307 -0.4597 -0.8443  0.0301
 6395TIP3    H140676   4.738   3.941   4.324 -1.4307 -0.3943 -1.4298
 6395TIP3    H240677   4.669   3.846   4.229  1.3426 -2.6482 -1.3369
 6396TIP3   OH240678   3.132   5.140   4.202  0.4441  0.0628  0.2072
 6396TIP3    H140679   3.114   5.135   4.108  2.5558 -0.0199 -0.2533
 6396TIP3    H240680   3.177   5.225   4.213  3.1712 -1.3035  0.4992
 6397TIP3   OH240681   4.470   2.708   6.332  0.1110 -0.1085  0.0225
 6397TIP3    H140682   4.422   2.790   6.320  0.2504 -0.0535 -0.1792
 6397TIP3    H240683   4.559   2.728   6.302  0.3571 -0.1058  0.7318
 6398TIP3   OH240684   5.612   2.668  13.166 -0.3063  0.0878 -0.2193
 6398TIP3    H140685   5.662   2.742  13.133  0.3920 -1.3883 -2.7339
 6398TIP3    H240686   5.660   2.638  13.243  2.8470 -1.2567 -2.4965
 6399TIP3   OH240687   1.719   0.255   4.453  0.2156 -0.1395  0.0706
 6399TIP3    H140688   1.781   0.216   4.514 -0.4841  0.5704  1.2879
 6399TIP3    H240689   1.708   0.190   4.384  2.6860 -0.0627 -0.4738
 6400TIP3   OH240690   5.669   0.339   5.229 -0.1460 -0.4654 -1.1367
 6400TIP3    H140691   5.600   0.284   5.192  0.6136 -0.6139 -2.3823
 6400TIP3    H240692   5.716   0.374   5.154  1.5827 -0.9362 -0.3424
 6401TIP3   OH240693   1.827   2.175   5.553  0.0890 -0.0209  0.0056
 6401TIP3    H140694   1.857   2.108   5.491 -1.7825 -0.0678 -0.9020
 6401TIP3    H240695   1.775   2.236   5.501 -0.2558  0.8145  1.2614
 6402TIP3   OH240696   4.537   3.769   4.663  0.4305 -0.2624  0.1244
 6402TIP3    H140697   4.458   3.787   4.713  0.5545  1.2557 -0.1738
 6402TIP3    H240698   4.590   3.849   4.672  0.3905  0.1477 -2.5194
 6403TIP3   OH240699   3.912   3.986   1.642 -0.2494  0.5357 -0.7812
 6403TIP3    H140700   3.835   3.974   1.587  0.3835  0.8298 -1.7390
 6403TIP3    H240701   3.879   4.032   1.719 -1.1545  0.0348 -0.8536
 6404TIP3   OH240702   0.756   5.041   2.342 -0.2752  0.5234  0.3177
 6404TIP3    H140703   0.830   4.981   2.353 -1.9188 -2.4696 -3.0147
 6404TIP3    H240704   0.793   5.117   2.297  1.0034 -0.2481  0.0211
 6405TIP3   OH240705   3.900   2.591   2.699 -0.7623 -0.0120 -0.3136
 6405TIP3    H140706   3.901   2.495   2.696 -0.5118  0.0163 -1.4339
 6405TIP3    H240707   3.982   2.615   2.743 -2.2449 -0.3497  2.9498
 6406TIP3   OH240708   5.360   1.601  14.280  0.6833 -0.1384  0.1421
 6406TIP3    H140709   5.314   1.675  14.319  1.0690  0.4740 -0.5273
 6406TIP3    H240710   5.399   1.555  14.354  2.2963  1.5892  0.4466
 6407TIP3   OH240711   3.626   5.171  17.005 -0.7777 -0.2203 -0.3205
 6407TIP3    H140712   3.556   5.119  16.965 -1.7634 -0.6067  1.7758
 6407TIP3    H240713   3.687   5.106  17.039 -0.9507  0.0123  0.4659
 6408TIP3   OH240714   2.945   0.688  12.800  0.0919 -0.3409 -0.2667
 6408TIP3    H140715   2.988   0.642  12.727  0.4629 -0.6137  0.1180
 6408TIP3    H240716   2.868   0.636  12.819  0.2469 -0.5288 -0.1550
 6409TIP3   OH240717   1.823   3.943  13.874  0.2820  0.3193  0.4276
 6409TIP3    H140718   1.765   3.975  13.804 -2.2911  0.1145  2.3086
 6409TIP3    H240719   1.903   3.917  13.829 -1.9091 -1.6689 -2.7666
 6410TIP3   OH240720   6.171   1.285   1.249 -0.1784  0.1760  0.1379
 6410TIP3    H140721   6.167   1.367   1.199 -0.2805  1.0536  1.5036
 6410TIP3    H240722   6.264   1.266   1.257 -0.0843  0.8853  0.8919
 6411TIP3   OH240723   0.902   3.371   3.671  0.0153 -0.0751 -0.4957
 6411TIP3    H140724   0.962   3.406   3.736  0.5848  0.4995 -1.3186
 6411TIP3    H240725   0.840   3.442   3.654  0.5862  0.1982 -1.4521
 6412TIP3   OH240726   4.938   1.675  11.132  0.0420 -0.6258 -0.2362
 6412TIP3    H140727   4.915   1.694  11.223 -1.3006 -0.1135 -0.6526
 6412TIP3    H240728   4.914   1.755  11.085 -0.7020 -1.4248 -1.2513
 6413TIP3   OH240729   3.502   1.447   3.686 -0.0733  0.0211  0.0920
 6413TIP3    H140730   3.566   1.489   3.628  1.2587  0.2703  1.6751
 6413TIP3    H240731   3.538   1.458   3.774 -2.3275  0.2023  1.0622
 6414TIP3   OH240732   4.544   5.030  13.068  0.2844  0.0429 -0.2099
 6414TIP3    H140733   4.549   5.033  12.972 -0.6387 -0.1896 -0.2760
 6414TIP3    H240734   4.450   5.024  13.087  0.5089 -1.3268  0.6608
 6415TIP3   OH240735   5.012   0.486  16.170 -0.3403  0.3489 -0.0586
 6415TIP3    H140736   5.079   0.552  16.182 -0.3505  0.5622 -1.1592
 6415TIP3    H240737   5.060   0.406  16.149 -0.4523  0.7332 -1.8770
 6416TIP3   OH240738   1.163   6.611  10.185 -0.3701 -0.1429 -0.4042
 6416TIP3    H140739   1.146   6.580  10.274 -1.2359 -0.0457 -0.5250
 6416TIP3    H240740   1.225   6.547  10.149  0.6825  0.2967  0.5405
 6417TIP3   OH240741   5.168   6.275   1.054 -0.5444  0.4307 -0.1443
 6417TIP3    H140742   5.251   6.319   1.037  0.2221 -0.8251  0.1696
 6417TIP3    H240743   5.104   6.325   1.004  0.4507  1.2379 -0.6654
 6418TIP3   OH240744   1.704   3.898   4.484  0.0500  0.1471 -0.2016
 6418TIP3    H140745   1.657   3.961   4.540  1.0953  0.0730  0.8100
 6418TIP3    H240746   1.796   3.925   4.490  0.3472 -0.6990 -0.7932
 6419TIP3   OH240747   1.183   5.320  11.792 -0.3625 -0.1764 -0.4101
 6419TIP3    H140748   1.210   5.357  11.876 -1.1792 -0.3665 -0.0514
 6419TIP3    H240749   1.263   5.287  11.753 -0.0101 -0.3013  0.4047
 6420TIP3   OH240750   0.422   2.370  15.851 -0.0093  0.3723 -0.1170
 6420TIP3    H140751   0.406   2.382  15.758 -0.0631  1.5363  0.0241
 6420TIP3    H240752   0.346   2.322  15.884  0.5219 -1.0244 -0.8542
 6421TIP3   OH240753   5.475   3.779  13.941 -0.2176  0.4902 -0.1637
 6421TIP3    H140754   5.571   3.779  13.945 -0.2477  0.0882  1.6210
 6421TIP3    H240755   5.452   3.689  13.918 -0.1740  0.2167  0.8250
 6422TIP3   OH240756   3.649   5.721   5.487  0.0243  0.0608  0.2045
 6422TIP3    H140757   3.656   5.628   5.511  0.8163 -0.0033 -0.2560
 6422TIP3    H240758   3.730   5.760   5.520 -0.7620  0.8067  1.3192
 6423TIP3   OH240759   5.822   5.918   2.870 -0.0053  0.6865 -0.2953
 6423TIP3    H140760   5.743   5.893   2.918  0.5865  0.1720  0.4343
 6423TIP3    H240761   5.799   6.002   2.829 -1.6572 -0.4807 -1.9150
 6424TIP3   OH240762   3.143   2.572   0.471  0.8297 -0.2589  0.0030
 6424TIP3    H140763   3.070   2.629   0.493  1.5908 -0.0100  2.1199
 6424TIP3    H240764   3.167   2.596   0.382 -1.4512 -0.1494 -0.6349
 6425TIP3   OH240765   3.736   5.179   1.586  0.1543  0.5615 -0.2330
 6425TIP3    H140766   3.757   5.133   1.504 -0.1545 -2.0279  1.0364
 6425TIP3    H240767   3.755   5.115   1.654  0.6332  2.7279  1.7823
 6426TIP3   OH240768   2.380   0.667   3.704 -0.4996 -0.1686 -0.8388
 6426TIP3    H140769   2.397   0.677   3.610 -0.9325  2.0873 -0.7276
 6426TIP3    H240770   2.458   0.623   3.738  1.4070  2.3246 -1.6938
 6427TIP3   OH240771   5.062   6.335   4.959 -0.3166 -0.9438  0.2203
 6427TIP3    H140772   5.113   6.373   5.030 -0.6526 -3.3759  1.8896
 6427TIP3    H240773   4.978   6.381   4.961  0.2946  0.2086  0.1999
 6428TIP3   OH240774   5.666   4.649  15.729  0.0266  0.3901  0.0218
 6428TIP3    H140775   5.630   4.562  15.748  2.2555 -0.8591 -1.0703
 6428TIP3    H240776   5.695   4.682  15.815  0.6027 -0.6611  0.2504
 6429TIP3   OH240777   0.654   6.536   5.135 -0.0090 -0.0613  0.4841
 6429TIP3    H140778   0.608   6.574   5.210 -0.5603  0.9922 -0.3546
 6429TIP3    H240779   0.613   6.577   5.059  1.3141 -0.2355 -0.3489
 6430TIP3   OH240780   0.433   6.713   0.254  0.7179  0.3317 -0.2387
 6430TIP3    H140781   0.347   6.726   0.214  2.0344 -0.3863 -3.6172
 6430TIP3    H240782   0.487   6.784   0.220  1.4431  1.1253  2.3004
 6431TIP3   OH240783   6.075   2.369   0.468  0.2405  0.2987  0.0605
 6431TIP3    H140784   6.044   2.438   0.410 -0.2725  1.5442  1.7541
 6431TIP3    H240785   6.167   2.390   0.483 -0.4072  1.8638  2.1929
 6432TIP3   OH240786   3.555   3.166   0.501 -1.3867 -0.2947 -0.4488
 6432TIP3    H140787   3.490   3.236   0.498 -3.0881 -1.4948  3.1688
 6432TIP3    H240788   3.612   3.190   0.574 -0.1031 -1.2370 -1.0986
 6433TIP3   OH240789   6.432   1.781   4.440  0.4813  0.8613 -0.3248
 6433TIP3    H140790   6.453   1.688   4.433 -1.0048  0.5940 -1.6859
 6433TIP3    H240791   6.471   1.808   4.523  1.8159 -0.7204 -0.3903
 6434TIP3   OH240792   3.933   4.973   5.051 -0.2524  0.2125  0.2590
 6434TIP3    H140793   4.015   5.022   5.044  1.0174 -1.6297  1.3281
 6434TIP3    H240794   3.928   4.949   5.143 -0.3054 -2.3942 -0.3528
 6435TIP3   OH240795   0.828   5.379   3.483 -0.1685  0.5581  0.1603
 6435TIP3    H140796   0.923   5.371   3.491 -0.3131 -0.8057  0.6866
 6435TIP3    H240797   0.810   5.364   3.390  0.1537  1.1504 -0.0005
 6436TIP3   OH240798   2.355   1.387  14.703 -0.1420  0.6191 -0.2307
 6436TIP3    H140799   2.354   1.292  14.691 -0.8915  0.3646  1.5545
 6436TIP3    H240800   2.361   1.422  14.614 -1.3013 -1.0807 -1.0339
 6437TIP3   OH240801   1.763   0.892   4.976 -0.3636 -0.2318  0.3938
 6437TIP3    H140802   1.767   0.972   4.924  0.4266 -0.4132  0.1715
 6437TIP3    H240803   1.752   0.822   4.912  0.4025 -0.4353  0.4800
 6438TIP3   OH240804   6.587   2.746   2.803 -0.0677  0.1026  0.2632
 6438TIP3    H140805   6.602   2.699   2.721  1.8903  4.7816 -2.4398
 6438TIP3    H240806   6.512   2.803   2.784  1.7635  2.8672  0.7161
 6439TIP3   OH240807   6.252   0.432  15.159 -0.7318  0.4965  0.8674
 6439TIP3    H140808   6.200   0.459  15.083 -0.9579  1.8457  1.4675
 6439TIP3    H240809   6.334   0.481  15.152  0.7086 -1.9098 -0.2832
 6440TIP3   OH240810   5.946   5.210  16.177  0.7422  0.0158  0.1094
 6440TIP3    H140811   6.023   5.223  16.233 -1.2121 -0.2795  3.0542
 6440TIP3    H240812   5.929   5.116  16.180  0.0063  0.1337 -0.1816
 6441TIP3   OH240813   0.548   6.577   5.706  0.1209 -0.1976 -0.1668
 6441TIP3    H140814   0.455   6.585   5.728  0.2152 -0.4602  0.3585
 6441TIP3    H240815   0.593   6.583   5.791  0.5618 -0.3632 -0.3849
 6442TIP3   OH240816   1.218   0.162   3.576 -0.3026  0.0183 -0.3095
 6442TIP3    H140817   1.223   0.081   3.525 -1.0541 -0.3732  0.2209
 6442TIP3    H240818   1.234   0.231   3.512  2.9428 -0.6020 -0.3336
 6443TIP3   OH240819   3.134   3.838   3.519 -0.4206 -0.4527 -0.0929
 6443TIP3    H140820   3.161   3.865   3.431  1.4824 -0.0618  0.5760
 6443TIP3    H240821   3.067   3.902   3.544  0.2325  0.4460 -0.5996
 6444TIP3   OH240822   3.534   1.028  14.383 -0.6162  0.7160 -0.4726
 6444TIP3    H140823   3.545   1.039  14.478 -1.1028  3.2690 -0.6520
 6444TIP3    H240824   3.607   0.971  14.358 -0.7731 -0.4509  1.4762
 6445TIP3   OH240825   1.747   4.699   5.122 -0.4250  0.3252 -0.1155
 6445TIP3    H140826   1.802   4.661   5.190 -1.0084  0.8448  0.6625
 6445TIP3    H240827   1.773   4.791   5.118  0.6813 -0.0222 -1.6881
 6446TIP3   OH240828   4.384   3.701   1.858  0.3478 -0.5947 -0.1786
 6446TIP3    H140829   4.479   3.693   1.856  0.5008  0.9291 -0.2635
 6446TIP3    H240830   4.363   3.758   1.783 -0.5821 -0.4737  0.1578
 6447TIP3   OH240831   3.213   6.805  14.956  0.2365 -0.1876 -0.3039
 6447TIP3    H140832   3.242   6.888  14.918 -3.8148  2.0928  1.0333
 6447TIP3    H240833   3.193   6.750  14.881 -0.1437  1.2967 -1.3294
 6448TIP3   OH240834   5.117   6.572  13.356  0.0701  0.8129 -0.5881
 6448TIP3    H140835   5.145   6.493  13.401 -1.0106  0.4919 -0.4635
 6448TIP3    H240836   5.130   6.642  13.420  0.4035  0.6478 -0.4720
 6449TIP3   OH240837   4.326   4.497  11.145 -0.1651 -0.2511 -0.0452
 6449TIP3    H140838   4.399   4.555  11.165 -0.2514 -0.2639  0.3236
 6449TIP3    H240839   4.248   4.547  11.169 -0.2789 -0.2111 -0.5038
 6450TIP3   OH240840   1.685   6.013  14.169  0.8305 -0.1250 -0.2802
 6450TIP3    H140841   1.746   5.990  14.099  1.2591  0.5325 -0.1353
 6450TIP3    H240842   1.598   6.007  14.128  1.1175  1.1022 -1.1330
 6451TIP3   OH240843   1.400   2.860   0.317  0.2093 -0.2169 -0.1839
 6451TIP3    H140844   1.488   2.825   0.304  0.5908  0.3327  0.8319
 6451TIP3    H240845   1.374   2.892   0.231  0.5132 -1.4631 -0.7666
 6452TIP3   OH240846   4.804   2.234  15.454 -0.2372 -1.0895  0.4648
 6452TIP3    H140847   4.786   2.297  15.384  0.5802 -0.0156  1.2015
 6452TIP3    H240848   4.756   2.155  15.428 -2.3395  0.2314  0.1809
 6453TIP3   OH240849   6.050   6.358  14.623 -0.6359  0.3403 -0.1095
 6453TIP3    H140850   6.016   6.291  14.563  1.4891  0.1696 -1.2269
 6453TIP3    H240851   6.127   6.393  14.578  0.0616  1.3883  1.8031
 6454TIP3   OH240852   1.016   6.196   3.184  0.2207 -0.0596  0.5283
 6454TIP3    H140853   1.014   6.215   3.278 -0.5428 -0.0626  0.5245
 6454TIP3    H240854   0.952   6.257   3.146 -0.4272 -0.9209  0.1822
 6455TIP3   OH240855   1.569   3.765  16.282  0.1450 -0.5889  0.4247
 6455TIP3    H140856   1.578   3.783  16.376  0.2423 -0.4255  0.3835
 6455TIP3    H240857   1.509   3.832  16.250  1.9428  0.8524 -0.0841
 6456TIP3   OH240858   3.296   4.261  12.851 -0.2378  0.1265 -0.3147
 6456TIP3    H140859   3.229   4.330  12.859  1.1147  1.4983 -0.2130
 6456TIP3    H240860   3.376   4.303  12.884  0.3803 -1.9236  0.9584
 6457TIP3   OH240861   6.001   0.177  10.475 -0.0897  0.2488 -0.1755
 6457TIP3    H140862   6.079   0.126  10.452 -0.1696 -0.3432  0.7798
 6457TIP3    H240863   6.034   0.266  10.491  0.2652  0.1865 -0.5563
 6458TIP3   OH240864   2.995   1.366   3.961  0.3444  0.0888 -0.0009
 6458TIP3    H140865   3.020   1.453   3.992 -0.4889  0.1215  0.6000
 6458TIP3    H240866   2.983   1.376   3.867  0.6183  0.5370  0.0125
 6459TIP3   OH240867   1.019   0.740   1.140  0.6794 -0.0571  0.3146
 6459TIP3    H140868   1.085   0.781   1.084  0.6531 -0.0596  0.2818
 6459TIP3    H240869   1.039   0.772   1.228 -0.3343  1.3508  0.0753
 6460TIP3   OH240870   0.258   1.706  16.889  0.5071  0.3045 -0.2684
 6460TIP3    H140871   0.268   1.612  16.877  0.3215  0.1613  0.6018
 6460TIP3    H240872   0.332   1.732  16.944  0.1871  0.5417  0.0615
 6461TIP3   OH240873   2.980   3.831   4.252 -0.6519  0.0704  0.4859
 6461TIP3    H140874   2.935   3.907   4.217 -1.0172 -0.0216  0.7496
 6461TIP3    H240875   2.969   3.839   4.347 -0.9113 -0.4459  0.4999
 6462TIP3   OH240876   4.088   0.887   2.928  0.1912 -0.0539 -0.4098
 6462TIP3    H140877   4.118   0.973   2.959 -1.2444  0.9530 -1.6808
 6462TIP3    H240878   4.018   0.907   2.866  0.1977 -2.1400 -1.1608
 6463TIP3   OH240879   2.624   2.155  15.155  0.2498  0.0746  0.2238
 6463TIP3    H140880   2.560   2.095  15.118  0.8468 -1.7951  2.0567
 6463TIP3    H240881   2.572   2.225  15.193 -0.9818 -2.2504  3.2110
 6464TIP3   OH240882   5.717   0.429  11.126 -0.2778  0.5179 -0.2693
 6464TIP3    H140883   5.761   0.470  11.052  0.0102  4.3651  1.7793
 6464TIP3    H240884   5.632   0.473  11.131 -1.1468 -1.1510  0.5131
 6465TIP3   OH240885   5.663   3.145  10.699  0.3687  0.5566  0.0740
 6465TIP3    H140886   5.753   3.169  10.720  0.0687  0.1105  1.9876
 6465TIP3    H240887   5.670   3.059  10.658  0.7242 -0.2412  1.7236
 6466TIP3   OH240888   3.417   6.386  12.807  0.2455 -0.0075 -0.0637
 6466TIP3    H140889   3.474   6.376  12.731 -2.3142 -0.4508 -2.0293
 6466TIP3    H240890   3.329   6.393  12.771 -1.1068 -0.3380  2.8849
 6467TIP3   OH240891   2.906   5.769  11.648  0.1405 -0.2822 -0.4826
 6467TIP3    H140892   2.830   5.743  11.699 -0.5845 -0.5326 -1.6442
 6467TIP3    H240893   2.981   5.739  11.699 -0.4904  0.6419  1.0483
 6468TIP3   OH240894   4.530   5.143   4.054 -0.2743 -0.0691 -0.1476
 6468TIP3    H140895   4.522   5.232   4.088  0.1065  0.4754 -1.4473
 6468TIP3    H240896   4.500   5.148   3.964  0.3711 -1.1185 -0.4449
 6469TIP3   OH240897   6.642   1.644  11.474 -0.4903  0.2460  0.0721
 6469TIP3    H140898   6.573   1.706  11.451 -1.0828  0.2069  1.5953
 6469TIP3    H240899   6.610   1.559  11.443  0.0250  0.5782 -1.4274
 6470TIP3   OH240900   4.251   1.018   3.560  0.4213  0.6196 -0.3683
 6470TIP3    H140901   4.159   0.991   3.566 -0.0014  1.7998 -1.1419
 6470TIP3    H240902   4.277   0.996   3.470  0.7424  0.7459 -0.3088
 6471TIP3   OH240903   5.006   3.549  12.859 -0.0232 -0.1133  0.5523
 6471TIP3    H140904   4.972   3.544  12.770  2.2661 -0.1755 -0.3826
 6471TIP3    H240905   4.973   3.632  12.892 -1.4456 -0.3910 -0.0772
 6472TIP3   OH240906   1.835   0.888  14.474 -0.7475 -0.0085  0.2034
 6472TIP3    H140907   1.886   0.954  14.428 -2.0460  2.6782  2.3367
 6472TIP3    H240908   1.750   0.887  14.429 -0.7263 -0.2149  0.1681
 6473TIP3   OH240909   1.743   4.440  13.520 -0.0340  0.3216  0.7738
 6473TIP3    H140910   1.826   4.395  13.506 -0.4410 -0.4325  0.7764
 6473TIP3    H240911   1.678   4.387  13.474 -0.2659  1.9140 -0.9000
 6474TIP3   OH240912   4.042   3.292   1.179  0.0529 -0.9937  0.0564
 6474TIP3    H140913   4.137   3.292   1.191  0.0153 -1.3672  0.3834
 6474TIP3    H240914   4.007   3.286   1.268 -0.3133  1.2053  0.1045
 6475TIP3   OH240915   5.447   1.075  11.070 -0.1568  0.3236 -0.3935
 6475TIP3    H140916   5.379   1.046  11.131 -0.1098 -2.1425 -1.3802
 6475TIP3    H240917   5.461   0.999  11.013  1.0674  1.9169 -2.3311
 6476TIP3   OH240918   0.308   0.490   4.337 -0.3500  0.7056 -0.3822
 6476TIP3    H140919   0.247   0.563   4.342 -0.1458  0.9324 -1.0751
 6476TIP3    H240920   0.376   0.520   4.277  0.3654  0.3970  0.2525
 6477TIP3   OH240921   0.080   1.590  16.592 -0.0268  0.3649  0.3297
 6477TIP3    H140922   0.041   1.507  16.564  0.8741  0.1533 -0.3287
 6477TIP3    H240923   0.148   1.565  16.655 -0.3556  0.6768  0.8218
 6478TIP3   OH240924   6.186   2.948  15.857 -0.1709  0.3203  0.1559
 6478TIP3    H140925   6.174   2.865  15.811 -2.6752  0.0787  1.0972
 6478TIP3    H240926   6.137   3.012  15.806 -2.4824  0.1622  2.0062
 6479TIP3   OH240927   1.262   4.797  15.661 -0.2150 -0.5507  0.1175
 6479TIP3    H140928   1.220   4.825  15.579  1.0627  2.1099  0.2634
 6479TIP3    H240929   1.355   4.796  15.641  0.1040  0.0457  1.5051
 6480TIP3   OH240930   4.714   2.091  15.927 -0.1968 -0.1905 -0.1745
 6480TIP3    H140931   4.716   1.996  15.923 -1.3225 -0.2574  0.5571
 6480TIP3    H240932   4.623   2.113  15.949  0.1558  1.0315  0.1490
 6481TIP3   OH240933   2.054   3.199   2.699  0.4810 -0.6755 -0.5789
 6481TIP3    H140934   1.967   3.168   2.674  0.5702  0.3960 -2.4287
 6481TIP3    H240935   2.110   3.122   2.690 -0.4538 -1.8531  2.3276
 6482TIP3   OH240936   0.108   6.136   1.148  0.2448  0.0971  0.1865
 6482TIP3    H140937   0.156   6.087   1.215  1.4508 -0.0155 -0.7278
 6482TIP3    H240938   0.122   6.087   1.067 -0.7990  0.4874 -0.2460
 6483TIP3   OH240939   2.447   5.587   2.132 -0.1742 -0.5588 -0.0917
 6483TIP3    H140940   2.505   5.614   2.061  2.0900  0.9538  2.1480
 6483TIP3    H240941   2.460   5.492   2.139  0.4121 -0.5526 -0.9554
 6484TIP3   OH240942   6.626   1.802  11.162  0.1670 -0.4152 -0.2854
 6484TIP3    H140943   6.631   1.876  11.101 -0.1858  0.7928  1.0918
 6484TIP3    H240944   6.536   1.770  11.154  0.2669 -0.5819 -0.7556
 6485TIP3   OH240945   4.661   6.180   1.785  0.2475  0.0015  0.4050
 6485TIP3    H140946   4.661   6.183   1.881  0.6130  0.5774  0.3898
 6485TIP3    H240947   4.568   6.189   1.761  0.2931  1.3835  0.6690
 6486TIP3   OH240948   3.818   1.164   0.330  0.2244 -0.0783  0.2082
 6486TIP3    H140949   3.892   1.178   0.272  0.0673  0.4990  0.1423
 6486TIP3    H240950   3.772   1.248   0.331 -0.9264 -0.6750 -0.4587
 6487TIP3   OH240951   5.545   1.664   5.877 -0.0218  0.0987  0.3946
 6487TIP3    H140952   5.596   1.650   5.957 -1.9766 -1.9379  1.3918
 6487TIP3    H240953   5.607   1.646   5.806  1.0152 -0.8990  1.5096
 6488TIP3   OH240954   1.062   1.581   3.684 -0.3339  0.3921  0.0324
 6488TIP3    H140955   0.989   1.619   3.635 -2.0665 -2.5127  0.1381
 6488TIP3    H240956   1.106   1.524   3.621  0.2067  0.0837  0.6783
 6489TIP3   OH240957   3.814   4.130   3.705  0.0964 -0.4948  0.2157
 6489TIP3    H140958   3.815   4.172   3.791  0.0808  0.5195 -0.2552
 6489TIP3    H240959   3.734   4.078   3.704  0.3670 -0.9337  1.0059
 6490TIP3   OH240960   4.268   2.027  13.032  0.6628  0.1035  0.8982
 6490TIP3    H140961   4.331   2.095  13.055  1.6508 -0.8633  1.1109
 6490TIP3    H240962   4.251   1.981  13.114 -0.5661  0.5408  0.9047
 6491TIP3   OH240963   2.608   6.039   0.208  0.3828  0.2133  0.0269
 6491TIP3    H140964   2.670   6.012   0.140  2.4196  1.7935  1.1323
 6491TIP3    H240965   2.530   5.987   0.191  1.4439 -0.7620 -2.3971
 6492TIP3   OH240966   0.982   4.812  11.181 -0.3042 -0.1070 -0.0958
 6492TIP3    H140967   0.928   4.744  11.220 -0.3037 -0.2016 -0.2611
 6492TIP3    H240968   0.996   4.875  11.252 -1.4233  0.4013 -0.3084
 6493TIP3   OH240969   0.612   0.647  14.597 -0.7896 -0.4770 -0.1833
 6493TIP3    H140970   0.680   0.652  14.530  0.3163  0.8582  0.9732
 6493TIP3    H240971   0.572   0.561  14.585  0.7809 -1.1028 -1.1900
 6494TIP3   OH240972   2.648   3.783   4.278 -0.5953 -0.2947 -0.5515
 6494TIP3    H140973   2.598   3.864   4.268 -0.8079 -0.6060 -2.1396
 6494TIP3    H240974   2.607   3.739   4.352 -0.9308  0.7067 -0.1185
 6495TIP3   OH240975   1.208   3.107  13.610  0.0502  0.2154 -0.4336
 6495TIP3    H140976   1.120   3.102  13.648  0.9122 -1.0152  1.5665
 6495TIP3    H240977   1.207   3.044  13.538 -0.7244  0.2893 -0.4946
 6496TIP3   OH240978   2.366   3.420   0.620  0.1311 -0.0559 -0.1239
 6496TIP3    H140979   2.397   3.510   0.612 -1.4982  0.5522  0.0706
 6496TIP3    H240980   2.297   3.413   0.554 -1.0553 -0.5724  1.1397
 6497TIP3   OH240981   1.762   3.857  11.274 -0.4078 -0.2387 -0.5953
 6497TIP3    H140982   1.823   3.804  11.325 -1.2249  0.0841  0.7679
 6497TIP3    H240983   1.745   3.806  11.195 -0.3725 -1.5262  0.2064
 6498TIP3   OH240984   2.733   6.246  11.567 -0.2935 -0.5957 -0.0401
 6498TIP3    H140985   2.763   6.330  11.534  0.9407 -1.0359 -0.1020
 6498TIP3    H240986   2.726   6.257  11.661 -1.8443  0.0680 -0.2058
 6499TIP3   OH240987   0.525   4.517   0.402  0.0307  0.0026 -0.0853
 6499TIP3    H140988   0.612   4.545   0.432  0.5167 -0.5822 -0.9149
 6499TIP3    H240989   0.535   4.424   0.384  0.1775  0.5611 -3.3681
 6500TIP3   OH240990   0.465   3.515   1.334  0.4831 -0.0421 -0.1781
 6500TIP3    H140991   0.548   3.526   1.289  0.9770  3.3469  1.2545
 6500TIP3    H240992   0.405   3.576   1.291 -0.3478 -0.1271  0.7991
 6501TIP3   OH240993   2.761   3.529   2.100  0.4141 -0.2826 -0.4835
 6501TIP3    H140994   2.838   3.561   2.052  0.0801  0.9820 -0.2221
 6501TIP3    H240995   2.798   3.478   2.172  0.9588 -0.8077 -1.1110
 6502TIP3   OH240996   3.169   0.911  15.408 -0.4096 -0.4056 -0.6172
 6502TIP3    H140997   3.172   0.816  15.409 -0.9630 -0.4352  0.4583
 6502TIP3    H240998   3.251   0.938  15.450  0.4157 -0.3523 -2.1971
 6503TIP3   OH240999   3.086   5.451   5.699  0.2745 -0.2819  0.3845
 6503TIP3    H141000   3.109   5.450   5.792 -3.5555 -0.7209  1.5161
 6503TIP3    H241001   3.075   5.544   5.678  0.5839 -0.2090  0.5462
 6504TIP3   OH241002   1.568   2.311  12.185 -0.9640 -0.9079 -0.1566
 6504TIP3    H141003   1.551   2.376  12.253  0.8015  1.0337 -1.4313
 6504TIP3    H241004   1.642   2.260  12.218  0.8483  0.9600 -1.0694
 6505TIP3   OH241005   5.516   2.282   3.465 -0.6424 -0.0250  0.4011
 6505TIP3    H141006   5.478   2.194   3.468  1.2699 -0.9269 -0.1620
 6505TIP3    H241007   5.442   2.341   3.478 -1.8709 -1.7283  1.4487
 6506TIP3   OH241008   3.576   1.011  13.183  0.1123 -0.4561 -0.2158
 6506TIP3    H141009   3.623   0.970  13.256  0.0126  3.2606  2.1841
 6506TIP3    H241010   3.483   1.002  13.205  0.0023 -0.7981 -0.7950
 6507TIP3   OH241011   3.023   5.587   7.045 -0.1886 -0.0994 -0.1665
 6507TIP3    H141012   3.081   5.530   7.095 -0.7604  0.3478  1.0308
 6507TIP3    H241013   3.062   5.673   7.051  0.1684 -0.1796 -1.1837
 6508TIP3   OH241014   1.719   3.004   2.328  0.3789  0.6564  0.1120
 6508TIP3    H141015   1.814   3.015   2.331  1.2141 -3.7989 -1.4307
 6508TIP3    H241016   1.698   2.959   2.410  0.7594 -3.2110 -1.6748
 6509TIP3   OH241017   4.776   5.981  16.058  0.1130 -0.1286  0.1565
 6509TIP3    H141018   4.826   5.899  16.054 -0.6308 -0.5781 -0.1610
 6509TIP3    H241019   4.805   6.022  16.139  2.7177  0.7492 -1.0900
 6510TIP3   OH241020   3.873   5.270   5.204  0.0243 -0.5417  0.2754
 6510TIP3    H141021   3.955   5.221   5.204 -0.0233 -0.7383  2.7626
 6510TIP3    H241022   3.804   5.203   5.202 -0.0575 -0.4668  0.5312
 6511TIP3   OH241023   1.391   0.887  12.665  0.0238 -0.0750 -0.2877
 6511TIP3    H141024   1.402   0.817  12.730  0.0927  0.4148  0.2397
 6511TIP3    H241025   1.458   0.870  12.600  0.5996 -0.0248  0.2783
 6512TIP3   OH241026   1.796   1.158  13.442  0.6943 -0.1008  0.1667
 6512TIP3    H141027   1.754   1.222  13.386 -1.1341  1.0279  2.6430
 6512TIP3    H241028   1.791   1.076  13.393 -0.5373  0.8651 -1.4051
 6513TIP3   OH241029   0.679   4.817   5.127 -0.0008  0.0467 -0.4514
 6513TIP3    H141030   0.752   4.758   5.106 -1.3479 -1.3223 -1.4956
 6513TIP3    H241031   0.625   4.816   5.048 -0.8544  1.5024  0.0926
 6514TIP3   OH241032   4.741   1.454  13.308  0.8193  0.0648 -0.0430
 6514TIP3    H141033   4.697   1.372  13.330 -0.0089  0.5055 -0.0198
 6514TIP3    H241034   4.716   1.471  13.217  1.5148 -0.0364 -0.2573
 6515TIP3   OH241035   1.799   6.173   0.154 -0.4000 -0.2843 -0.3184
 6515TIP3    H141036   1.854   6.246   0.126 -0.7281  0.1020  0.0366
 6515TIP3    H241037   1.843   6.095   0.118  0.2034  0.0418 -0.3086
 6516TIP3   OH241038   1.478   5.486   4.587 -0.2474 -0.0636  0.2260
 6516TIP3    H141039   1.477   5.550   4.515 -0.0999  0.0046  0.2853
 6516TIP3    H241040   1.521   5.531   4.659 -1.0655  0.1303  0.6064
 6517TIP3   OH241041   0.159   1.119   5.901  0.4172 -0.1336 -0.2623
 6517TIP3    H141042   0.134   1.207   5.929  2.0133 -0.3353  2.1057
 6517TIP3    H241043   0.188   1.130   5.811 -0.4915  1.5459 -0.3809
 6518TIP3   OH241044   3.786   6.599   2.578 -0.4395  0.7230  0.8568
 6518TIP3    H141045   3.848   6.633   2.642  1.7529  0.8386 -1.1889
 6518TIP3    H241046   3.805   6.647   2.498 -3.4802  1.0157  0.1656
 6519TIP3   OH241047   6.569   6.035   4.187  0.5049  0.4100 -0.1950
 6519TIP3    H141048   6.496   6.042   4.249  1.4320  4.5837  0.7542
 6519TIP3    H241049   6.619   5.960   4.217 -1.1694 -0.0378  1.6963
 6520TIP3   OH241050   4.549   4.450  16.931  0.0347  0.0618  0.1501
 6520TIP3    H141051   4.625   4.393  16.946  0.7317  0.7578 -0.6223
 6520TIP3    H241052   4.484   4.393  16.889  0.8007 -0.1441 -0.8040
 6521TIP3   OH241053   4.857   0.399   3.318 -0.1478  0.2535  0.2116
 6521TIP3    H141054   4.894   0.487   3.329 -2.1023  1.5716 -2.6163
 6521TIP3    H241055   4.915   0.357   3.253 -0.1315  0.0526  0.3561
 6522TIP3   OH241056   6.572   4.426  13.323 -0.2507  0.6570 -0.8223
 6522TIP3    H141057   6.595   4.346  13.275 -0.6270  0.1181 -0.1161
 6522TIP3    H241058   6.637   4.433  13.392  0.7147  1.8215 -1.8205
 6523TIP3   OH241059   5.535   5.943  13.830 -0.7643  0.3016  0.2929
 6523TIP3    H141060   5.466   5.981  13.884 -0.4916 -0.2563  1.0477
 6523TIP3    H241061   5.559   5.862  13.875  1.6067  1.3264  1.0857
 6524TIP3   OH241062   3.175   2.901   3.697  0.0843 -0.4214 -0.1966
 6524TIP3    H141063   3.106   2.861   3.645 -1.2986  1.5777 -0.0332
 6524TIP3    H241064   3.202   2.978   3.647  1.2115 -0.3936  0.4056
 6525TIP3   OH241065   2.401   6.326   4.105 -0.5433  0.0933 -0.0839
 6525TIP3    H141066   2.393   6.345   4.012  0.4322  0.5355 -0.0830
 6525TIP3    H241067   2.442   6.239   4.108 -0.2360  0.2393 -0.0641
 6526TIP3   OH241068   1.247   5.803  16.299 -0.6298  0.9030 -0.0212
 6526TIP3    H141069   1.208   5.748  16.367 -1.6091 -0.8879 -1.9052
 6526TIP3    H241070   1.172   5.846  16.257 -0.1124  1.4375 -0.4100
 6527TIP3   OH241071   2.766   6.164  16.901 -0.5215 -0.5499 -0.2523
 6527TIP3    H141072   2.683   6.205  16.877  0.7597  2.4341  0.0071
 6527TIP3    H241073   2.792   6.207  16.982  0.6963 -2.3264  0.3660
 6528TIP3   OH241074   6.311   0.035   1.983 -0.2758  0.0260 -0.2753
 6528TIP3    H141075   6.278  -0.035   2.039 -0.5682 -0.3472 -0.9059
 6528TIP3    H241076   6.272   0.018   1.897 -0.1087  0.7851 -0.5142
 6529TIP3   OH241077   6.434   2.455   3.709  0.3719  0.1917 -0.4147
 6529TIP3    H141078   6.450   2.535   3.760  2.6459 -0.7092  0.4027
 6529TIP3    H241079   6.383   2.399   3.768 -0.2063  0.5629 -0.5515
 6530TIP3   OH241080   4.829   4.683   3.639  0.4238 -1.0975  0.0724
 6530TIP3    H141081   4.841   4.777   3.643  0.9369 -1.1919  1.0755
 6530TIP3    H241082   4.833   4.662   3.546  0.6968 -0.1813 -0.1316
 6531TIP3   OH241083   5.572   1.917   3.446 -0.6195  0.1099  0.1557
 6531TIP3    H141084   5.524   1.975   3.387  0.8568 -0.0057 -1.2199
 6531TIP3    H241085   5.507   1.854   3.477 -2.4927  2.8414  2.2935
 6532TIP3   OH241086   2.823   3.068  16.054 -0.1434  0.1246  0.6214
 6532TIP3    H141087   2.768   2.991  16.062 -1.0030  0.7048  0.4004
 6532TIP3    H241088   2.818   3.111  16.139 -1.2288  0.9482  0.1740
 6533TIP3   OH241089   6.044   3.750  16.451  0.7886 -0.2089  0.3430
 6533TIP3    H141090   6.121   3.793  16.488 -0.0127  1.6708 -0.0596
 6533TIP3    H241091   6.026   3.677  16.510  1.3721  0.8409  1.8779
 6534TIP3   OH241092   3.913   6.592  14.212  0.3488 -0.4289 -0.0420
 6534TIP3    H141093   3.999   6.609  14.172  0.1843  0.1531 -0.1694
 6534TIP3    H241094   3.915   6.500  14.235  1.5511 -0.1214  1.2342
 6535TIP3   OH241095   2.824   6.058  12.414  0.3933  0.3068  0.2555
 6535TIP3    H141096   2.894   6.087  12.355 -0.8646  0.9314 -1.0158
 6535TIP3    H241097   2.844   6.100  12.498  1.9084 -0.1140  0.1274
 6536TIP3   OH241098   4.067   1.930   2.413 -0.0217 -0.4326  0.9717
 6536TIP3    H141099   4.115   1.965   2.338 -0.8544  0.5127  0.8480
 6536TIP3    H241100   4.102   1.978   2.488  0.7394 -1.3049  1.1907
 6537TIP3   OH241101   4.092   4.378   0.084 -0.4268  0.2790 -0.2710
 6537TIP3    H141102   4.169   4.430   0.062  2.0506 -3.0854 -0.3699
 6537TIP3    H241103   4.061   4.344  -0.000 -0.1023 -0.7894  0.0228
 6538TIP3   OH241104   2.455   6.609   1.662  0.5083  0.5167  0.4097
 6538TIP3    H141105   2.543   6.620   1.699  0.3190  3.3845  0.2139
 6538TIP3    H241106   2.407   6.562   1.730  1.8796 -0.1270  0.9857
 6539TIP3   OH241107   1.933   5.453   4.873 -0.2749  0.1740  0.4559
 6539TIP3    H141108   1.989   5.464   4.796 -2.1411  0.0714 -1.0030
 6539TIP3    H241109   1.864   5.519   4.862 -1.1344 -0.5117  1.5294
 6540TIP3   OH241110   2.724   3.627  13.964  0.6305 -0.2717  0.3858
 6540TIP3    H141111   2.781   3.661  14.033  2.0015  0.0473 -0.8640
 6540TIP3    H241112   2.721   3.532  13.979  1.6901 -0.3215  0.3348
 6541TIP3   OH241113   2.777   0.351  13.958 -0.0479  0.1408  0.1700
 6541TIP3    H141114   2.776   0.443  13.931 -1.9193  0.5342  1.4411
 6541TIP3    H241115   2.747   0.303  13.881 -1.2209  0.8319  0.1794
 6542TIP3   OH241116   0.730   0.893   4.430  0.2952 -0.2324 -0.2745
 6542TIP3    H141117   0.787   0.816   4.420 -0.0693 -0.5501  0.0634
 6542TIP3    H241118   0.762   0.936   4.509  0.1620 -0.3296 -0.1671
 6543TIP3   OH241119   5.492   4.183   3.258  0.1163 -0.1633  0.0339
 6543TIP3    H141120   5.531   4.100   3.286  0.6992 -0.3961 -1.3439
 6543TIP3    H241121   5.493   4.238   3.335  0.4116 -1.1890  0.7896
 6544TIP3   OH241122   0.154   2.702   2.744 -0.0404  0.2730  0.0970
 6544TIP3    H141123   0.242   2.736   2.728 -0.3114  0.3046 -1.4176
 6544TIP3    H241124   0.096   2.776   2.728 -0.4212 -0.0179  0.1067
 6545TIP3   OH241125   0.362   4.299   0.032  0.4879  0.0613  0.0761
 6545TIP3    H141126   0.305   4.368   0.066 -0.0568 -0.5930  0.5130
 6545TIP3    H241127   0.304   4.223   0.020  1.3514 -0.7805  1.0558
 6546TIP3   OH241128   2.037   3.701  14.909  0.6677 -0.1206 -0.0662
 6546TIP3    H141129   2.102   3.744  14.853  1.4181 -1.1282  0.0196
 6546TIP3    H241130   1.996   3.636  14.853 -0.8429  1.0087 -0.3488
 6547TIP3   OH241131   5.947   1.044  12.291 -0.1885 -0.0257 -0.1545
 6547TIP3    H141132   5.966   0.971  12.350 -1.4079 -0.9749 -0.8966
 6547TIP3    H241133   6.019   1.106  12.306  1.7499 -2.0306 -0.5945
 6548TIP3   OH241134   0.041   1.152   3.697 -0.6555 -0.2608  0.0356
 6548TIP3    H141135   0.066   1.111   3.780 -1.2390  0.0803  0.3922
 6548TIP3    H241136   0.122   1.189   3.662 -0.5288  0.2184  0.8117
 6549TIP3   OH241137   4.989   5.542  14.100 -0.3327 -0.5846 -0.5703
 6549TIP3    H141138   4.977   5.585  14.185 -0.0987 -2.0869  0.2530
 6549TIP3    H241139   5.057   5.594  14.057 -0.5763  0.3069  0.0700
 6550TIP3   OH241140   6.424   0.022  16.520 -0.3306  0.7359 -0.7674
 6550TIP3    H141141   6.512   0.056  16.507  0.1400  2.3106  4.4274
 6550TIP3    H241142   6.435  -0.073  16.530  0.5864  0.7833 -1.2827
 6551TIP3   OH241143   3.200   4.223  10.391 -0.4007  0.0287  0.2364
 6551TIP3    H141144   3.178   4.174  10.312 -2.4713 -0.3476  1.0018
 6551TIP3    H241145   3.186   4.162  10.463 -0.6215  0.9924  1.0383
 6552TIP3   OH241146   3.992   2.204   2.272  0.1816 -0.2643 -0.0921
 6552TIP3    H141147   3.928   2.140   2.242  1.1191 -0.5512 -1.6345
 6552TIP3    H241148   3.944   2.286   2.277 -0.0884 -0.2168 -2.4339
 6553TIP3   OH241149   2.429   3.780   1.934  0.6078 -0.5388 -0.0296
 6553TIP3    H141150   2.404   3.791   1.842  3.8532  1.2220 -0.8494
 6553TIP3    H241151   2.364   3.832   1.982 -2.4895 -3.2319 -0.9179
 6554TIP3   OH241152   5.432   3.545  14.639  0.3749  0.0666  0.5538
 6554TIP3    H141153   5.398   3.527  14.552 -0.9520  2.7260  0.4386
 6554TIP3    H241154   5.527   3.534  14.630  0.1014 -1.6228 -0.6726
 6555TIP3   OH241155   5.985   2.539   1.674 -0.1266 -0.0344 -0.8922
 6555TIP3    H141156   5.909   2.525   1.730  0.6032 -1.1906 -0.1358
 6555TIP3    H241157   6.034   2.609   1.717 -1.4508  1.7362 -2.1594
 6556TIP3   OH241158   5.110   2.255  13.156  0.2917 -0.4390 -0.1707
 6556TIP3    H141159   5.046   2.324  13.174  0.7781  0.1070 -0.4776
 6556TIP3    H241160   5.168   2.256  13.232 -0.2502 -1.1522  0.2551
 6557TIP3   OH241161   6.651   4.618  16.845  0.1320 -0.1255 -0.2634
 6557TIP3    H141162   6.567   4.638  16.803 -0.0190  0.3725  0.2670
 6557TIP3    H241163   6.687   4.546  16.793 -0.7522 -0.5352 -0.3232
 6558TIP3   OH241164   3.621   3.396   3.506 -0.3266 -0.4433  0.0532
 6558TIP3    H141165   3.620   3.367   3.414 -1.8526 -1.8991  0.4727
 6558TIP3    H241166   3.543   3.451   3.514  0.3301  0.4748  0.2712
 6559TIP3   OH241167   3.070   5.768  11.289 -0.0331  0.1586 -0.1012
 6559TIP3    H141168   2.979   5.755  11.314  0.1124 -2.1194 -0.5111
 6559TIP3    H241169   3.070   5.764  11.193  0.5713 -0.6662 -0.0820
 6560TIP3   OH241170   5.880   4.904   4.202  0.3375  0.4223  0.1467
 6560TIP3    H141171   5.942   4.844   4.243 -0.4144  1.1619  2.5550
 6560TIP3    H241172   5.804   4.850   4.181  0.4046  0.1642  0.5615
 6561TIP3   OH241173   1.595   3.378   2.682 -0.2586  0.3115  0.2376
 6561TIP3    H141174   1.517   3.428   2.703 -0.0887  1.1327 -1.0078
 6561TIP3    H241175   1.667   3.428   2.720 -0.2976 -0.3042  1.1503
 6562TIP3   OH241176   6.715   1.533   2.667 -0.0173 -0.7691  0.4300
 6562TIP3    H141177   6.805   1.521   2.638  0.4980  2.4033  0.4252
 6562TIP3    H241178   6.711   1.623   2.699 -3.1556 -0.8356  0.5619
 6563TIP3   OH241179   3.062   5.345  12.253 -0.0414 -0.2119  0.1451
 6563TIP3    H141180   3.036   5.414  12.193 -1.9416 -0.5054  0.5892
 6563TIP3    H241181   3.120   5.389  12.316  0.0132  0.6201 -0.4687
 6564TIP3   OH241182   3.479   0.939  14.877 -0.0710 -0.8886 -0.2152
 6564TIP3    H141183   3.473   0.865  14.817  1.9584 -1.6949  0.4924
 6564TIP3    H241184   3.560   0.984  14.853 -0.3372  0.0330  0.5279
 6565TIP3   OH241185   2.720   2.580  13.034  0.1093 -0.5031  0.3275
 6565TIP3    H141186   2.633   2.540  13.030  0.3292 -1.0974  1.1655
 6565TIP3    H241187   2.712   2.660  12.982 -1.2352 -0.0171  1.2295
 6566TIP3   OH241188   0.999   1.826   5.004 -0.0432  0.2905  0.1550
 6566TIP3    H141189   0.969   1.901   5.055 -1.2757 -0.7073  0.9738
 6566TIP3    H241190   0.935   1.818   4.933  0.9215  0.8794 -0.8085
 6567TIP3   OH241191   5.796   0.495  15.984 -0.0587 -0.3368 -0.2606
 6567TIP3    H141192   5.888   0.481  15.961 -0.4586 -2.7881 -0.5627
 6567TIP3    H241193   5.748   0.463  15.908 -1.2135  1.5265 -0.3867
 6568TIP3   OH241194   4.007   4.089   5.298 -0.3076  0.1584 -0.2186
 6568TIP3    H141195   3.947   4.028   5.341 -1.3147 -0.5643 -2.4587
 6568TIP3    H241196   4.009   4.060   5.206 -0.8115  3.4000 -1.4068
 6569TIP3   OH241197   3.784   0.272   2.544 -0.3035  0.6708 -0.4941
 6569TIP3    H141198   3.712   0.296   2.485 -1.9032 -0.5315  0.8671
 6569TIP3    H241199   3.758   0.307   2.629 -1.2418 -2.9293  0.8821
 6570TIP3   OH241200   4.508   1.521   5.492 -0.4681  0.4470  0.1188
 6570TIP3    H141201   4.572   1.542   5.560  0.0388  0.9585 -0.5023
 6570TIP3    H241202   4.462   1.445   5.526  0.4103  0.1202  0.6210
 6571TIP3   OH241203   0.273   2.437   1.192 -0.3196  0.2640 -0.0390
 6571TIP3    H141204   0.308   2.350   1.210 -1.2594 -0.0128  0.5249
 6571TIP3    H241205   0.345   2.496   1.212  0.2629 -0.3671 -0.2230
 6572TIP3   OH241206   2.888   2.258  11.124 -0.0951  0.0192  0.1331
 6572TIP3    H141207   2.931   2.294  11.201 -0.5023  0.2040  0.2719
 6572TIP3    H241208   2.956   2.260  11.056 -0.0786  0.9552  0.1627
 6573TIP3   OH241209   2.780   1.545  12.685  0.0474 -1.0150  0.2164
 6573TIP3    H141210   2.835   1.622  12.682 -0.0624 -0.7395  2.9300
 6573TIP3    H241211   2.791   1.504  12.599  1.6155  0.9401 -0.5854
 6574TIP3   OH241212   0.262   0.970  16.201  0.5043 -0.2815 -0.1049
 6574TIP3    H141213   0.234   1.041  16.259  0.9984  0.6137 -0.9423
 6574TIP3    H241214   0.351   0.950  16.228  0.3857 -0.5636  0.0921
 6575TIP3   OH241215   5.872   6.420   4.379 -0.4366  0.4606 -0.1064
 6575TIP3    H141216   5.877   6.516   4.378  1.0446  0.4019  0.1135
 6575TIP3    H241217   5.953   6.391   4.338 -1.4063 -0.7162 -1.2827
 6576TIP3   OH241218   6.041   2.503  15.839 -0.4081 -0.1306 -0.1844
 6576TIP3    H141219   6.033   2.407  15.839 -0.8726 -0.0917 -0.2134
 6576TIP3    H241220   6.012   2.530  15.926  0.7771 -0.0963  0.2208
 6577TIP3   OH241221   2.078   1.833   2.001  0.4402  0.7131  0.8971
 6577TIP3    H141222   2.149   1.884   2.041  1.8455 -0.2258 -0.2712
 6577TIP3    H241223   2.050   1.885   1.926  0.9604  0.4256  0.4874
 6578TIP3   OH241224   2.784   6.746  13.684  0.3948  0.0141  0.1787
 6578TIP3    H141225   2.839   6.690  13.740  1.5227  0.2110 -0.7068
 6578TIP3    H241226   2.841   6.819  13.661 -1.2162  1.8494  1.7241
 6579TIP3   OH241227   1.932   5.174   3.356  0.3628  0.5558 -0.5643
 6579TIP3    H141228   1.944   5.263   3.323 -0.1931  1.2058  0.8497
 6579TIP3    H241229   2.019   5.146   3.383  0.5078  0.7674 -0.8114
 6580TIP3   OH241230   1.510   5.527  16.236  0.0227 -0.2428 -0.0226
 6580TIP3    H141231   1.540   5.570  16.316  1.4081 -0.2665 -0.5053
 6580TIP3    H241232   1.415   5.530  16.242 -0.0079  3.2075 -0.2148
 6581TIP3   OH241233   6.113   2.757   1.803  0.9332  1.0202  0.2132
 6581TIP3    H141234   6.190   2.703   1.823 -0.7660 -1.2817  1.0667
 6581TIP3    H241235   6.083   2.788   1.889 -0.8348 -0.7602  0.2979
 6582TIP3   OH241236   4.654   1.147  16.610 -1.2251 -0.4792  0.0535
 6582TIP3    H141237   4.701   1.079  16.560  0.1607  0.0855  0.5223
 6582TIP3    H241238   4.621   1.101  16.687  1.4564 -0.3336  1.4264
 6583TIP3   OH241239   5.547   3.691  12.027  0.3354 -0.4728  0.3873
 6583TIP3    H141240   5.533   3.651  11.941  0.5268  0.3589 -0.0425
 6583TIP3    H241241   5.514   3.626  12.090 -0.0103 -0.9946 -0.3223
 6584TIP3   OH241242   5.255   1.391  12.082  0.1319 -0.3687  0.1391
 6584TIP3    H141243   5.188   1.367  12.018  0.9727  0.5388 -1.1320
 6584TIP3    H241244   5.256   1.319  12.144 -3.1523  0.3154  1.1727
 6585TIP3   OH241245   6.410   1.900   6.606  0.1320  0.0894 -0.5815
 6585TIP3    H141246   6.358   1.851   6.543 -1.1748  0.4751  0.1642
 6585TIP3    H241247   6.368   1.986   6.612  0.0946 -0.0061  0.9606
 6586TIP3   OH241248   1.941   2.610   5.203  0.6462 -0.3725  0.3005
 6586TIP3    H141249   1.881   2.661   5.258  1.6060  0.8814  0.2344
 6586TIP3    H241250   1.887   2.540   5.167 -0.4694 -0.0445  1.2604
 6587TIP3   OH241251   1.266   4.939   0.612  0.6352  0.3636  0.4062
 6587TIP3    H141252   1.301   4.851   0.607  1.0741  0.4321  1.8231
 6587TIP3    H241253   1.326   4.992   0.560  0.6917 -0.0780  0.0173
 6588TIP3   OH241254   3.559   5.039  13.260  0.2678  0.0684  0.2162
 6588TIP3    H141255   3.468   5.062  13.277  0.3966  0.6637  0.1143
 6588TIP3    H241256   3.565   4.946  13.283 -0.4689 -0.0859 -0.1873
 6589TIP3   OH241257   0.726   3.496   1.204 -0.4374 -0.0483  0.4386
 6589TIP3    H141258   0.793   3.526   1.266 -0.0810 -0.0099  0.0400
 6589TIP3    H241259   0.768   3.504   1.118 -1.4176  1.2739  0.0561
 6590TIP3   OH241260   1.501   1.237  11.059 -0.1547  0.1886 -0.3868
 6590TIP3    H141261   1.413   1.219  11.092 -1.1736  2.9027 -1.3092
 6590TIP3    H241262   1.541   1.151  11.049 -2.2071 -1.0690  1.3111
 6591TIP3   OH241263   1.939   2.676   1.020 -0.2006 -0.5419  0.2926
 6591TIP3    H141264   1.980   2.762   1.011 -0.9486 -0.0434  1.4548
 6591TIP3    H241265   1.971   2.626   0.944 -0.6177  1.0998 -1.0188
 6592TIP3   OH241266   2.842   4.073  14.172 -0.3343  0.5108 -0.1771
 6592TIP3    H141267   2.780   4.127  14.220  0.3173  0.4286  0.7840
 6592TIP3    H241268   2.884   4.018  14.239  0.2727  0.0769 -0.8936
 6593TIP3   OH241269   4.178   4.498  13.298 -0.7379  0.6021 -0.4396
 6593TIP3    H141270   4.161   4.429  13.232 -0.5447 -0.2260  0.3592
 6593TIP3    H241271   4.273   4.498  13.308 -0.6616  1.6076 -1.0721
 6594TIP3   OH241272   5.925   4.811   5.823 -0.4949  0.0409  0.0131
 6594TIP3    H141273   6.017   4.835   5.832 -0.8084  0.9603  0.9942
 6594TIP3    H241274   5.878   4.894   5.834 -1.4289 -0.3859 -0.7032
 6595TIP3   OH241275   0.329   5.276  15.884 -0.1763 -0.2675 -0.2647
 6595TIP3    H141276   0.400   5.216  15.861  0.5261  0.0243  1.0153
 6595TIP3    H241277   0.319   5.333  15.807  0.9427 -0.3499 -0.4817
 6596TIP3   OH241278   0.718   2.620  12.105  0.1630  0.4494 -0.2950
 6596TIP3    H141279   0.734   2.558  12.034 -0.7316 -0.7696  0.5177
 6596TIP3    H241280   0.802   2.626  12.150  0.3306  0.0211 -0.5418
 6597TIP3   OH241281   2.467   4.229  12.193 -0.2906 -0.3724 -0.4878
 6597TIP3    H141282   2.397   4.286  12.159  0.0303  0.2709 -0.0791
 6597TIP3    H241283   2.548   4.274  12.170 -0.0484 -0.3694  0.3690
 6598TIP3   OH241284   6.778   5.761   3.285 -0.2257  0.4489  0.4884
 6598TIP3    H141285   6.852   5.712   3.249 -1.8614 -2.9467  1.3176
 6598TIP3    H241286   6.759   5.828   3.220  2.1545 -0.0254 -0.7928
 6599TIP3   OH241287   0.649   3.008  16.048 -0.1145  0.4543 -0.4972
 6599TIP3    H141288   0.591   2.988  16.122 -0.1942 -0.2974 -0.7606
 6599TIP3    H241289   0.607   3.083  16.006 -1.3619 -0.5788 -1.1647
 6600TIP3   OH241290   4.313   0.414   1.393 -0.1248  0.1531 -0.2907
 6600TIP3    H141291   4.224   0.436   1.366 -0.0186 -0.2902 -1.0363
 6600TIP3    H241292   4.305   0.390   1.485 -0.6612  0.7656 -0.1695
 6601TIP3   OH241293   0.158   1.024   2.187 -0.5370 -0.0879  0.2752
 6601TIP3    H141294   0.126   1.079   2.259 -2.3069 -1.5647  0.6821
 6601TIP3    H241295   0.082   0.973   2.160  0.3626 -0.3943 -1.9298
 6602TIP3   OH241296   5.574   6.290  15.661  0.1364  0.6549  0.0099
 6602TIP3    H141297   5.662   6.325  15.647 -0.3449  1.3355 -1.4551
 6602TIP3    H241298   5.564   6.291  15.756  1.4204  1.3065  0.1709
 6603TIP3   OH241299   4.334   0.877   4.093 -0.0314 -0.3670 -0.0064
 6603TIP3    H141300   4.293   0.922   4.019 -0.4690  1.1040  1.0726
 6603TIP3    H241301   4.316   0.934   4.168  2.6769 -0.4072  0.7884
 6604TIP3   OH241302   2.783   1.557  13.456 -0.7037 -0.0689 -0.6187
 6604TIP3    H141303   2.709   1.607  13.490 -0.3615  0.2200 -0.2921
 6604TIP3    H241304   2.745   1.498  13.391 -1.2984 -0.3106 -0.0549
 6605TIP3   OH241305   1.771   3.361   0.903  0.2310  0.5205  0.5921
 6605TIP3    H141306   1.677   3.346   0.910  0.2110  1.1901  2.1422
 6605TIP3    H241307   1.780   3.457   0.908  1.0063  0.4407  0.8327
 6606TIP3   OH241308   5.284   3.088   0.546 -0.6853  0.2554  0.2139
 6606TIP3    H141309   5.314   3.115   0.633 -1.1454 -0.9118  0.7500
 6606TIP3    H241310   5.331   3.146   0.486  1.1128 -0.1734  1.1272
 6607TIP3   OH241311   4.750   6.204   2.878  0.3817  0.0611  0.1113
 6607TIP3    H141312   4.747   6.299   2.866 -0.0497  0.0450  0.0773
 6607TIP3    H241313   4.762   6.169   2.790  1.8369  0.1314  0.2604
 6608TIP3   OH241314   2.473   4.377  13.232  0.4013  0.1685  0.3396
 6608TIP3    H141315   2.505   4.432  13.161 -1.1229 -0.0909 -0.5856
 6608TIP3    H241316   2.441   4.439  13.298  0.9381  0.4007  0.3856
 6609TIP3   OH241317   5.641   0.500  12.136 -0.2256 -0.1932 -0.3394
 6609TIP3    H141318   5.587   0.496  12.057 -2.5543  0.2667  1.1269
 6609TIP3    H241319   5.581   0.532  12.204  1.7810 -0.2300  1.5439
 6610TIP3   OH241320   0.000   5.863  15.377  0.0733  0.5483  0.2376
 6610TIP3    H141321  -0.008   5.770  15.398  0.6319  0.4110 -0.1034
 6610TIP3    H241322  -0.068   5.880  15.312  1.2131 -0.1206 -1.2059
 6611TIP3   OH241323   2.997   5.150  12.047 -0.8744 -0.1006 -0.5787
 6611TIP3    H141324   3.071   5.159  12.108  0.1609  0.7874 -1.9077
 6611TIP3    H241325   2.923   5.187  12.094  0.2641  2.1517 -0.4536
 6612TIP3   OH241326   4.072   3.022  14.999 -0.0653  0.2695 -0.4302
 6612TIP3    H141327   4.025   3.106  14.993 -0.6909  0.0159  0.5180
 6612TIP3    H241328   4.104   3.020  15.089  0.1605 -0.4004 -0.5232
 6613TIP3   OH241329   3.789   3.376  14.392 -0.9295  0.4636  0.1865
 6613TIP3    H141330   3.816   3.456  14.348  0.8091 -0.5166 -0.6480
 6613TIP3    H241331   3.772   3.402  14.483  0.5356  1.6176  0.1596
 6614TIP3   OH241332   5.731   3.410   3.799  0.6421  0.3568  0.4530
 6614TIP3    H141333   5.777   3.360   3.732  0.3434  0.1968  0.3657
 6614TIP3    H241334   5.698   3.487   3.754  0.1544  0.0836  0.3397
 6615TIP3   OH241335   2.459   6.779   0.525  0.0400  0.1633  0.0385
 6615TIP3    H141336   2.472   6.725   0.603 -0.7464 -1.2100 -0.7505
 6615TIP3    H241337   2.547   6.791   0.489  0.1320 -1.4658 -0.3281
 6616TIP3   OH241338   3.770   4.537  14.894  0.3280  0.8264 -0.8860
 6616TIP3    H141339   3.692   4.493  14.859  0.9342 -0.9003 -0.1720
 6616TIP3    H241340   3.763   4.627  14.862 -1.9620  0.7286 -0.8195
 6617TIP3   OH241341   5.236   4.346   2.557  0.1634  0.0033  0.3397
 6617TIP3    H141342   5.259   4.361   2.649 -0.6443  2.1764  0.2530
 6617TIP3    H241343   5.141   4.339   2.556 -0.1288  2.8395 -0.5679
 6618TIP3   OH241344   6.552   2.562   4.503  0.4444 -0.3112 -0.5020
 6618TIP3    H141345   6.560   2.634   4.565  0.6746  0.0700 -0.9670
 6618TIP3    H241346   6.586   2.486   4.549  0.7271 -0.0063 -0.2024
 6619TIP3   OH241347   5.488   0.380   1.952  0.0324  0.6074 -0.1926
 6619TIP3    H141348   5.442   0.298   1.970  0.4965  0.1048 -1.2272
 6619TIP3    H241349   5.567   0.375   2.005  0.7279 -0.2494 -1.2664
 6620TIP3   OH241350   2.492   3.213  13.752  0.1261 -0.1167  0.2690
 6620TIP3    H141351   2.546   3.275  13.703 -1.5152  0.2978 -1.1410
 6620TIP3    H241352   2.450   3.160  13.684 -1.9567  0.2052  1.2356
 6621TIP3   OH241353   2.039   2.441   2.553  0.1338 -0.0246  0.1072
 6621TIP3    H141354   1.951   2.404   2.539  0.3281  0.0075 -1.3828
 6621TIP3    H241355   2.094   2.394   2.490  1.5283 -1.1451  2.0733
 6622TIP3   OH241356   4.551   4.966  14.180 -0.0930 -0.0629 -0.0517
 6622TIP3    H141357   4.476   4.907  14.167 -0.4568  0.2970  0.3956
 6622TIP3    H241358   4.520   5.051  14.148  0.9210 -0.3992 -2.0809
 6623TIP3   OH241359   5.252   4.642   5.917 -0.3270  0.3744 -0.1666
 6623TIP3    H141360   5.333   4.689   5.896  0.3644 -0.8619 -0.3852
 6623TIP3    H241361   5.264   4.556   5.877 -2.3339  0.5975 -1.3777
 6624TIP3   OH241362   0.073   2.766  16.387 -0.1495  0.3091 -0.3626
 6624TIP3    H141363   0.139   2.702  16.416  0.6206  1.0228 -0.4770
 6624TIP3    H241364   0.110   2.851  16.412  0.4613  0.9722 -3.1256
 6625TIP3   OH241365   4.732   1.566   2.562 -0.1536 -0.1616  0.5085
 6625TIP3    H141366   4.678   1.609   2.496 -1.3048 -0.6244  1.1196
 6625TIP3    H241367   4.752   1.635   2.625  1.2694  0.3741 -0.4808
 6626TIP3   OH241368   6.484   1.539   0.858 -0.2289 -0.2927  0.6365
 6626TIP3    H141369   6.529   1.559   0.940 -1.1201 -1.5934  1.4761
 6626TIP3    H241370   6.445   1.623   0.831  0.6045  0.2867  1.1907
 6627TIP3   OH241371   4.409   1.472   1.631 -0.0029  0.1787  0.0623
 6627TIP3    H141372   4.404   1.424   1.713  1.6545 -0.1178  0.0291
 6627TIP3    H241373   4.440   1.408   1.567 -0.3716  0.6390 -0.5913
 6628TIP3   OH241374   3.446   1.602   0.020  0.2922 -0.0309  0.3944
 6628TIP3    H141375   3.421   1.673  -0.039  0.1996 -0.9012 -0.6540
 6628TIP3    H241376   3.542   1.606   0.022  0.2451  1.1059  1.6217
 6629TIP3   OH241377   2.209   4.618   3.548 -0.0658 -0.0668  0.1219
 6629TIP3    H141378   2.180   4.643   3.461  1.0055 -0.7174 -0.4554
 6629TIP3    H241379   2.299   4.651   3.554  0.3129 -1.1051  0.4825
 6630TIP3   OH241380   4.178   0.867  13.278  0.0995  0.0063 -0.0188
 6630TIP3    H141381   4.224   0.828  13.352  0.6496  0.5920 -0.0461
 6630TIP3    H241382   4.156   0.794  13.221  2.0653 -0.1703 -0.6104
 6631TIP3   OH241383   1.978   6.476   0.314 -0.1216 -0.8336 -0.1725
 6631TIP3    H141384   2.039   6.545   0.339 -0.4742 -0.3032 -0.7491
 6631TIP3    H241385   1.989   6.409   0.381  1.5382 -1.0168 -0.5685
 6632TIP3   OH241386   1.204   3.026   5.149  0.2840  0.4084  0.5705
 6632TIP3    H141387   1.287   3.002   5.107 -0.0308  1.8111 -0.9768
 6632TIP3    H241388   1.146   2.952   5.130  0.9601 -0.2453  1.0127
 6633TIP3   OH241389   1.828   2.832  13.277 -0.6418  0.3014 -0.1686
 6633TIP3    H141390   1.885   2.815  13.352 -0.3623 -0.1746 -0.4770
 6633TIP3    H241391   1.855   2.767  13.212 -2.8665 -1.3229  0.3933
 6634TIP3   OH241392   6.640   5.198  15.195  0.3284  0.2131  0.0924
 6634TIP3    H141393   6.601   5.285  15.180 -2.7450 -0.4905  2.7943
 6634TIP3    H241394   6.678   5.174  15.111  0.2377  3.6397 -1.0923
 6635TIP3   OH241395   3.697   1.142   1.933 -0.6902 -0.7538  0.0798
 6635TIP3    H141396   3.792   1.145   1.942 -0.7731 -0.6331  1.0312
 6635TIP3    H241397   3.670   1.069   1.989 -1.0949 -1.3151 -0.8173
 6636TIP3   OH241398   6.247   2.358  10.906  0.1405  0.2917  0.4426
 6636TIP3    H141399   6.277   2.421  10.973 -0.5205  0.1658  0.8636
 6636TIP3    H241400   6.297   2.279  10.924 -0.3205  0.1316  1.0477
 6637TIP3   OH241401   1.071   5.630   0.268  0.2022  0.0756 -0.1722
 6637TIP3    H141402   1.079   5.656   0.176  0.6062 -0.2742 -0.2377
 6637TIP3    H241403   1.083   5.711   0.317 -2.5863  0.8001 -0.4854
 6638TIP3   OH241404   1.597   5.310   0.935 -0.1223  0.2995  0.6659
 6638TIP3    H141405   1.506   5.336   0.948  0.0724  0.3126  2.1777
 6638TIP3    H241406   1.642   5.341   1.014  1.1338  0.0297  0.0745
 6639TIP3   OH241407   6.618   1.525   0.386  0.2365  0.1049  0.5178
 6639TIP3    H141408   6.701   1.526   0.339  0.3047  0.1986  0.6402
 6639TIP3    H241409   6.556   1.568   0.326  0.9516  2.9903  1.6853
 6640TIP3   OH241410   0.504   6.784  14.430  0.0377  0.0582  0.4934
 6640TIP3    H141411   0.423   6.800  14.381 -1.1612  0.1697  2.4392
 6640TIP3    H241412   0.569   6.766  14.362 -1.3762  0.9256 -1.1777
 6641TIP3   OH241413   1.737   0.843  12.256 -0.2811 -0.6100 -0.1276
 6641TIP3    H141414   1.824   0.873  12.230 -0.2272 -0.3164  0.3787
 6641TIP3    H241415   1.679   0.916  12.237  0.0374  0.3677  2.2736
 6642TIP3   OH241416   6.495   4.764  11.096  0.4526 -0.0498  0.0647
 6642TIP3    H141417   6.458   4.704  11.031  1.1169  0.7942 -1.1286
 6642TIP3    H241418   6.562   4.712  11.141 -0.4923 -0.8561  0.5841
 6643TIP3   OH241419   0.182   0.974  13.674 -0.8541 -0.4040 -0.5809
 6643TIP3    H141420   0.145   1.062  13.682 -0.8731 -0.5361  1.1682
 6643TIP3    H241421   0.115   0.916  13.709  0.1820 -0.8454  0.7446
 6644TIP3   OH241422   6.710   6.480   1.485 -0.1050  0.2636 -0.1097
 6644TIP3    H141423   6.730   6.573   1.499  1.8939 -0.2627  0.8161
 6644TIP3    H241424   6.672   6.451   1.568  0.7844 -0.0962  0.1862
 6645TIP3   OH241425   2.539   3.948  10.777 -0.2213 -0.1446 -0.3644
 6645TIP3    H141426   2.530   4.006  10.701  1.5352  0.8606  0.1300
 6645TIP3    H241427   2.473   3.981  10.839 -1.1085 -0.4563 -1.1097
 6646TIP3   OH241428   1.694   4.625  15.223 -0.1506  1.0306 -0.2805
 6646TIP3    H141429   1.765   4.628  15.287 -0.0570  0.4085 -0.3489
 6646TIP3    H241430   1.732   4.578  15.149 -1.7423 -2.6852  1.0800
 6647TIP3   OH241431   4.850   3.307  13.219 -0.3364  0.0658 -0.2738
 6647TIP3    H141432   4.845   3.360  13.298  0.0931  0.0121 -0.2089
 6647TIP3    H241433   4.775   3.334  13.167 -1.3696 -0.7996  0.7141
 6648TIP3   OH241434   5.952   5.074   1.187 -0.1061  0.0865  0.2051
 6648TIP3    H141435   5.968   5.135   1.259 -1.5572 -0.1766  0.7816
 6648TIP3    H241436   5.877   5.022   1.216  1.1137 -2.0556 -0.2188
 6649TIP3   OH241437   5.020   6.348  14.542  0.0108 -0.4503  0.0429
 6649TIP3    H141438   4.994   6.440  14.532  2.5484  0.2109 -1.4378
 6649TIP3    H241439   4.941   6.298  14.521 -1.3378  1.3635  0.5342
 6650TIP3   OH241440   3.704   1.747   1.870  0.2073 -0.1355 -0.4209
 6650TIP3    H141441   3.782   1.691   1.878 -0.6755 -1.3102  0.1749
 6650TIP3    H241442   3.730   1.814   1.806  1.6589 -0.5713 -0.3359
 6651TIP3   OH241443   4.339   6.140   0.366  0.3278  0.1637 -0.3584
 6651TIP3    H141444   4.328   6.108   0.276  0.1177  0.9713 -0.6253
 6651TIP3    H241445   4.294   6.075   0.420 -1.8888  1.0488 -1.0587
 6652TIP3   OH241446   3.315   2.248  11.797 -0.6129 -1.1612 -0.2866
 6652TIP3    H141447   3.292   2.248  11.890 -0.5603 -1.0570 -0.2727
 6652TIP3    H241448   3.234   2.272  11.752 -0.7839 -1.7610 -0.3080
 6653TIP3   OH241449   2.639   2.392   1.376  0.0914  0.3349  0.0796
 6653TIP3    H141450   2.717   2.418   1.426 -0.5331  1.5095  0.4797
 6653TIP3    H241451   2.569   2.445   1.412 -0.4145  1.1495 -1.9898
 6654TIP3   OH241452   5.786   5.314   6.390 -0.0997  1.0527 -0.0738
 6654TIP3    H141453   5.840   5.346   6.462  0.8423 -0.4859 -0.0672
 6654TIP3    H241454   5.786   5.219   6.399  0.0988  0.8031 -2.1134
 6655TIP3   OH241455   2.878   5.467   0.182 -0.0066  0.6084  0.5350
 6655TIP3    H141456   2.789   5.500   0.194 -0.5308 -0.0147 -1.2955
 6655TIP3    H241457   2.935   5.542   0.203 -1.0340  1.5653 -0.0191
 6656TIP3   OH241458   4.107   6.427  12.772 -0.1686 -0.5144 -0.1853
 6656TIP3    H141459   4.064   6.408  12.689  0.2936  1.6815 -1.0110
 6656TIP3    H241460   4.104   6.523  12.778  0.3388 -0.6007  2.0554
 6657TIP3   OH241461   3.795   5.225   3.888  0.4429 -0.3088 -0.1713
 6657TIP3    H141462   3.793   5.252   3.979 -0.4742 -2.1623  0.4080
 6657TIP3    H241463   3.715   5.174   3.876 -0.0346  0.7952 -2.3282
 6658TIP3   OH241464   1.129   5.150  12.084 -0.2436 -0.4117 -0.6733
 6658TIP3    H141465   1.149   5.213  12.154  0.6439 -0.6328 -0.7185
 6658TIP3    H241466   1.037   5.167  12.063 -0.4081 -0.0698  0.2677
 6659TIP3   OH241467   1.479   6.681   5.104  0.6357 -0.5981  0.4987
 6659TIP3    H141468   1.519   6.720   5.182  0.2201  0.6725  0.1047
 6659TIP3    H241469   1.494   6.587   5.114  0.8453 -0.4384  1.9658
 6660TIP3   OH241470   4.351   6.819  15.687  0.6772  0.3068  0.1016
 6660TIP3    H141471   4.380   6.730  15.708  0.9063  0.2201 -0.5580
 6660TIP3    H241472   4.263   6.825  15.724  0.7319 -0.1326  0.3088
 6661TIP3   OH241473   1.077   4.953  10.955  0.2246  0.2442 -0.2050
 6661TIP3    H141474   1.144   4.898  10.915  0.7437  0.2256  0.6771
 6661TIP3    H241475   1.040   4.899  11.025 -0.3107  0.4720 -0.3045
 6662TIP3   OH241476   2.912   1.234   1.510 -0.2116 -0.3021 -0.0548
 6662TIP3    H141477   2.819   1.214   1.503 -0.4534  0.7668 -0.0773
 6662TIP3    H241478   2.950   1.203   1.428 -0.3642 -1.6635  0.3797
 6663TIP3   OH241479   4.384   6.603  12.937 -0.2492 -0.1723 -0.4909
 6663TIP3    H141480   4.290   6.617  12.937 -0.2461  0.2029  1.5245
 6663TIP3    H241481   4.407   6.592  12.845 -1.9246  1.8888 -1.2345
 6664TIP3   OH241482   0.474   5.917   3.980  0.2823  0.0233 -0.2218
 6664TIP3    H141483   0.448   5.825   3.976  0.5181 -0.0142 -1.0066
 6664TIP3    H241484   0.409   5.958   4.037 -0.4136 -0.4270 -0.6823
 6665TIP3   OH241485   4.800   5.398   0.590 -0.4806  0.2023  0.6759
 6665TIP3    H141486   4.880   5.361   0.551  0.2601  2.0981  0.2878
 6665TIP3    H241487   4.750   5.321   0.617  0.3641 -1.1424 -1.2504
 6666TIP3   OH241488   3.141   2.204   0.910 -0.5327 -0.2540  0.2834
 6666TIP3    H141489   3.207   2.170   0.850  1.5126  2.3346  0.9094
 6666TIP3    H241490   3.173   2.181   0.997 -0.9509  0.1925  0.5592
 6667TIP3   OH241491   1.522   6.203  15.944 -0.3380 -0.5016  0.1822
 6667TIP3    H141492   1.434   6.219  15.977 -1.3388  0.6194 -2.7417
 6667TIP3    H241493   1.510   6.166  15.857  2.1048 -1.5900  0.2186
 6668TIP3   OH241494   2.826   6.304  13.670 -0.3752 -0.3091  0.5518
 6668TIP3    H141495   2.808   6.367  13.600 -0.3319 -1.7561 -0.8180
 6668TIP3    H241496   2.744   6.299  13.720 -0.9596 -0.4943 -0.4124
 6669TIP3   OH241497   3.591   3.227   2.462  0.0295  0.1124 -0.2543
 6669TIP3    H141498   3.572   3.146   2.510 -1.8462  0.9280  0.4704
 6669TIP3    H241499   3.677   3.212   2.424  0.1744 -1.8314  0.6974
 6670TIP3   OH241500   2.437   5.590  11.721  0.1829 -0.2638  0.3137
 6670TIP3    H141501   2.351   5.606  11.761  0.4358  1.9381  0.1180
 6670TIP3    H241502   2.450   5.496  11.729 -2.6719 -0.8374 -0.5306
 6671TIP3   OH241503   0.914   2.948   4.641  0.1690  0.1273 -0.4010
 6671TIP3    H141504   0.920   2.885   4.712  1.4079 -0.2812 -0.8330
 6671TIP3    H241505   0.909   3.033   4.685  2.6687  0.0377  0.2601
 6672TIP3   OH241506   1.458   3.919   5.155 -0.5486  0.0379 -0.5473
 6672TIP3    H141507   1.418   3.864   5.222  0.0888 -0.9726 -0.9766
 6672TIP3    H241508   1.476   4.002   5.199  0.1591 -0.7190  0.6237
 6673TIP3   OH241509   3.456   3.645  14.838  0.1405  0.1425 -0.2985
 6673TIP3    H141510   3.501   3.699  14.773  1.0230 -0.7791 -0.4795
 6673TIP3    H241511   3.377   3.613  14.793 -0.7399  1.7517  0.0147
 6674TIP3   OH241512   4.296   5.784  14.106  0.2015 -0.1300 -0.0892
 6674TIP3    H141513   4.289   5.712  14.169 -1.8541  0.6754  0.7076
 6674TIP3    H241514   4.316   5.742  14.023  1.6805 -1.3503  0.8395
 6675TIP3   OH241515   6.549   2.391   2.099  0.3926  0.1104 -0.1966
 6675TIP3    H141516   6.547   2.303   2.063 -1.3420 -0.3863  0.9726
 6675TIP3    H241517   6.637   2.423   2.080  0.7255 -1.4735 -1.5428
 6676TIP3   OH241518   5.677   6.091  17.114  0.3677  0.0042  0.0211
 6676TIP3    H141519   5.718   6.168  17.074  1.8158 -1.3460 -1.2746
 6676TIP3    H241520   5.751   6.039  17.146 -0.6247 -0.4870  1.6041
 6677TIP3   OH241521   0.839   3.830  16.807  0.2611  0.8190  0.3667
 6677TIP3    H141522   0.878   3.878  16.734  1.0349 -0.8105 -0.3523
 6677TIP3    H241523   0.905   3.833  16.876  1.5373 -1.4613 -0.6510
 6678TIP3   OH241524   1.474   1.097   4.532  0.0411 -0.3321  0.2671
 6678TIP3    H141525   1.422   1.016   4.533  0.2084 -0.4451  0.0527
 6678TIP3    H241526   1.431   1.154   4.596  0.3054 -0.8296  0.9025
 6679TIP3   OH241527   1.761   6.765   5.517 -0.1214 -0.3595  0.6572
 6679TIP3    H141528   1.812   6.845   5.531  0.7114 -0.6936 -0.3384
 6679TIP3    H241529   1.722   6.746   5.602 -0.1297  0.9679  0.9627
 6680TIP3   OH241530   4.682   2.990   5.562  0.1437 -0.4443 -0.3199
 6680TIP3    H141531   4.591   2.963   5.569  0.6478 -2.3821 -0.6439
 6680TIP3    H241532   4.680   3.072   5.513 -1.4293 -0.3267 -0.0852
 6681TIP3   OH241533   3.002   3.447   0.554 -0.1335  0.1360 -0.8014
 6681TIP3    H141534   2.990   3.460   0.648  0.5415 -1.5150 -0.4518
 6681TIP3    H241535   2.945   3.373   0.532  0.0174  0.2474 -1.6178
 6682TIP3   OH241536   5.022   5.062  14.306  0.3510 -0.2525 -0.0129
 6682TIP3    H141537   4.947   5.011  14.276  0.3730 -0.6029  0.5225
 6682TIP3    H241538   5.012   5.147  14.263  1.0478 -1.1242 -2.0408
 6683TIP3   OH241539   1.282   4.266   5.321  0.5857 -0.1433 -0.2830
 6683TIP3    H141540   1.279   4.354   5.357  1.7299  0.1882 -0.9561
 6683TIP3    H241541   1.297   4.209   5.397  2.3970  0.4918 -0.1347
 6684TIP3   OH241542   1.618   6.107  14.840 -0.0782 -0.4253 -0.1707
 6684TIP3    H141543   1.581   6.147  14.919  0.6792 -0.1061  0.0354
 6684TIP3    H241544   1.543   6.090  14.784 -0.4271  1.5650 -0.3946
 6685TIP3   OH241545   5.197   5.294  12.831 -0.0651 -0.3586 -0.7906
 6685TIP3    H141546   5.124   5.294  12.893  0.6882 -1.9898  0.1747
 6685TIP3    H241547   5.269   5.255  12.880  0.9826 -0.3212 -2.2517
 6686TIP3   OH241548   5.696   6.304  13.461  0.0911 -0.1074 -0.4456
 6686TIP3    H141549   5.662   6.241  13.524  0.2176 -0.0091 -0.2797
 6686TIP3    H241550   5.683   6.262  13.376  0.3384 -0.4288 -0.3243
 6687TIP3   OH241551   1.911   1.150   1.896  0.1837  0.4409 -0.4444
 6687TIP3    H141552   1.952   1.068   1.923 -0.6535  0.1890  0.1055
 6687TIP3    H241553   1.873   1.131   1.810 -0.2297  0.1668 -0.2060
 6688TIP3   OH241554   0.488   4.008  12.578  0.3049  0.0685  0.3975
 6688TIP3    H141555   0.533   4.081  12.619  1.2369  0.0277 -0.5270
 6688TIP3    H241556   0.460   4.041  12.493 -2.6982  0.5489  1.4227
 6689TIP3   OH241557   0.760   2.112  13.735 -0.8175 -0.2226  0.2534
 6689TIP3    H141558   0.746   2.182  13.798  1.6852 -0.0179  0.6915
 6689TIP3    H241559   0.707   2.039  13.767 -2.3418  0.9960  0.5809
 6690TIP3   OH241560   0.339   0.131   5.474  0.5293 -0.4177 -0.0299
 6690TIP3    H141561   0.353   0.225   5.484  2.9624 -0.8465  1.2375
 6690TIP3    H241562   0.421   0.098   5.437 -0.3739 -2.0402 -0.7026
 6691TIP3   OH241563   5.048   0.557   6.350 -0.4053 -0.1441 -0.1467
 6691TIP3    H141564   5.114   0.519   6.408 -0.4292 -0.0866 -0.0812
 6691TIP3    H241565   4.987   0.600   6.409 -2.0273 -2.4794  0.0350
 6692TIP3   OH241566   0.478   6.150  12.496  0.3055  0.3121 -0.0738
 6692TIP3    H141567   0.384   6.146  12.474  0.5757  0.7607 -1.4071
 6692TIP3    H241568   0.522   6.110  12.421  1.2058  0.4843  0.3514
 6693TIP3   OH241569   1.032   2.667   0.931 -0.7582  0.0374 -0.5663
 6693TIP3    H141570   1.096   2.705   0.871 -0.0841  0.7126  0.5473
 6693TIP3    H241571   1.049   2.573   0.928 -0.1527  0.1482 -0.7657
 6694TIP3   OH241572   0.748   1.486   1.931  0.1254 -0.1910 -0.5570
 6694TIP3    H141573   0.717   1.396   1.925 -1.4907  0.2380  0.8372
 6694TIP3    H241574   0.745   1.519   1.840  1.5166 -1.7318 -1.2138
 6695TIP3   OH241575   0.199   0.119   4.128  0.1188 -0.4405 -0.5181
 6695TIP3    H141576   0.194   0.032   4.167  1.7537 -0.7702 -0.9693
 6695TIP3    H241577   0.152   0.176   4.189  1.7546 -1.0931  1.4903
 6696TIP3   OH241578   6.710   1.799  14.164  0.1639  0.2468  0.2476
 6696TIP3    H141579   6.665   1.870  14.117  0.5335  1.0759  1.1011
 6696TIP3    H241580   6.795   1.793  14.121 -0.3341 -0.5597 -0.6473
 6697TIP3   OH241581   0.516   0.645  13.713  0.2022 -0.5815 -0.3931
 6697TIP3    H141582   0.491   0.602  13.632  1.4191 -1.6516 -0.2194
 6697TIP3    H241583   0.564   0.723  13.685  0.4656 -0.8540 -0.7085
 6698TIP3   OH241584   1.430   1.176  11.587 -0.3889  0.6272 -0.6170
 6698TIP3    H141585   1.499   1.159  11.523  0.0076 -0.6869  0.1059
 6698TIP3    H241586   1.464   1.141  11.669 -2.0759 -0.4915 -0.3302
 6699TIP3   OH241587   1.979   5.357   4.595  0.1086 -0.4077 -0.1236
 6699TIP3    H141588   2.042   5.380   4.526  0.5790 -0.8001  0.1694
 6699TIP3    H241589   2.025   5.293   4.649 -1.5124 -2.9028 -1.5283
 6700TIP3   OH241590   6.241   5.634   5.127 -0.2464 -0.2230  0.3389
 6700TIP3    H141591   6.234   5.697   5.199 -1.1226  0.5551 -0.4077
 6700TIP3    H241592   6.335   5.623   5.113 -0.0869  0.7521  0.6169
 6701TIP3   OH241593   0.301   1.910   2.110  0.1131  0.1531 -0.1730
 6701TIP3    H141594   0.302   1.949   2.022 -0.5150  1.9340  0.5616
 6701TIP3    H241595   0.341   1.977   2.166  4.1737 -2.4289  0.4058
 6702TIP3   OH241596   3.479   4.331  15.214 -0.6687  0.2320  0.1017
 6702TIP3    H141597   3.402   4.300  15.167  0.2910  0.3384 -1.6253
 6702TIP3    H241598   3.534   4.371  15.147  2.2530 -2.4001  0.6675
 6703TIP3   OH241599   1.721   2.864  14.083 -0.1385  0.0823 -0.2560
 6703TIP3    H141600   1.689   2.893  14.169  1.6030  0.8592  0.1736
 6703TIP3    H241601   1.641   2.848  14.032 -1.2189  1.6667  0.8210
 6704TIP3   OH241602   2.115   6.432  14.665  0.0972  0.0055  0.1028
 6704TIP3    H141603   2.097   6.509  14.611  1.1396 -0.2671 -0.6650
 6704TIP3    H241604   2.127   6.361  14.602 -0.6287 -0.7536  0.7905
 6705TIP3   OH241605   4.188   5.053  15.122 -0.5655  0.4134  0.5530
 6705TIP3    H141606   4.158   5.005  15.045  0.4787  0.1186  0.3119
 6705TIP3    H241607   4.197   4.987  15.191 -0.9643  0.5864  0.7749
 6706TIP3   OH241608   4.324   5.048  11.512 -0.2488 -0.0949  0.2393
 6706TIP3    H141609   4.273   5.041  11.431 -0.7885  1.0188  0.4706
 6706TIP3    H241610   4.354   5.139  11.514  2.4806 -0.8750 -0.3136
 6707TIP3   OH241611   0.643   2.254  15.051  0.0895  0.0138 -0.5665
 6707TIP3    H141612   0.696   2.221  14.979  0.3788  1.5797 -1.1131
 6707TIP3    H241613   0.618   2.342  15.024  0.0095  0.5574  1.1331
 6708TIP3   OH241614   0.067   6.728  15.831 -0.3683  0.2162  0.1422
 6708TIP3    H141615   0.124   6.750  15.905 -0.4999 -0.1306  0.3507
 6708TIP3    H241616  -0.020   6.722  15.870 -0.7030  1.6711 -0.3436
 6709TIP3   OH241617   4.612   0.854   2.561  0.5879  0.1195  0.5631
 6709TIP3    H141618   4.582   0.793   2.493 -2.3665  2.4209 -0.3863
 6709TIP3    H241619   4.690   0.894   2.525  0.1639 -0.0976 -0.6349
 6710TIP3   OH241620   4.064   4.170  13.329 -0.4964  0.2679  0.3048
 6710TIP3    H141621   4.047   4.221  13.408 -0.0818  0.2499  0.4075
 6710TIP3    H241622   4.059   4.233  13.257  0.6175  0.5827  0.4864
 6711TIP3   OH241623   3.875   3.605   1.688  0.0614 -0.0172 -0.8478
 6711TIP3    H141624   3.800   3.642   1.641 -0.7227  0.3989  0.6655
 6711TIP3    H241625   3.836   3.544   1.751  0.8365  1.2906  0.9743
 6712TIP3   OH241626   1.423   3.232   3.087 -0.2202  0.3036 -0.1586
 6712TIP3    H141627   1.340   3.238   3.135  1.4040  0.0309  2.9184
 6712TIP3    H241628   1.439   3.321   3.056 -0.9859  0.6785  0.4744
 6713TIP3   OH241629   3.819   6.276  14.495 -0.1181  0.0516 -0.1723
 6713TIP3    H141630   3.870   6.286  14.415 -0.5592  2.2479 -0.2482
 6713TIP3    H241631   3.878   6.231  14.556  0.3710 -1.2775 -1.5555
 6714TIP3   OH241632   2.762   2.026   0.167 -0.1765 -0.5905 -0.4653
 6714TIP3    H141633   2.803   1.980   0.094 -0.2864 -0.9617 -0.2987
 6714TIP3    H241634   2.830   2.084   0.201 -0.1101 -0.4502 -0.8303
 6715TIP3   OH241635   0.573   4.589  16.520 -0.0815 -0.0623 -0.5703
 6715TIP3    H141636   0.547   4.499  16.538  0.3089 -0.4217 -1.7097
 6715TIP3    H241637   0.641   4.608  16.585 -0.5812 -0.3771  0.0533
 6716TIP3   OH241638   6.596   0.604   4.599 -0.0972  0.3831 -0.2878
 6716TIP3    H141639   6.508   0.606   4.638  0.4876 -0.2708  1.1280
 6716TIP3    H241640   6.639   0.529   4.641  0.7340 -0.0678 -1.8716
 6717TIP3   OH241641   0.057   1.100  17.213 -0.1745  0.7592 -0.3437
 6717TIP3    H141642  -0.004   1.158  17.258  0.4740  0.3478  1.1077
 6717TIP3    H241643   0.126   1.082  17.277 -0.2114 -1.4065 -0.8341
 6718TIP3   OH241644   1.934   3.301  12.064 -0.3692 -0.0191 -0.0750
 6718TIP3    H141645   1.850   3.259  12.082 -0.3414  0.6872  1.8853
 6718TIP3    H241646   1.971   3.319  12.150 -0.1392  3.5303 -0.7627
 6719TIP3   OH241647   4.606   6.004  14.701  0.2471 -0.0825  0.4010
 6719TIP3    H141648   4.700   5.997  14.716  0.0376 -0.0451  1.8938
 6719TIP3    H241649   4.588   6.098  14.707  0.7230  0.5858 -4.3456
 6720TIP3   OH241650   4.090   2.079  16.195  0.7497 -0.0445  0.7545
 6720TIP3    H141651   4.108   2.053  16.105  2.4988 -2.0779  1.5932
 6720TIP3    H241652   4.054   2.000  16.236 -1.0048  1.1345  1.6355
 6721TIP3   OH241653   4.351   2.079  17.156  0.6589 -0.0267  0.3441
 6721TIP3    H141654   4.299   2.022  17.101 -1.6445  1.6402  0.6571
 6721TIP3    H241655   4.411   2.123  17.095 -0.3171  0.1624 -0.5006
 6722TIP3   OH241656   5.644   3.237   1.868  0.3820 -0.2304  0.4209
 6722TIP3    H141657   5.645   3.208   1.960 -1.0538  0.1004  0.5724
 6722TIP3    H241658   5.731   3.214   1.834  0.9913 -0.2179  1.9004
 6723TIP3   OH241659   0.426   5.279   1.843 -0.1690  0.2905  0.3014
 6723TIP3    H141660   0.457   5.365   1.872  1.5775 -0.9746  2.6141
 6723TIP3    H241661   0.487   5.217   1.884 -2.9124 -2.1941  0.9646
 6724TIP3   OH241662   0.516   3.588  12.081  0.1336 -0.5860 -0.7370
 6724TIP3    H141663   0.602   3.595  12.039  0.6671  0.4351  0.4765
 6724TIP3    H241664   0.526   3.633  12.164 -1.9943  0.8513 -1.1879
 6725TIP3   OH241665   0.256   5.971   6.492 -0.5113  0.1914 -0.0520
 6725TIP3    H141666   0.275   5.883   6.457  1.7961  0.6622 -0.1060
 6725TIP3    H241667   0.252   6.027   6.414 -2.2321  0.1412 -0.0389
 6726TIP3   OH241668   2.848   0.525   4.590  0.3831  0.4337 -0.2980
 6726TIP3    H141669   2.801   0.571   4.660 -1.0807  0.3532 -1.1896
 6726TIP3    H241670   2.843   0.433   4.615 -0.2211  0.3958 -0.5325
 6727TIP3   OH241671   1.977   6.163   5.588 -0.0750 -0.7613  0.1845
 6727TIP3    H141672   1.885   6.141   5.570  0.0433 -0.2851 -1.0943
 6727TIP3    H241673   2.026   6.117   5.520  0.4554  0.5987 -0.3904
 6728TIP3   OH241674   3.790   0.491  12.802  0.9063 -0.0668  0.2994
 6728TIP3    H141675   3.873   0.469  12.845  1.1369 -0.1485 -0.1877
 6728TIP3    H241676   3.775   0.583  12.826  0.9234 -0.1726  0.7289
 6729TIP3   OH241677   2.413   5.704   4.151 -0.3800 -0.2750  0.2290
 6729TIP3    H141678   2.410   5.609   4.143 -0.9398 -0.4076  1.5823
 6729TIP3    H241679   2.443   5.735   4.066  1.8661 -1.7631  0.3922
 6730TIP3   OH241680   6.108   1.297   4.455  0.4656  0.5730  0.2035
 6730TIP3    H141681   6.166   1.261   4.389  0.0317 -0.6711  0.4778
 6730TIP3    H241682   6.165   1.351   4.510  0.9320  1.1572 -0.8177
 6731TIP3   OH241683   5.952   2.466  11.855  0.7680 -0.0801  0.0410
 6731TIP3    H141684   6.033   2.418  11.875  1.1451  0.1859 -0.8066
 6731TIP3    H241685   5.943   2.459  11.760  0.4753  0.9587 -0.0161
 6732TIP3   OH241686   3.532   1.607   0.400 -0.3856 -0.6348  0.1562
 6732TIP3    H141687   3.535   1.518   0.435 -0.9714 -1.2200 -1.1691
 6732TIP3    H241688   3.517   1.662   0.476 -0.1089 -1.6789  0.9995
 6733TIP3   OH241689   6.056   0.095  14.939  0.1967 -0.0863 -0.3806
 6733TIP3    H141690   6.054   0.056  14.852  1.8681  0.8487 -0.8892
 6733TIP3    H241691   6.052   0.020  14.999  0.4198 -0.8378 -1.2781
 6734TIP3   OH241692   6.544   4.135   2.948  0.4154  0.2819 -0.2117
 6734TIP3    H141693   6.585   4.101   2.868  1.2424  0.7583 -0.0008
 6734TIP3    H241694   6.480   4.198   2.916  0.9744  0.7146 -0.4906
 6735TIP3   OH241695   3.454   0.091   4.111 -0.4087  0.1886  0.3408
 6735TIP3    H141696   3.475   0.142   4.033 -1.5511 -0.7885 -0.6510
 6735TIP3    H241697   3.385   0.031   4.082 -0.9050 -0.1488  2.1283
 6736TIP3   OH241698   4.456   2.032  11.472 -0.4314  0.2111  0.1328
 6736TIP3    H141699   4.502   2.114  11.456  0.0036  0.3858  2.0606
 6736TIP3    H241700   4.370   2.057  11.505 -0.8553 -0.1244 -0.6849
 6737TIP3   OH241701   6.384   6.770  16.850  0.0708  0.1313  0.1635
 6737TIP3    H141702   6.367   6.863  16.866  1.7802  0.7183 -1.1478
 6737TIP3    H241703   6.432   6.741  16.928 -1.1743  0.1147  0.9436
 6738TIP3   OH241704   0.947   5.565  13.122  0.4622  0.5981  0.3673
 6738TIP3    H141705   0.915   5.653  13.139 -1.2053 -0.0738  0.9029
 6738TIP3    H241706   0.875   5.520  13.078  1.4462 -0.3699 -0.3117
 6739TIP3   OH241707   4.096   0.313   3.826  0.5990 -0.7784 -0.1903
 6739TIP3    H141708   4.042   0.241   3.794 -1.7319  1.6447 -2.1471
 6739TIP3    H241709   4.103   0.297   3.920 -2.0443 -2.2099 -0.1454
 6740TIP3   OH241710   0.117   2.803  12.236  0.3899 -0.0328 -0.2520
 6740TIP3    H141711   0.065   2.805  12.316 -0.0966 -1.7508 -0.4694
 6740TIP3    H241712   0.141   2.894  12.219 -1.8916  0.7242  0.2873
 6741TIP3   OH241713   6.012   4.209  15.869 -0.0830  0.0598  0.2901
 6741TIP3    H141714   5.921   4.237  15.872  0.2103  1.2354 -0.9478
 6741TIP3    H241715   6.027   4.185  15.778  0.9121  0.1045  0.4274
 6742TIP3   OH241716   3.059   1.074   5.044 -0.1364 -0.2298  0.3550
 6742TIP3    H141717   3.033   1.011   5.111 -1.0165 -1.3454 -0.9718
 6742TIP3    H241718   2.987   1.137   5.042 -1.2710 -1.4931 -1.0722
 6743TIP3   OH241719   3.665   6.547  11.222 -0.2005 -0.4897 -0.1650
 6743TIP3    H141720   3.726   6.584  11.158  0.3250 -2.2589 -0.7732
 6743TIP3    H241721   3.676   6.452  11.212 -1.1400 -0.8230  1.5790
 6744TIP3   OH241722   2.141   1.754  14.878  0.2569  0.3293  0.4956
 6744TIP3    H141723   2.059   1.705  14.874 -0.1627  1.0734 -0.2770
 6744TIP3    H241724   2.209   1.686  14.881 -0.3435 -0.2992  0.1350
 6745TIP3   OH241725   2.084   1.602   2.158  0.6679 -0.3552  0.5997
 6745TIP3    H141726   2.020   1.533   2.140  0.0292  0.6098 -1.1026
 6745TIP3    H241727   2.051   1.678   2.110  1.8411  0.8766  1.6676
 6746TIP3   OH241728   2.739   1.419  16.791 -0.4605  0.0320  0.3592
 6746TIP3    H141729   2.773   1.362  16.723 -0.5110  1.8217 -1.2537
 6746TIP3    H241730   2.646   1.397  16.797 -0.5485  0.1586 -0.4698
 6747TIP3   OH241731   5.869   6.484   5.943 -0.1977  0.2889 -0.5159
 6747TIP3    H141732   5.963   6.478   5.957 -0.3584  1.7256  1.6440
 6747TIP3    H241733   5.832   6.417   6.000 -0.5318  0.1978 -0.8355
 6748TIP3   OH241734   0.824   0.456  15.241  0.4188  0.0045  0.3797
 6748TIP3    H141735   0.820   0.463  15.337  1.8993 -0.9889  0.5482
 6748TIP3    H241736   0.792   0.368  15.222 -1.1002  0.6429 -0.1854
 6749TIP3   OH241737   0.527   4.970   0.270 -0.3455 -0.3262  0.7199
 6749TIP3    H141738   0.507   5.055   0.232 -0.2324 -0.1663  1.0187
 6749TIP3    H241739   0.619   4.954   0.248  0.2675  0.6011  2.4991
 6750TIP3   OH241740   0.134   1.270   2.643 -0.3248  0.0404 -0.1174
 6750TIP3    H141741   0.196   1.338   2.617 -3.7341  2.7260 -2.0401
 6750TIP3    H241742   0.155   1.195   2.588  0.9222  1.0258 -1.0184
 6751TIP3   OH241743   1.089   4.632   0.869 -0.0021  0.3655 -0.2241
 6751TIP3    H141744   1.107   4.723   0.893  1.0008  0.1235  0.0200
 6751TIP3    H241745   1.007   4.635   0.821  1.1283  1.7169 -2.2158
 6752TIP3   OH241746   1.522   4.408   3.322 -0.9581 -0.2186  0.1930
 6752TIP3    H141747   1.585   4.338   3.306  0.7795  1.7966 -2.7376
 6752TIP3    H241748   1.572   4.478   3.363 -0.8919  1.6582 -2.7401
 6753TIP3   OH241749   5.814   1.838   5.878 -0.4969 -0.1210  0.0577
 6753TIP3    H141750   5.903   1.870   5.868 -0.0994 -0.9413  0.8127
 6753TIP3    H241751   5.818   1.777   5.951 -1.8181  0.3275  0.5381
 6754TIP3   OH241752   5.942   1.024  17.214 -0.4890  0.9944 -0.1364
 6754TIP3    H141753   5.961   0.989  17.301 -2.0651  0.8363  0.1726
 6754TIP3    H241754   5.923   0.947  17.160 -1.4735  1.1922 -0.0962
 6755TIP3   OH241755   1.947   4.877  13.430  0.0854  0.5669  0.0152
 6755TIP3    H141756   1.887   4.840  13.364  0.2993  2.5382 -1.3769
 6755TIP3    H241757   1.890   4.925  13.490 -0.0045 -0.3393  0.6779
 6756TIP3   OH241758   1.679   1.651  16.548  0.6083  0.3470 -0.1064
 6756TIP3    H141759   1.681   1.562  16.513 -0.2950 -0.2025  1.1658
 6756TIP3    H241760   1.587   1.678  16.541  0.5202  0.4537  1.2243
 6757TIP3   OH241761   2.971   0.956  13.691  0.2890 -0.2647 -0.5061
 6757TIP3    H141762   3.011   0.995  13.614 -0.8756 -1.4728 -1.7813
 6757TIP3    H241763   3.005   0.867  13.694  1.2118  0.1102  1.0734
 6758TIP3   OH241764   3.343   1.836  12.807 -0.0420 -0.4909 -0.0562
 6758TIP3    H141765   3.393   1.759  12.835  1.2358  1.1483  2.5119
 6758TIP3    H241766   3.403   1.885  12.751  1.5231  1.5571  3.1530
 6759TIP3   OH241767   4.602   2.900   0.938 -0.2021  0.0665 -0.3023
 6759TIP3    H141768   4.604   2.934   1.028  0.5816 -1.3400  0.2556
 6759TIP3    H241769   4.590   2.805   0.949  0.5699 -0.2156 -1.6508
 6760TIP3   OH241770   0.387   3.263  16.772 -0.0086 -0.1459  0.9859
 6760TIP3    H141771   0.304   3.230  16.806 -0.6536 -0.0415 -0.3925
 6760TIP3    H241772   0.376   3.261  16.677  0.5163  2.5285  0.7873
 6761TIP3   OH241773   5.340   3.330   0.687 -0.1160 -0.1985  0.5713
 6761TIP3    H141774   5.377   3.418   0.685  2.3897 -1.2035 -0.1350
 6761TIP3    H241775   5.247   3.343   0.666  0.6003  2.0979 -1.6663
 6762TIP3   OH241776   1.432   2.451   5.894  0.8242 -0.0116  0.4034
 6762TIP3    H141777   1.495   2.467   5.824 -0.3038 -0.9524 -0.8774
 6762TIP3    H241778   1.459   2.367   5.931  0.1517 -0.5949 -0.3871
 6763TIP3   OH241779   3.343   1.889   5.001 -0.0260  0.4096  0.2173
 6763TIP3    H141780   3.428   1.878   4.958  0.8474  1.5648  1.5395
 6763TIP3    H241781   3.364   1.934   5.083 -1.6155 -1.7110  1.8925
 6764TIP3   OH241782   3.291   6.425   0.779  0.4378  0.7380 -0.2566
 6764TIP3    H141783   3.205   6.385   0.773  1.0928 -0.7208 -0.2064
 6764TIP3    H241784   3.352   6.352   0.790  1.7575  1.6853 -0.9045
 6765TIP3   OH241785   5.844   3.273   1.058  0.2795 -0.4733 -0.0350
 6765TIP3    H141786   5.886   3.187   1.052  0.3505 -0.6289  1.9342
 6765TIP3    H241787   5.892   3.317   1.128  1.2926  1.8184 -2.0408
 6766TIP3   OH241788   0.607   5.436  15.230  0.1154  0.0838 -0.2342
 6766TIP3    H141789   0.563   5.417  15.313 -0.4326  0.4151 -0.4484
 6766TIP3    H241790   0.698   5.410  15.246  0.1260  0.5918  0.6271
 6767TIP3   OH241791   4.553   0.806   5.801 -0.2944  0.3882 -0.1397
 6767TIP3    H141792   4.552   0.792   5.896 -1.5894 -0.1138 -0.2092
 6767TIP3    H241793   4.636   0.768   5.773 -1.2367 -2.3171  0.4219
 6768TIP3   OH241794   4.499   4.873   4.568 -0.6923 -0.1168 -0.5071
 6768TIP3    H141795   4.493   4.969   4.574  0.1745 -0.0486 -0.4792
 6768TIP3    H241796   4.565   4.858   4.501 -0.5984 -0.6915 -0.2911
 6769TIP3   OH241797   2.758   2.517   6.401 -0.2448 -0.1406 -0.5048
 6769TIP3    H141798   2.676   2.468   6.390 -0.5828  0.1030  0.7855
 6769TIP3    H241799   2.770   2.523   6.496  0.8450  0.5351 -0.6688
 6770TIP3   OH241800   2.601   2.435   0.106 -0.9949 -0.0197  0.2354
 6770TIP3    H141801   2.601   2.530   0.099  0.9192 -0.0742 -1.0826
 6770TIP3    H241802   2.508   2.411   0.102 -1.5035  1.7645  0.4857
 6771TIP3   OH241803   0.444   4.351   1.556  0.6531 -0.2204  0.4242
 6771TIP3    H141804   0.391   4.429   1.570  0.1736 -0.3830 -0.4100
 6771TIP3    H241805   0.411   4.314   1.475  2.8516  0.3305 -0.8118
 6772TIP3   OH241806   4.967   1.399   5.996 -0.0960  0.3839  0.1324
 6772TIP3    H141807   4.914   1.332   5.953 -0.8708  0.6207  0.6925
 6772TIP3    H241808   5.057   1.381   5.967 -0.0874 -1.6848  1.2555
 6773TIP3   OH241809   1.740   1.362   3.619  0.3225  0.1275 -0.0370
 6773TIP3    H141810   1.818   1.309   3.639  0.2932 -0.1772 -0.7050
 6773TIP3    H241811   1.688   1.306   3.561 -0.4641  0.2792  0.5182
 6774TIP3   OH241812   6.483   1.789   1.398 -0.1937  0.0117 -0.1989
 6774TIP3    H141813   6.478   1.802   1.493 -1.0123 -1.3756 -0.0226
 6774TIP3    H241814   6.437   1.706   1.383 -0.0310  0.1872 -1.8069
 6775TIP3   OH241815   4.847   2.586   5.251  0.8597 -0.0674 -0.2315
 6775TIP3    H141816   4.794   2.664   5.237  1.1167  0.0056 -0.8440
 6775TIP3    H241817   4.805   2.541   5.324  1.1499  1.0230  0.6274
 6776TIP3   OH241818   6.087   2.329  10.682 -0.5270 -0.2221  0.0236
 6776TIP3    H141819   6.136   2.364  10.757  0.2362  1.2894 -1.1056
 6776TIP3    H241820   6.143   2.349  10.606 -1.4905 -1.2687 -0.9992
 6777TIP3   OH241821   2.964   3.652   4.515 -0.1665  0.7903  0.1946
 6777TIP3    H141822   3.020   3.675   4.588 -0.1794 -1.1091  0.8662
 6777TIP3    H241823   2.916   3.732   4.495  1.9180  2.1471  0.3322
 6778TIP3   OH241824   4.828   0.917   2.004  0.5181  0.3570 -0.1940
 6778TIP3    H141825   4.815   0.851   1.936  1.8941  0.5570 -0.6708
 6778TIP3    H241826   4.850   0.997   1.957  0.3836  0.7831  0.4469
 6779TIP3   OH241827   2.400   3.544   2.786 -0.3450  0.1287 -0.0993
 6779TIP3    H141828   2.470   3.558   2.849  0.3243  0.5442 -0.9076
 6779TIP3    H241829   2.426   3.595   2.709 -0.1623 -1.8503 -1.4341
 6780TIP3   OH241830   2.630   4.325  10.310  0.4357 -0.1472 -0.0696
 6780TIP3    H141831   2.585   4.328  10.395 -2.4176 -1.6689 -1.3852
 6780TIP3    H241832   2.594   4.399  10.261  1.4675  0.2366 -0.2816
 6781TIP3   OH241833   1.752   1.528  15.165 -0.4937 -0.3227  0.7067
 6781TIP3    H141834   1.782   1.454  15.217 -0.8803 -0.5969  0.5483
 6781TIP3    H241835   1.712   1.488  15.088  1.6344  0.0909 -0.7038
 6782TIP3   OH241836   1.666   1.749   0.086  1.1619  0.1989 -0.1953
 6782TIP3    H141837   1.629   1.810   0.150  3.4892  0.7448  0.7419
 6782TIP3    H241838   1.611   1.759   0.008 -0.9706  0.4690  1.2574
 6783TIP3   OH241839   3.296   4.216  15.022  0.5395 -0.1278  0.5249
 6783TIP3    H141840   3.220   4.270  15.045 -0.8705 -0.5768 -2.4976
 6783TIP3    H241841   3.311   4.234  14.929  1.3756 -3.2701 -0.0838
 6784TIP3   OH241842   1.576   1.305  15.376  0.4055 -0.3576  0.3791
 6784TIP3    H141843   1.536   1.251  15.445 -2.5593  2.3140  0.9979
 6784TIP3    H241844   1.589   1.245  15.303  0.4137 -2.5751  2.0894
 6785TIP3   OH241845   0.088   0.309  11.683 -0.4846 -0.1097 -0.3502
 6785TIP3    H141846   0.131   0.297  11.767 -0.1467 -2.1565 -0.7621
 6785TIP3    H241847  -0.004   0.326  11.705 -0.3905 -0.5831  0.4321
 6786TIP3   OH241848   6.804   4.882  16.356 -0.0295  0.1329 -0.1415
 6786TIP3    H141849   6.709   4.870  16.354  0.0521 -1.4024  1.8553
 6786TIP3    H241850   6.817   4.963  16.404 -0.3056  1.1331 -1.6694
 6787TIP3   OH241851   3.248   5.127   5.376  0.7182 -0.0893  0.5818
 6787TIP3    H141852   3.301   5.136   5.455 -0.5447  2.0873  1.2831
 6787TIP3    H241853   3.300   5.171   5.308  1.9531 -2.2453  0.0460
 6788TIP3   OH241854   2.369   4.869   5.811 -0.2291 -0.7888 -0.9781
 6788TIP3    H141855   2.282   4.831   5.822  0.2568 -1.4794  0.7769
 6788TIP3    H241856   2.415   4.806   5.755 -0.3782 -1.2494 -0.5898
 6789TIP3   OH241857   3.367   3.665  16.341 -0.4965  0.8034 -0.1449
 6789TIP3    H141858   3.442   3.689  16.286  2.1624 -2.6788  1.5508
 6789TIP3    H241859   3.302   3.630  16.279 -0.0360  2.2796 -1.5177
 6790TIP3   OH241860   2.950   3.583   0.128  0.5919  0.1546  0.7719
 6790TIP3    H141861   2.944   3.523   0.054 -0.4813  0.2115  0.7930
 6790TIP3    H241862   2.894   3.657   0.103  1.0271  0.6401  1.2151
 6791TIP3   OH241863   6.640   6.054   3.910 -0.0592 -0.7129  0.2468
 6791TIP3    H141864   6.600   6.098   3.985 -1.5110 -1.3708 -0.1151
 6791TIP3    H241865   6.670   5.970   3.944  0.6576 -0.3978  0.4168
 6792TIP3   OH241866   5.116   5.344   5.484 -0.1258  0.4196  0.0599
 6792TIP3    H141867   5.071   5.325   5.402  0.6363 -2.0498  0.1442
 6792TIP3    H241868   5.047   5.344   5.550 -0.1898 -3.5171  0.2185
 6793TIP3   OH241869   3.176   2.558   1.581 -0.6044 -0.3227 -0.2880
 6793TIP3    H141870   3.111   2.586   1.644  0.3560 -0.9697  1.0346
 6793TIP3    H241871   3.127   2.544   1.500 -2.0347 -0.4173  0.5699
 6794TIP3   OH241872   0.870   6.556   1.016 -0.0197 -0.3014  0.1615
 6794TIP3    H141873   0.902   6.614   1.085 -1.0092 -0.3859  0.7130
 6794TIP3    H241874   0.914   6.473   1.032  1.0903  0.1497 -0.3858
 6795TIP3   OH241875   2.482   3.654   0.602 -0.4010 -0.6183 -0.3690
 6795TIP3    H141876   2.574   3.644   0.625 -0.9730 -0.9261  2.1005
 6795TIP3    H241877   2.477   3.737   0.555  1.0410 -0.2732  0.0461
 6796TIP3   OH241878   4.029   5.114   0.516 -0.2738 -0.1253 -0.2590
 6796TIP3    H141879   3.993   5.027   0.500  0.5651 -0.1630 -2.2623
 6796TIP3    H241880   4.053   5.114   0.609  0.6778 -2.4110 -0.4537
 6797TIP3   OH241881   5.220   2.656  15.912 -0.2860 -0.1240  0.1523
 6797TIP3    H141882   5.259   2.664  15.999 -2.9194  2.9113  1.2359
 6797TIP3    H241883   5.248   2.735  15.865 -2.7459  0.7599  0.0484
 6798TIP3   OH241884   2.198   4.983   1.861 -0.6197 -1.2643  0.5475
 6798TIP3    H141885   2.153   5.055   1.905  0.2810  1.4784 -2.6392
 6798TIP3    H241886   2.287   4.986   1.898  0.0876  0.9172 -1.0934
 6799TIP3   OH241887   6.650   6.621  12.573  0.0825  0.5791  0.3378
 6799TIP3    H141888   6.608   6.686  12.630  0.7088  1.8482 -0.6001
 6799TIP3    H241889   6.612   6.638  12.487 -0.3467 -0.8679  0.2189
 6800TIP3   OH241890   6.296   1.422   2.190 -0.3294  0.1062  0.1483
 6800TIP3    H141891   6.372   1.475   2.213 -0.4422  1.1738 -1.6719
 6800TIP3    H241892   6.333   1.343   2.150 -0.1373  0.5306 -0.5433
 6801TIP3   OH241893   0.525   2.688  16.066  0.2169  0.0230 -0.0136
 6801TIP3    H141894   0.497   2.715  15.979 -3.0615 -1.1970  0.5329
 6801TIP3    H241895   0.502   2.762  16.122  0.1078 -0.1475  0.1651
 6802TIP3   OH241896   0.432   2.776   4.313 -0.1996 -0.8149  0.3437
 6802TIP3    H141897   0.516   2.808   4.348  0.2784  0.8812 -2.1208
 6802TIP3    H241898   0.455   2.733   4.231 -1.7533 -0.0461 -0.5373
 6803TIP3   OH241899   2.920   3.448  12.887  0.5546 -0.6248  0.1148
 6803TIP3    H141900   2.904   3.540  12.869 -1.6660 -1.0039 -0.1139
 6803TIP3    H241901   3.014   3.437  12.875  0.6120  1.2376 -1.5969
 6804TIP3   OH241902   5.278   6.760  12.991 -0.3620 -0.0476  0.3819
 6804TIP3    H141903   5.295   6.770  13.085 -0.8685  0.1485  0.4587
 6804TIP3    H241904   5.316   6.675  12.969  0.3629  0.2123  0.6159
 6805TIP3   OH241905   1.463   2.744   1.277  0.7817  0.2453  0.7965
 6805TIP3    H141906   1.378   2.770   1.243  0.9538 -0.3946 -0.1503
 6805TIP3    H241907   1.492   2.820   1.329 -0.0488  0.7317  0.5732
 6806TIP3   OH241908   2.072   0.415   5.920  0.1661 -0.3313  0.0230
 6806TIP3    H141909   2.118   0.343   5.964  1.3446 -0.1501 -0.8775
 6806TIP3    H241910   1.997   0.433   5.977 -0.3788 -2.5088  0.1103
 6807TIP3   OH241911   4.136   6.822   1.890 -0.0137 -0.0688  0.0123
 6807TIP3    H141912   4.108   6.758   1.824 -2.0834  0.2157  0.5418
 6807TIP3    H241913   4.141   6.772   1.971  0.0619  0.0838  0.1018
 6808TIP3   OH241914   5.813   1.122  14.568  0.1950  0.1324  0.2413
 6808TIP3    H141915   5.846   1.202  14.608 -0.5030 -0.0968  1.3330
 6808TIP3    H241916   5.818   1.057  14.638  0.4831 -0.7088 -0.5427
 6809TIP3   OH241917   4.633   3.717  13.398  0.1654 -0.3833 -0.2678
 6809TIP3    H141918   4.688   3.787  13.433  1.1292 -1.1764 -0.1549
 6809TIP3    H241919   4.559   3.713  13.458  1.5601 -1.4159  1.5145
 6810TIP3   OH241920   4.675   3.860  15.039  0.0986  0.0147  0.6479
 6810TIP3    H141921   4.716   3.785  15.082 -0.2635 -1.0952 -0.8463
 6810TIP3    H241922   4.689   3.845  14.946 -2.2071  0.4532  0.1624
 6811TIP3   OH241923   2.540   4.025  13.006  0.0389 -0.2104  0.0484
 6811TIP3    H141924   2.508   3.938  12.986  0.3743 -0.8051  1.9665
 6811TIP3    H241925   2.472   4.065  13.061  0.2434  0.4423 -0.1540
 6812TIP3   OH241926   3.738   4.581  15.365 -0.1893  0.3803  0.0277
 6812TIP3    H141927   3.763   4.506  15.311  0.2838 -0.2276  1.0705
 6812TIP3    H241928   3.767   4.558  15.453  0.5435  2.0626  0.2629
 6813TIP3   OH241929   0.674   1.286   0.993  0.3429  0.0559 -0.4632
 6813TIP3    H141930   0.581   1.263   0.998 -0.2763  2.5613  2.1109
 6813TIP3    H241931   0.714   1.237   1.065  0.8213 -0.1773 -0.8829
 6814TIP3   OH241932   4.467   0.416   5.698 -0.2742  0.2878  0.6707
 6814TIP3    H141933   4.511   0.419   5.613  0.3538  2.1958  1.0002
 6814TIP3    H241934   4.431   0.504   5.708 -1.3551 -0.2750  1.8714
 6815TIP3   OH241935   2.683   0.774   5.441 -0.6514 -0.3734 -0.4598
 6815TIP3    H141936   2.657   0.859   5.475 -0.3532 -0.0791 -0.9654
 6815TIP3    H241937   2.602   0.737   5.405 -0.4908  0.3397 -1.6019
 6816TIP3   OH241938   4.198   4.676   5.957  0.4516 -0.0152 -0.2496
 6816TIP3    H141939   4.273   4.658   6.013  0.2902  0.1940  0.0440
 6816TIP3    H241940   4.224   4.648   5.870  0.8418 -0.0099 -0.1341
 6817TIP3   OH241941   6.641   3.840   2.397  0.2634 -0.7839 -0.4880
 6817TIP3    H141942   6.596   3.781   2.337  0.2617 -0.5854 -0.6826
 6817TIP3    H241943   6.575   3.904   2.423  0.4836 -0.3655 -0.9425
 6818TIP3   OH241944   6.763   1.449  16.254 -0.2181 -0.0445 -0.1534
 6818TIP3    H141945   6.777   1.425  16.345 -0.9459 -0.4844 -0.1542
 6818TIP3    H241946   6.699   1.386  16.222  3.0245 -2.6567 -2.1910
 6819TIP3   OH241947   1.619   0.520  13.606 -0.1304 -0.1283  0.4569
 6819TIP3    H141948   1.663   0.548  13.687 -1.0550  1.6732  0.3926
 6819TIP3    H241949   1.655   0.434  13.588  1.0653 -0.0239  2.0850
 6820TIP3   OH241950   4.462   6.005   5.985  0.4439  0.1396 -0.3379
 6820TIP3    H141951   4.411   6.010   5.904 -2.7937 -1.7630  1.3486
 6820TIP3    H241952   4.496   5.915   5.986 -0.8875 -0.4034  1.0119
 6821TIP3   OH241953   4.192   5.407  14.887  0.4183 -0.0811 -0.0683
 6821TIP3    H141954   4.097   5.414  14.902  0.4091  0.6302 -0.4366
 6821TIP3    H241955   4.231   5.449  14.964  0.5269 -2.7517  1.4895
 6822TIP3   OH241956   3.331   3.242  14.607  0.2443 -0.3848  0.3080
 6822TIP3    H141957   3.347   3.238  14.513  1.9499 -0.9251  0.5822
 6822TIP3    H241958   3.372   3.324  14.635 -1.6641  0.6105  0.3844
 6823TIP3   OH241959   5.961   5.808   4.721 -0.0637  0.1376  0.1930
 6823TIP3    H141960   5.998   5.812   4.809 -0.7197  0.4465  0.4581
 6823TIP3    H241961   5.888   5.747   4.728  0.1635 -0.1896 -0.2457
 6824TIP3   OH241962   4.615   4.805  11.565  0.3038 -0.4509 -0.3988
 6824TIP3    H141963   4.698   4.788  11.609  0.2678 -0.4143 -0.3154
 6824TIP3    H241964   4.579   4.881  11.611 -0.9590 -1.9362  1.2291
 6825TIP3   OH241965   5.981   5.882  15.106  0.4393 -0.0855 -0.3499
 6825TIP3    H141966   5.887   5.897  15.104  0.5177  0.3756 -1.3055
 6825TIP3    H241967   6.001   5.843  15.021  1.3555  1.5067 -0.9141
 6826TIP3   OH241968   5.279   0.191   5.359  0.1878 -0.2892  0.2672
 6826TIP3    H141969   5.291   0.258   5.292 -1.4046 -0.5164 -0.3054
 6826TIP3    H241970   5.268   0.240   5.441  0.0773  0.0976  0.0228
 6827TIP3   OH241971   0.071   3.226  16.017 -0.1001  0.1427  0.3042
 6827TIP3    H141972   0.034   3.231  16.105 -1.2687  0.3876 -0.1952
 6827TIP3    H241973   0.014   3.280  15.963  0.6682  0.0832 -0.5912
 6828TIP3   OH241974   0.139   6.720   1.851 -0.3488 -0.2838 -0.3607
 6828TIP3    H141975   0.232   6.719   1.830  1.3330 -1.7957  5.2301
 6828TIP3    H241976   0.119   6.812   1.867  0.7401 -0.1086  0.0766
 6829TIP3   OH241977   6.311   5.537  17.119 -0.7040 -0.2190 -0.2557
 6829TIP3    H141978   6.295   5.446  17.092 -0.2533 -0.4799  0.3320
 6829TIP3    H241979   6.391   5.532  17.172 -1.7791  0.2195  1.4479
 6830TIP3   OH241980   0.560   1.347  14.677  0.3300 -0.2852  0.2749
 6830TIP3    H141981   0.644   1.351  14.631 -0.3713 -0.8544 -1.0884
 6830TIP3    H241982   0.494   1.352  14.608 -0.7947  1.0570  1.3951
 6831TIP3   OH241983   1.210   6.796  11.953  0.1088  0.5975 -0.2498
 6831TIP3    H141984   1.162   6.859  11.900 -0.8867  0.2861  0.2530
 6831TIP3    H241985   1.180   6.711  11.921  1.2562  0.3762 -0.7569
 6832TIP3   OH241986   4.307   4.818  11.160 -0.6785 -0.0848 -0.0867
 6832TIP3    H141987   4.289   4.757  11.089 -2.2178 -0.1199  0.3119
 6832TIP3    H241988   4.332   4.899  11.116  0.8602 -0.8038 -0.6206
 6833TIP3   OH241989   3.984   4.753  13.778  0.1250  0.0229  0.3528
 6833TIP3    H141990   4.008   4.843  13.756  0.8900 -0.3012 -0.1707
 6833TIP3    H241991   4.024   4.700  13.709 -1.3351 -0.6300 -0.0469
 6834TIP3   OH241992   2.722   1.049   2.832  0.1947  0.4783  0.7827
 6834TIP3    H141993   2.650   1.028   2.890  0.2954  2.0628  1.5314
 6834TIP3    H241994   2.801   1.028   2.882  0.2760  1.5998  1.1662
 6835TIP3   OH241995   5.804   4.984  13.985 -0.6134  0.5182  0.3892
 6835TIP3    H141996   5.713   4.980  13.955 -0.7136  0.2021  0.7212
 6835TIP3    H241997   5.800   4.961  14.078 -0.0171 -1.1888  0.0405
 6836TIP3   OH241998   6.315   5.133  11.997  0.0988  0.4471  0.1658
 6836TIP3    H141999   6.291   5.196  12.066 -0.2920  0.2014  0.2513
 6836TIP3    H242000   6.359   5.062  12.044 -1.6480 -0.5353  0.3897
 6837TIP3   OH242001   2.556   6.362  11.998 -0.1742 -0.3348  0.6214
 6837TIP3    H142002   2.572   6.427  12.066  0.7753  0.3688 -0.2382
 6837TIP3    H242003   2.464   6.339  12.008 -0.0647 -0.2074  2.0957
 6838TIP3   OH242004   3.745   3.384   1.392 -0.2614  0.4934 -0.5849
 6838TIP3    H142005   3.836   3.386   1.420 -0.5367 -0.3019  0.4633
 6838TIP3    H242006   3.745   3.331   1.312  0.0841 -0.3498 -0.0439
 6839TIP3   OH242007   2.492   3.380  10.103  0.2531 -0.1407 -0.3002
 6839TIP3    H142008   2.398   3.387  10.090  0.2839  0.1816 -0.3415
 6839TIP3    H242009   2.503   3.297  10.151 -0.0160 -0.3745 -0.6362
 6840TIP3   OH242010   4.093   1.425  11.069  0.3003 -0.2625 -0.2026
 6840TIP3    H142011   4.085   1.455  11.159  0.4847 -0.7515 -0.0199
 6840TIP3    H242012   4.124   1.502  11.020 -0.9587  0.3360 -0.0771
 6841TIP3   OH242013   0.783   6.048  11.678 -0.1471 -0.1519 -0.4096
 6841TIP3    H142014   0.755   6.119  11.736 -0.2978  0.5019 -1.2635
 6841TIP3    H242015   0.848   6.089  11.620  1.2318 -1.1840  0.3371
 6842TIP3   OH242016   6.639   5.100   5.835 -0.1754 -0.4381  0.2048
 6842TIP3    H142017   6.558   5.084   5.786 -0.3222 -0.9050  0.5858
 6842TIP3    H242018   6.613   5.159   5.906 -0.0458 -0.0812 -0.0406
 6843TIP3   OH242019   3.967   5.190   6.150 -0.1979  0.1332 -0.0045
 6843TIP3    H142020   3.891   5.189   6.209 -0.1392 -2.8122  0.1589
 6843TIP3    H242021   3.930   5.164   6.065 -0.2326  4.0332 -1.3637
 6844TIP3   OH242022   6.824   2.578  16.781 -0.0773  0.0652 -0.3848
 6844TIP3    H142023   6.885   2.521  16.735  1.5747  0.1439  1.5586
 6844TIP3    H242024   6.759   2.518  16.819  0.3470 -0.3021 -0.2362
 6845TIP3   OH242025   3.032   2.192  14.565  0.0074  0.0442  0.2835
 6845TIP3    H142026   2.995   2.234  14.642  0.6966 -0.3953  0.8636
 6845TIP3    H242027   3.056   2.264  14.507 -0.7258  0.3653  0.3747
 6846TIP3   OH242028   3.557   1.479   5.758  0.1464  0.5494  0.0613
 6846TIP3    H142029   3.634   1.534   5.745  2.9340 -2.2785  2.6492
 6846TIP3    H242030   3.536   1.489   5.851 -0.7434 -0.9281  0.0481
 6847TIP3   OH242031   1.750   6.437   1.004 -0.1457  0.1464  0.0154
 6847TIP3    H142032   1.752   6.412   1.096 -0.0736 -1.6993 -0.4414
 6847TIP3    H242033   1.658   6.430   0.979 -0.1606  0.6079 -0.0679
 6848TIP3   OH242034   5.907   0.237  14.708 -0.0101  0.3298 -0.4786
 6848TIP3    H142035   5.904   0.227  14.803 -0.0332 -0.9169 -0.5876
 6848TIP3    H242036   5.982   0.184  14.680  0.5802  1.4449 -1.0831
 6849TIP3   OH242037   1.485   6.482   0.213  0.3600 -0.0945  0.5520
 6849TIP3    H142038   1.579   6.500   0.219  0.2147  0.2360  2.0839
 6849TIP3    H242039   1.481   6.397   0.169  1.4303 -0.5990  1.3766
 6850TIP3   OH242040   4.151   2.844   1.783 -0.3359 -0.6937 -0.1863
 6850TIP3    H142041   4.094   2.911   1.747  0.0655 -0.3530 -0.2006
 6850TIP3    H242042   4.220   2.833   1.718  0.1894 -0.3431  0.2984
 6851TIP3   OH242043   3.620   4.874   4.125  0.1274  0.3286 -0.7561
 6851TIP3    H142044   3.661   4.909   4.045  2.5656 -0.2898  0.1289
 6851TIP3    H242045   3.694   4.848   4.180 -1.4805  0.3098  1.5386
 6852TIP3   OH242046   4.883   2.719  11.230 -0.3830  0.2375 -0.2253
 6852TIP3    H142047   4.937   2.713  11.151  0.0811  0.9747  0.0225
 6852TIP3    H242048   4.821   2.646  11.223  0.6195 -0.6019 -0.5337
 6853TIP3   OH242049   3.378   3.612   3.736 -0.2277 -0.1239  0.0801
 6853TIP3    H142050   3.415   3.663   3.663 -0.9536 -0.1157 -0.2907
 6853TIP3    H242051   3.336   3.677   3.792  1.1699 -0.0091  1.0473
 6854TIP3   OH242052   2.457   5.537   2.751  0.3048  0.1847  0.2637
 6854TIP3    H142053   2.490   5.561   2.838 -0.2086  0.4546  0.3862
 6854TIP3    H242054   2.396   5.465   2.767  0.2338  0.2124  0.1244
 6855TIP3   OH242055   2.522   1.991   5.033  0.1566  0.0172  0.3525
 6855TIP3    H142056   2.527   1.913   4.977  0.9847  0.1926  0.1632
 6855TIP3    H242057   2.449   1.974   5.092 -0.8762 -0.0916 -0.9079
 6856TIP3   OH242058   0.715   0.063   2.706 -0.5925 -0.1237  0.3273
 6856TIP3    H142059   0.777   0.064   2.633 -1.8000 -1.4481 -0.7901
 6856TIP3    H242060   0.671   0.148   2.701 -2.5981 -1.1633 -2.3378
 6857TIP3   OH242061   2.971   0.918   5.849 -0.2154 -0.6180 -0.6038
 6857TIP3    H142062   2.939   0.912   5.938  1.5271 -2.8580 -0.0274
 6857TIP3    H242063   2.893   0.925   5.795 -1.3289 -0.0377  1.0131
 6858TIP3   OH242064   2.414   1.695  11.550 -0.1988  0.2749 -0.1114
 6858TIP3    H142065   2.402   1.783  11.588  0.3606  0.2985  0.0168
 6858TIP3    H242066   2.487   1.705  11.489  0.5994 -0.3371  0.7129
 6859TIP3   OH242067   1.211   4.163  14.441 -0.3376 -0.3100 -0.2546
 6859TIP3    H142068   1.258   4.244  14.461 -0.2673 -0.6471  1.0398
 6859TIP3    H242069   1.150   4.187  14.371  0.9960  0.3929 -1.2176
 6860TIP3   OH242070   1.728   6.431   1.846 -0.1438 -0.1451 -0.2060
 6860TIP3    H142071   1.640   6.450   1.813  0.3848  2.5373 -0.2414
 6860TIP3    H242072   1.721   6.341   1.880 -2.8438 -0.0668 -0.3134
 6861TIP3   OH242073   4.042   6.769   3.487  0.1719 -0.5367 -0.2332
 6861TIP3    H142074   4.079   6.796   3.403  0.3487 -2.8659 -0.9667
 6861TIP3    H242075   3.947   6.779   3.476  0.2518  0.2038 -0.2977
 6862TIP3   OH242076   6.193   5.901  11.635  0.5125 -0.8031  0.3615
 6862TIP3    H142077   6.099   5.912  11.630  0.5131 -0.8813  0.1721
 6862TIP3    H242078   6.224   5.916  11.546  0.7028 -0.5576  0.4657
 6863TIP3   OH242079   1.183   0.928  17.048 -0.1083 -0.2543  0.1700
 6863TIP3    H142080   1.113   0.911  16.984  1.1637  2.1543 -2.0666
 6863TIP3    H242081   1.262   0.936  16.996  1.3705 -0.0214  2.3158
 6864TIP3   OH242082   3.536   1.043  12.825 -0.0294  0.3680 -0.2248
 6864TIP3    H142083   3.507   0.951  12.828  1.1829 -0.0092  0.3213
 6864TIP3    H242084   3.472   1.085  12.767 -0.8515 -0.7253 -0.1657
 6865TIP3   OH242085   3.312   3.889  15.353 -0.2287 -0.9970 -0.5588
 6865TIP3    H142086   3.265   3.969  15.332 -0.2769 -1.1539 -1.0637
 6865TIP3    H242087   3.402   3.904  15.323 -0.2195 -1.1049 -0.5888
 6866TIP3   OH242088   0.130   4.181   1.145 -0.5092 -0.4857  0.0418
 6866TIP3    H142089   0.095   4.251   1.091  0.6400  0.6948  0.7662
 6866TIP3    H242090   0.190   4.134   1.087 -0.5260 -0.2508 -0.1678
 6867TIP3   OH242091   1.767   1.889   2.022  0.0305 -0.5957  0.7009
 6867TIP3    H142092   1.816   1.938   2.088  0.3775 -1.1878  0.8871
 6867TIP3    H242093   1.709   1.832   2.072  0.9836 -1.7462  0.5212
 6868TIP3   OH242094   0.403   2.069   2.643  0.2423  0.9966  0.2904
 6868TIP3    H142095   0.444   2.123   2.711 -0.5248  0.3870  1.2554
 6868TIP3    H242096   0.311   2.094   2.645  0.0868  0.4547 -0.0379
 6869TIP3   OH242097   0.686   2.460  15.383 -0.1779  0.5189 -0.1718
 6869TIP3    H142098   0.620   2.441  15.317  0.4860 -0.4136 -0.5878
 6869TIP3    H242099   0.677   2.554  15.400 -0.9900  0.5806 -0.8798
 6870TIP3   OH242100   2.762   3.249   4.653  0.4571  0.1723 -0.5910
 6870TIP3    H142101   2.738   3.239   4.561  0.2247  3.9640 -1.1161
 6870TIP3    H242102   2.856   3.228   4.656 -0.0806 -2.5607 -1.0677
 6871TIP3   OH242103   3.700   2.096  15.697 -0.1546 -0.2792 -0.2935
 6871TIP3    H142104   3.608   2.106  15.722 -0.3258  1.5717 -1.4560
 6871TIP3    H242105   3.747   2.088  15.779 -1.2187  0.1737  0.3796
 6872TIP3   OH242106   0.310   5.111  15.592 -0.0049  0.1955  0.0612
 6872TIP3    H142107   0.255   5.187  15.609  0.3770  0.9108 -1.7013
 6872TIP3    H242108   0.249   5.043  15.563 -0.2169  0.1988  0.4935
 6873TIP3   OH242109   6.487   6.162   1.950  0.3204  0.5943  0.2868
 6873TIP3    H142110   6.392   6.159   1.942  0.4442  0.1211 -1.4112
 6873TIP3    H242111   6.511   6.075   1.983  0.2948 -0.1761 -1.5748
 6874TIP3   OH242112   5.820   1.511   4.305  0.6717  0.1328  0.1380
 6874TIP3    H142113   5.801   1.605   4.302  1.2101  0.3593  2.1951
 6874TIP3    H242114   5.863   1.492   4.222 -1.4914  1.1906 -1.3164
 6875TIP3   OH242115   4.189   0.066   2.941  0.2826  0.1152  0.0201
 6875TIP3    H142116   4.116   0.120   2.912  0.8241  0.3114 -1.0297
 6875TIP3    H242117   4.217   0.020   2.862  1.8643  0.7144  0.2163
 6876TIP3   OH242118   1.189   4.990  15.895  0.0640  0.2023  0.1159
 6876TIP3    H142119   1.185   4.897  15.916 -1.1087 -0.1363 -1.4086
 6876TIP3    H242120   1.212   5.033  15.977 -1.5546 -1.2297  1.3825
 6877TIP3   OH242121   2.948   5.488  12.475  0.6615  0.3126 -0.0123
 6877TIP3    H142122   2.883   5.435  12.428 -0.0760  0.9782  0.2405
 6877TIP3    H242123   3.000   5.424  12.525 -1.5915 -0.0713  2.0200
 6878TIP3   OH242124   1.947   3.178  12.771 -0.5812 -0.2853 -0.2984
 6878TIP3    H142125   2.040   3.198  12.761 -1.0177  1.1170 -2.2951
 6878TIP3    H242126   1.945   3.087  12.801  1.4187  0.2580  1.7766
 6879TIP3   OH242127   1.903   2.289  12.090 -0.0630 -0.2039 -0.3109
 6879TIP3    H142128   1.924   2.290  12.184  3.3996 -0.3972 -0.9417
 6879TIP3    H242129   1.867   2.376  12.073  2.2249  1.0382  0.7132
 6880TIP3   OH242130   2.045   6.552  16.847 -0.2799 -0.4129  0.1967
 6880TIP3    H142131   2.023   6.643  16.830  1.9066  0.2124  0.3619
 6880TIP3    H242132   2.054   6.512  16.760 -0.7518 -0.3536  0.1176
 6881TIP3   OH242133   3.321   3.682  16.758  0.1024 -0.1449 -0.3253
 6881TIP3    H142134   3.318   3.770  16.796 -1.6252 -0.5806  0.6615
 6881TIP3    H242135   3.234   3.670  16.720  0.2276 -1.5290 -0.2107
 6882TIP3   OH242136   6.322   2.382   5.099 -0.4812  0.4028  0.0148
 6882TIP3    H142137   6.302   2.418   5.013 -0.4820  0.2444 -0.0517
 6882TIP3    H242138   6.366   2.299   5.081 -1.0701  0.0460  0.1705
 6883TIP3   OH242139   6.408   5.285   4.184  0.4047  0.2488 -0.2661
 6883TIP3    H142140   6.476   5.315   4.124 -0.6351  0.2580 -1.4611
 6883TIP3    H242141   6.420   5.339   4.262  0.7523  1.3731 -1.0698
 6884TIP3   OH242142   2.711   4.494   0.572  0.2797 -0.3905 -0.0217
 6884TIP3    H142143   2.628   4.481   0.526 -0.1381 -2.9590  1.2748
 6884TIP3    H242144   2.718   4.589   0.582 -1.8039 -0.0188 -1.3696
 6885TIP3   OH242145   1.949   3.206  15.221 -0.3541 -0.1363  0.5810
 6885TIP3    H142146   1.980   3.295  15.209  1.6923 -0.1753  4.0486
 6885TIP3    H242147   1.857   3.215  15.245 -0.5340  0.8721 -0.3995
 6886TIP3   OH242148   5.698   0.520  14.106 -0.3622 -0.7692 -0.4340
 6886TIP3    H142149   5.763   0.566  14.159 -1.9745  0.9258  0.1925
 6886TIP3    H242150   5.632   0.491  14.169 -1.7959  0.3763 -1.3451
 6887TIP3   OH242151   6.197   2.783   2.256 -0.0104 -0.4340  0.6363
 6887TIP3    H142152   6.246   2.709   2.220 -1.4796 -0.5052 -1.3861
 6887TIP3    H242153   6.121   2.743   2.298 -1.0184 -0.1308 -0.8042
 6888TIP3   OH242154   5.735   0.426   5.633  0.4374 -0.1259 -0.3065
 6888TIP3    H142155   5.708   0.505   5.679 -0.4585 -1.0245  0.7855
 6888TIP3    H242156   5.784   0.376   5.699  0.5716 -0.6832 -0.8252
 6889TIP3   OH242157   5.196   0.064  14.257  0.3417  0.2143 -0.0885
 6889TIP3    H142158   5.176  -0.027  14.281  1.2685 -0.2649 -1.0378
 6889TIP3    H242159   5.280   0.082  14.298 -0.2655  0.9666  0.8490
 6890TIP3   OH242160   3.287   2.085  15.562  0.2918 -0.3511 -0.2224
 6890TIP3    H142161   3.207   2.065  15.512  0.3471 -1.6979  0.1866
 6890TIP3    H242162   3.357   2.039  15.516  0.4311 -1.1583  0.7520
 6891TIP3   OH242163   6.692   4.069   2.708 -0.3041  0.0215 -0.5725
 6891TIP3    H142164   6.765   4.014   2.680 -1.2713 -0.2805 -2.7455
 6891TIP3    H242165   6.677   4.128   2.634 -1.1499  1.2472  0.5431
 6892TIP3   OH242166   3.043   5.681   6.428  0.0073  0.4326 -0.0989
 6892TIP3    H142167   3.120   5.706   6.479  0.3086 -0.9321  0.1690
 6892TIP3    H242168   3.054   5.587   6.413 -1.0455  0.4363 -1.0372
 6893TIP3   OH242169   6.384   4.836  13.641  0.0299 -0.1517  0.2549
 6893TIP3    H142170   6.383   4.786  13.722 -0.0834 -1.5307 -0.5580
 6893TIP3    H242171   6.332   4.783  13.580  0.5348  0.6008 -0.8620
 6894TIP3   OH242172   6.542   1.246  14.788 -0.4141 -0.2453 -0.3727
 6894TIP3    H142173   6.594   1.250  14.868 -0.0182  1.2172 -0.6647
 6894TIP3    H242174   6.528   1.338  14.764  1.5396 -0.5694 -3.2926
 6895TIP3   OH242175   2.915   2.603   0.628  0.2104 -0.0489  0.5460
 6895TIP3    H142176   2.825   2.583   0.654  0.2895 -0.3571  0.5837
 6895TIP3    H242177   2.908   2.686   0.581  0.1716  0.9406  2.2283
 6896TIP3   OH242178   2.412   0.905   3.097  0.3585  0.4012  0.6574
 6896TIP3    H142179   2.462   0.971   3.049  0.1631 -0.1860 -0.4000
 6896TIP3    H242180   2.334   0.891   3.043 -0.3625  0.4325  1.6716
 6897TIP3   OH242181   0.567   0.820   2.857  0.4708 -0.8127  0.1828
 6897TIP3    H142182   0.557   0.911   2.829  1.3804  0.0715  2.4589
 6897TIP3    H242183   0.649   0.819   2.906  0.3510 -2.8249  0.4456
 6898TIP3   OH242184   6.325   5.290  11.377  0.1983  0.2214 -0.2677
 6898TIP3    H142185   6.252   5.228  11.375 -2.9085  3.5465 -1.4895
 6898TIP3    H242186   6.335   5.319  11.286  0.5814  2.4210  0.4122
 6899TIP3   OH242187   2.570   5.121  11.989  0.2646 -0.2410 -0.3102
 6899TIP3    H142188   2.521   5.150  11.913  1.8802  0.9400 -0.9648
 6899TIP3    H242189   2.552   5.027  11.995 -3.8610  0.4575  0.9389
 6900TIP3   OH242190   4.966   0.345   2.165  0.6582 -0.4463 -0.7401
 6900TIP3    H142191   4.966   0.441   2.173 -2.6941 -0.2928 -1.1811
 6900TIP3    H242192   5.036   0.326   2.103  1.1273  1.7596 -0.9747
 6901TIP3   OH242193   6.686   3.924   5.425 -0.2255  0.1116 -0.1150
 6901TIP3    H142194   6.616   3.959   5.480  0.1027  1.0905 -0.3086
 6901TIP3    H242195   6.734   4.001   5.395 -0.7236 -0.3346 -2.2098
 6902TIP3   OH242196   5.994   0.795  12.430 -0.3226  0.0767  0.2647
 6902TIP3    H142197   5.990   0.745  12.349  1.6868  0.4873 -0.1456
 6902TIP3    H242198   5.944   0.743  12.493 -2.3361 -0.0188 -1.3122
 6903TIP3   OH242199   2.474   3.314  10.393 -0.1406  0.7722 -0.0332
 6903TIP3    H142200   2.545   3.250  10.386 -1.3549 -0.5542 -0.5234
 6903TIP3    H242201   2.395   3.266  10.369 -1.6572  1.4600  3.0327
 6904TIP3   OH242202   3.649   0.727  12.522 -0.5926  0.9874 -0.2417
 6904TIP3    H142203   3.697   0.648  12.495 -2.1930  0.4972 -1.8436
 6904TIP3    H242204   3.714   0.797  12.515  0.2534  0.1574 -1.0697
 6905TIP3   OH242205   0.354   1.211  13.483 -0.2315 -0.0454 -0.0812
 6905TIP3    H142206   0.349   1.280  13.417  0.8271  0.2790  0.1537
 6905TIP3    H242207   0.292   1.239  13.551 -0.3481  0.3073 -0.3283
 6906TIP3   OH242208   0.170   4.639  15.966 -0.2721  0.1989  0.6899
 6906TIP3    H142209   0.166   4.547  15.996  0.9778 -0.2176 -0.3256
 6906TIP3    H242210   0.109   4.643  15.893  0.8170 -0.2741 -0.2889
 6907TIP3   OH242211   0.285   0.997   0.776 -0.0227 -0.7145 -0.4822
 6907TIP3    H142212   0.334   1.075   0.748 -0.2086 -1.0937 -1.9515
 6907TIP3    H242213   0.244   0.965   0.696 -0.7335 -1.7823  0.2886
 6908TIP3   OH242214   5.863   4.078   3.548  0.5430 -0.2246  0.1525
 6908TIP3    H142215   5.887   4.067   3.640  3.4039  0.9855 -0.3231
 6908TIP3    H242216   5.934   4.036   3.500 -1.0522 -1.0813 -1.5431
 6909TIP3   OH242217   6.141   0.849   1.669  0.8439  0.3284 -0.2309
 6909TIP3    H142218   6.147   0.760   1.705  0.6042  1.1331  1.9599
 6909TIP3    H242219   6.231   0.879   1.661  0.8817  0.5415  0.8547
 6910TIP3   OH242220   1.704   5.783  13.451  0.4731 -0.0001 -0.1329
 6910TIP3    H142221   1.750   5.853  13.496  1.2741 -1.3256  1.2422
 6910TIP3    H242222   1.772   5.723  13.423 -0.1129  0.2560 -2.2515
 6911TIP3   OH242223   3.642   6.523  11.629 -0.1156 -0.0905 -0.4399
 6911TIP3    H142224   3.624   6.437  11.593  0.8928  1.0789 -4.2108
 6911TIP3    H242225   3.735   6.521  11.652 -0.4933 -0.4813  1.1487
 6912TIP3   OH242226   2.698   1.838   6.236  0.2788  0.1078  0.1258
 6912TIP3    H142227   2.651   1.824   6.154  0.4574  0.9004 -0.1260
 6912TIP3    H242228   2.721   1.931   6.235 -0.2391  0.2752  1.3562
 6913TIP3   OH242229   1.881   4.062   4.818  0.4230 -0.2675  0.2339
 6913TIP3    H142230   1.923   3.997   4.761 -0.4006  0.5534 -1.3736
 6913TIP3    H242231   1.907   4.146   4.783 -0.1503  0.2713  1.0534
 6914TIP3   OH242232   2.972   6.148   2.608 -0.2978  0.4628 -0.3549
 6914TIP3    H142233   3.050   6.196   2.636  0.0056 -0.1012 -0.2037
 6914TIP3    H242234   2.902   6.213   2.607  0.1647  0.9653 -0.4401
 6915TIP3   OH242235   3.131   2.274  15.072 -0.4585 -0.3025  0.0905
 6915TIP3    H142236   3.174   2.360  15.075 -0.0328 -0.5239  2.4547
 6915TIP3    H242237   3.038   2.294  15.079 -0.4982  0.0109 -1.1076
 6916TIP3   OH242238   4.887   1.456   3.528 -0.5498 -0.2913 -0.1917
 6916TIP3    H142239   4.792   1.448   3.521 -0.5943 -1.4288  1.2593
 6916TIP3    H242240   4.921   1.373   3.494 -0.2074 -0.7051  1.0950
 6917TIP3   OH242241   0.972   2.150  16.732 -0.6224  0.2209  0.5263
 6917TIP3    H142242   1.050   2.095  16.739 -0.8343 -0.4383 -1.6470
 6917TIP3    H242243   0.922   2.131  16.811  0.6330 -0.5859  1.1513
 6918TIP3   OH242244   5.489   2.618   4.322  0.1720 -0.2036  0.0080
 6918TIP3    H142245   5.443   2.681   4.266  1.5583  0.8019 -0.0412
 6918TIP3    H242246   5.578   2.651   4.328  0.5762 -1.4030  1.1635
 6919TIP3   OH242247   3.659   5.342   4.174  0.5255  0.1073  0.3122
 6919TIP3    H142248   3.750   5.311   4.179  1.0280  1.1682 -1.1510
 6919TIP3    H242249   3.665   5.423   4.122 -1.0111  1.3170  1.9055
 6920TIP3   OH242250   2.547   0.412   5.273 -0.1011 -0.0785 -0.0144
 6920TIP3    H142251   2.600   0.343   5.312  0.2521 -0.0425 -0.4245
 6920TIP3    H242252   2.598   0.492   5.283  0.3054 -0.1803 -1.1457
 6921TIP3   OH242253   4.590   0.340   5.404  0.7121  0.1812 -0.2704
 6921TIP3    H142254   4.639   0.259   5.410  1.9777  0.8628 -1.0467
 6921TIP3    H242255   4.499   0.313   5.388  1.0822 -1.0593 -0.3057
 6922TIP3   OH242256   1.188   6.467   3.062 -0.0991  0.3624 -0.4616
 6922TIP3    H142257   1.270   6.495   3.022  1.1679 -1.4766  0.7527
 6922TIP3    H242258   1.156   6.398   3.004  0.6285 -0.8043  0.5039
 6923TIP3   OH242259   4.102   0.005   5.738 -0.2397  0.1856  0.0756
 6923TIP3    H142260   4.107  -0.063   5.805  0.6897  1.0156  0.8913
 6923TIP3    H242261   4.186   0.000   5.693  0.3746  1.5849  0.9875
 6924TIP3   OH242262   6.159   5.898  13.738 -0.2680 -0.0570  0.4620
 6924TIP3    H142263   6.153   5.863  13.827 -0.2019  0.1207  0.5364
 6924TIP3    H242264   6.226   5.844  13.695 -0.5160 -0.3417  0.4253
 6925TIP3   OH242265   1.687   3.098  11.787  0.5435  0.0975 -0.3527
 6925TIP3    H142266   1.667   3.009  11.759  0.9989 -1.0516  2.6045
 6925TIP3    H242267   1.611   3.150  11.761 -0.4319 -1.4887 -0.7330
 6926TIP3   OH242268   4.797   1.079   4.663 -0.6961 -0.2831 -0.3331
 6926TIP3    H142269   4.843   1.160   4.687  0.4614 -1.0868  0.2603
 6926TIP3    H242270   4.858   1.033   4.605  0.0034 -2.1175  1.7470
 6927TIP3   OH242271   2.811   2.228   2.243 -0.2895  0.0240 -0.0449
 6927TIP3    H142272   2.738   2.201   2.186  0.2763 -1.5548 -0.0705
 6927TIP3    H242273   2.889   2.219   2.188  0.2584 -1.4528  0.9222
 6928TIP3   OH242274   0.712   1.816  11.404  0.1926  0.0447 -0.5525
 6928TIP3    H142275   0.679   1.903  11.382  2.7213  0.6751 -2.2397
 6928TIP3    H242276   0.747   1.782  11.322  2.6676 -0.9562  0.8157
 6929TIP3   OH242277   3.226   2.990   0.782 -0.2287 -0.2093  0.4467
 6929TIP3    H142278   3.276   3.050   0.838 -2.2082  1.3050  0.7066
 6929TIP3    H242279   3.213   3.039   0.701 -1.6066 -0.3780  0.5388
 6930TIP3   OH242280   4.488   5.465   0.649  0.5901  0.0950  0.0994
 6930TIP3    H142281   4.431   5.482   0.574  1.1786 -1.3247 -0.6950
 6930TIP3    H242282   4.495   5.370   0.654  1.0626  0.1747  1.5974
 6931TIP3   OH242283   3.809   2.467  15.236 -0.4181 -0.8739  0.2241
 6931TIP3    H142284   3.788   2.556  15.206 -1.1548 -1.0253  0.2821
 6931TIP3    H242285   3.821   2.417  15.155 -1.3674 -1.0372  0.1749
 6932TIP3   OH242286   6.531   4.985  16.609  0.6939  0.1217 -0.4256
 6932TIP3    H142287   6.461   4.926  16.582 -1.1803  2.2375 -0.4602
 6932TIP3    H242288   6.554   4.956  16.698  0.2786 -1.0207 -0.6762
 6933TIP3   OH242289   5.587   3.800  11.307  0.1669  0.1927  0.7415
 6933TIP3    H142290   5.555   3.716  11.273  2.2665 -0.2684 -0.2336
 6933TIP3    H242291   5.533   3.866  11.262 -0.1229 -0.5679 -0.0559
 6934TIP3   OH242292   2.004   4.700  14.225  0.6418 -0.2872  0.0414
 6934TIP3    H142293   2.010   4.731  14.316  1.3916  0.0047 -0.0998
 6934TIP3    H242294   1.912   4.714  14.202  0.5056 -0.0920  0.6636
 6935TIP3   OH242295   2.606   0.420  15.782  0.0721  0.6593 -0.3204
 6935TIP3    H142296   2.638   0.364  15.710  0.4840  1.5212 -0.8224
 6935TIP3    H242297   2.644   0.381  15.861  0.8630  0.5781 -0.7276
 6936TIP3   OH242298   2.972   0.956   3.918 -0.1540 -0.4879 -0.0543
 6936TIP3    H142299   3.045   0.928   3.864  0.1620 -2.0671  1.1194
 6936TIP3    H242300   3.011   1.016   3.981 -0.0452 -0.6033 -0.0115
 6937TIP3   OH242301   3.286   2.962   2.051 -0.0435 -0.4478 -0.2951
 6937TIP3    H142302   3.267   2.920   2.134  0.1598 -1.1705 -0.6090
 6937TIP3    H242303   3.291   3.055   2.072 -1.4017 -0.4752  0.2412
 6938TIP3   OH242304   2.606   1.973   2.887 -0.4575 -0.2267 -0.0790
 6938TIP3    H142305   2.517   2.009   2.881  0.6793  2.8749 -0.0832
 6938TIP3    H242306   2.647   2.024   2.957  1.4599 -1.3375 -0.3389
 6939TIP3   OH242307   1.279   6.402   2.242 -0.0509 -0.5675  0.0276
 6939TIP3    H142308   1.373   6.383   2.241  0.5378  1.9849  0.9125
 6939TIP3    H242309   1.256   6.413   2.150 -0.4283 -4.7464 -0.6104
 6940TIP3   OH242310   4.371   1.091  16.280  0.3361  0.2217 -0.8996
 6940TIP3    H142311   4.366   1.143  16.361  0.3829 -2.6280  1.0872
 6940TIP3    H242312   4.280   1.079  16.253  0.2606  0.3950 -0.7270
 6941TIP3   OH242313   5.256   1.052   1.711 -0.3040 -0.3478  0.5876
 6941TIP3    H142314   5.264   1.069   1.805  0.4314 -1.3101  0.7138
 6941TIP3    H242315   5.250   0.956   1.704 -2.5199 -0.2192 -0.2062
 6942TIP3   OH242316   4.737   1.183  11.363  0.7332  0.7844 -0.2040
 6942TIP3    H142317   4.820   1.230  11.370 -0.1063  2.6358 -1.6576
 6942TIP3    H242318   4.704   1.179  11.452  2.3794 -0.0360  0.4042
 6943TIP3   OH242319   1.621   4.471  13.808  0.2026  0.4009  0.1819
 6943TIP3    H142320   1.534   4.455  13.772  0.5450  1.9865 -1.5327
 6943TIP3    H242321   1.681   4.429  13.746  0.7147  0.8004  0.3932
 6944TIP3   OH242322   5.166   0.281   1.244  0.2934 -0.4275  0.1095
 6944TIP3    H142323   5.205   0.358   1.286  0.1432 -0.2279 -0.1059
 6944TIP3    H242324   5.228   0.258   1.175  0.7820 -1.0579  0.7500
 6945TIP3   OH242325   2.026   0.722  16.517  0.5196 -0.0841  0.6747
 6945TIP3    H142326   1.997   0.758  16.433  0.9917  0.2857  0.6674
 6945TIP3    H242327   2.060   0.635  16.496  1.2630  0.2682  0.3682
 6946TIP3   OH242328   6.320   5.202  12.565  0.0840 -0.2795  0.1093
 6946TIP3    H142329   6.233   5.226  12.533  1.0823  1.7607 -1.2206
 6946TIP3    H242330   6.332   5.253  12.645  1.1551  1.7681 -1.2858
 6947TIP3   OH242331   5.036   3.872   2.123 -0.8526 -0.2896  0.0706
 6947TIP3    H142332   5.104   3.917   2.073 -1.1116 -0.1545 -0.1716
 6947TIP3    H242333   5.069   3.783   2.136  0.9461  0.6875  3.0315
 6948TIP3   OH242334   1.621   6.059  16.937 -0.1045 -0.0122  0.0120
 6948TIP3    H142335   1.659   6.008  16.865  1.4738  1.6132 -0.3755
 6948TIP3    H242336   1.687   6.126  16.956 -1.6825  1.2953  1.1329
 6949TIP3   OH242337   5.225   3.366  14.481 -0.3781  0.5372  0.2003
 6949TIP3    H142338   5.226   3.351  14.576 -2.2180  0.9078  0.3162
 6949TIP3    H242339   5.179   3.449  14.470 -0.4888  0.3294 -1.0478
 6950TIP3   OH242340   6.259   6.678   4.245 -0.5703  0.2645 -0.1189
 6950TIP3    H142341   6.294   6.646   4.162 -0.2225 -0.7433  0.3945
 6950TIP3    H242342   6.167   6.697   4.226 -0.4902  0.0648 -0.7380
 6951TIP3   OH242343   2.801   4.343   3.451 -0.0036  0.1514  0.1863
 6951TIP3    H142344   2.778   4.258   3.414  1.8808 -0.1621 -0.3216
 6951TIP3    H242345   2.867   4.379   3.392  2.3501  0.0773  2.5985
 6952TIP3   OH242346   0.964   3.332   6.042 -0.2909 -0.1269 -0.2535
 6952TIP3    H142347   0.898   3.400   6.061 -0.9759 -0.6212 -0.8080
 6952TIP3    H242348   0.941   3.300   5.954 -1.4152 -2.6993  0.8852
 6953TIP3   OH242349   3.124   1.848  16.840 -0.5790 -0.0785  0.3870
 6953TIP3    H142350   3.051   1.904  16.865  1.6088  2.5124  1.3772
 6953TIP3    H242351   3.131   1.858  16.745 -1.1830  0.0189  0.3487
 6954TIP3   OH242352   4.070   5.440   6.173  0.2620  0.3314  0.2407
 6954TIP3    H142353   4.042   5.348   6.167 -0.7500  0.6017  0.7534
 6954TIP3    H242354   4.161   5.435   6.204  0.6826 -0.5345 -1.0336
 6955TIP3   OH242355   0.270   2.937  11.736 -0.2965  0.1707 -0.3967
 6955TIP3    H142356   0.278   2.855  11.786 -0.1134  0.8550  0.7298
 6955TIP3    H242357   0.330   2.926  11.662  1.0836 -0.0352  0.7042
 6956TIP3   OH242358   1.926   5.993  13.454 -1.0258  0.3646  0.1205
 6956TIP3    H142359   2.012   5.952  13.445  0.0449  2.7413 -1.3258
 6956TIP3    H242360   1.895   6.003  13.365 -0.9194  3.1727  0.3010
 6957TIP3   OH242361   5.268   6.374  15.902  0.6394  0.6886 -0.3738
 6957TIP3    H142362   5.200   6.414  15.957  0.5239  0.4817 -0.3672
 6957TIP3    H242363   5.347   6.423  15.923  0.5460  0.7630 -0.1937
 6958TIP3   OH242364   3.201   5.343   2.035 -0.1171  0.2246  0.3044
 6958TIP3    H142365   3.130   5.321   1.973 -0.0790 -0.6909  0.5654
 6958TIP3    H242366   3.260   5.400   1.985 -0.1396 -0.4161 -0.4757
 6959TIP3   OH242367   6.345   5.398  10.928  0.2039 -0.1781 -0.0905
 6959TIP3    H142368   6.306   5.340  10.862  0.8407  0.7860 -1.3523
 6959TIP3    H242369   6.278   5.464  10.945 -0.0142 -0.5091  0.3324
 6960TIP3   OH242370   3.726   0.546   3.348  0.0021 -0.1102  0.1219
 6960TIP3    H142371   3.777   0.556   3.267  0.9056  1.1102  0.7982
 6960TIP3    H242372   3.786   0.502   3.409  0.0755  0.8481  0.7621
 6961TIP3   OH242373   5.163   5.974   5.645 -0.1946  0.0389  0.3340
 6961TIP3    H142374   5.145   5.987   5.551 -1.9868  0.6455  0.7309
 6961TIP3    H242375   5.136   5.884   5.662 -0.7118  0.2163  0.4532
 6962TIP3   OH242376   6.572   0.282   0.062  0.2520 -0.0532 -0.0706
 6962TIP3    H142377   6.514   0.286   0.138  2.4438 -0.5759  1.7781
 6962TIP3    H242378   6.545   0.356   0.007  0.7200  2.6018  2.9520
 6963TIP3   OH242379   2.846   5.700  12.741  0.0853  0.0896  0.1355
 6963TIP3    H142380   2.809   5.621  12.782  1.2460 -0.1685  0.7297
 6963TIP3    H242381   2.775   5.764  12.744 -0.3684 -0.4385  1.1199
 6964TIP3   OH242382   2.938   2.579   3.628  0.1815 -0.1722 -0.6006
 6964TIP3    H142383   3.028   2.597   3.602  1.2493 -1.9702  1.4803
 6964TIP3    H242384   2.942   2.492   3.668 -2.3964 -0.1078 -0.0561
 6965TIP3   OH242385   4.246   4.923  16.323 -0.2975  0.3164  0.1116
 6965TIP3    H142386   4.245   5.018  16.327  2.7976  0.3864  2.3080
 6965TIP3    H242387   4.173   4.896  16.379 -2.4583  1.2603 -2.0674
 6966TIP3   OH242388   0.941   3.848   1.153 -0.0398 -0.4664 -0.5589
 6966TIP3    H142389   0.851   3.854   1.183  0.6002  0.1016  1.4484
 6966TIP3    H242390   0.950   3.918   1.087 -0.6708  0.5618  0.4070
 6967TIP3   OH242391   2.384   4.976  11.347 -0.0963  0.3091 -0.3026
 6967TIP3    H142392   2.407   4.997  11.257  0.2496  1.3961  0.0317
 6967TIP3    H242393   2.468   4.960  11.390 -0.2250  0.4317 -0.0103
 6968TIP3   OH242394   6.825   2.162  14.060 -0.3383  0.0705 -0.3117
 6968TIP3    H142395   6.877   2.099  14.109 -0.9946 -0.2129  0.0330
 6968TIP3    H242396   6.749   2.179  14.116 -0.8215  0.1640 -0.9819
 6969TIP3   OH242397   3.754   2.806   4.946 -0.4274 -0.4464  0.2268
 6969TIP3    H142398   3.717   2.816   4.858 -0.1977  0.9174  0.2647
 6969TIP3    H242399   3.763   2.711   4.957 -1.0494 -0.6705 -0.9659
 6970TIP3   OH242400   4.757   6.435  12.530  0.7417 -0.5450  0.3488
 6970TIP3    H142401   4.811   6.367  12.490  1.1812 -0.2714  0.4781
 6970TIP3    H242402   4.789   6.441  12.620  1.0485  0.2014  0.1907
 6971TIP3   OH242403   5.479   1.599   6.414  0.0608 -0.1639  0.5146
 6971TIP3    H142404   5.420   1.674   6.424  0.4337  0.2294 -0.1223
 6971TIP3    H242405   5.421   1.525   6.397 -0.2671  0.1677  0.1615
 6972TIP3   OH242406   3.802   4.353  17.222  0.6679  0.1763 -0.3608
 6972TIP3    H142407   3.870   4.291  17.197  1.2894  0.8789 -0.4297
 6972TIP3    H242408   3.720   4.305  17.206  1.1330 -0.7163 -0.1622
 6973TIP3   OH242409   2.033   1.509  14.668  0.1372  0.3503  0.5662
 6973TIP3    H142410   2.013   1.531  14.759 -1.7043  1.3652 -0.0468
 6973TIP3    H242411   2.097   1.438  14.674  0.1712  0.5125  2.6434
 6974TIP3   OH242412   4.608   5.761   1.445  0.2533 -0.0581  0.2671
 6974TIP3    H142413   4.689   5.762   1.497  1.0679  1.2067 -0.9531
 6974TIP3    H242414   4.582   5.853   1.440  0.5279 -0.0530 -1.9958
 6975TIP3   OH242415   1.598   5.052   1.663  0.2567 -0.2702 -0.0216
 6975TIP3    H142416   1.560   5.047   1.575  0.2462 -0.1182 -0.0262
 6975TIP3    H242417   1.527   5.082   1.719  0.7927  1.7271 -0.3250
 6976TIP3   OH242418   4.049   6.134  12.527 -0.5793  0.7882  0.1138
 6976TIP3    H142419   4.100   6.122  12.607 -0.7071  1.7406  0.3575
 6976TIP3    H242420   3.973   6.186  12.555  0.1519  2.4982 -0.8718
 6977TIP3   OH242421   6.511   0.647  12.649  0.3283  0.6199  0.4428
 6977TIP3    H142422   6.509   0.734  12.688  2.1872  1.0495 -0.3352
 6977TIP3    H242423   6.601   0.635  12.620 -0.4450 -0.5069 -1.7955
 6978TIP3   OH242424   6.083   6.273  16.186 -0.0968  0.1221 -0.2289
 6978TIP3    H142425   6.042   6.192  16.155  0.7838 -0.7031  0.6913
 6978TIP3    H242426   6.104   6.255  16.278  1.8932  0.6803 -0.5379
 6979TIP3   OH242427   4.128   6.506   6.253  0.0650  0.6195 -1.5575
 6979TIP3    H142428   4.164   6.520   6.341  0.7730 -1.9724 -1.3269
 6979TIP3    H242429   4.205   6.507   6.196 -0.0170 -0.4818 -1.7097
 6980TIP3   OH242430   2.184   4.639   9.625  0.0676  0.1521 -0.1670
 6980TIP3    H142431   2.096   4.610   9.650  0.1654  1.4490  1.9136
 6980TIP3    H242432   2.239   4.620   9.700  1.7345 -1.0437 -1.6016
 6981TIP3   OH242433   0.442   2.666   1.594 -0.1462  0.2301 -0.3427
 6981TIP3    H142434   0.408   2.589   1.640  0.6577 -0.8067 -1.4297
 6981TIP3    H242435   0.489   2.715   1.660 -0.4506 -0.3441  0.3131
 6982TIP3   OH242436   1.399   1.918  12.031 -0.4982 -0.4446 -0.1566
 6982TIP3    H142437   1.458   1.857  11.987  2.2700  0.6001  1.7928
 6982TIP3    H242438   1.422   2.004  11.995  0.2151  0.1438  1.5971
 6983TIP3   OH242439   3.156   6.761  12.472 -0.6798  0.2822 -0.1049
 6983TIP3    H142440   3.150   6.835  12.533 -1.6244 -1.8001  2.5554
 6983TIP3    H242441   3.065   6.732  12.462 -0.1668 -1.8512  0.8240
 6984TIP3   OH242442   3.857   4.796  15.223 -0.0846  0.4222  0.0321
 6984TIP3    H142443   3.926   4.757  15.171 -1.8055  0.3551 -2.3986
 6984TIP3    H242444   3.833   4.729  15.287 -1.2475 -1.6531 -2.3903
 6985TIP3   OH242445   3.808   2.312   0.791  0.1750  0.4492  0.2618
 6985TIP3    H142446   3.804   2.276   0.702 -0.0382 -0.9749  0.8342
 6985TIP3    H242447   3.723   2.292   0.830 -0.2958  2.3496  0.3504
 6986TIP3   OH242448   1.736   4.632   3.197  0.2855  0.5237  0.1376
 6986TIP3    H142449   1.744   4.552   3.144 -0.1996 -0.0952  0.9621
 6986TIP3    H242450   1.646   4.661   3.182 -0.0426  0.0299  1.0112
 6987TIP3   OH242451   2.405   0.608  15.840  0.5725 -0.6792 -0.9440
 6987TIP3    H142452   2.463   0.543  15.799 -1.1105 -1.4313 -2.2958
 6987TIP3    H242453   2.440   0.692  15.812  0.1722 -1.1490 -3.0664
 6988TIP3   OH242454   3.689   0.940   2.144  0.9549  0.8280  0.2614
 6988TIP3    H142455   3.698   0.849   2.118 -0.3632  0.9126 -0.5532
 6988TIP3    H242456   3.727   0.943   2.232 -1.9822 -1.2535  1.7569
 6989TIP3   OH242457   6.408   0.168   3.596  0.3867 -0.2217 -0.0876
 6989TIP3    H142458   6.384   0.077   3.608 -0.5652  0.3791  3.8971
 6989TIP3    H242459   6.333   0.207   3.550 -1.4081 -0.6144  2.3324
 6990TIP3   OH242460   4.362   6.350  11.307 -0.4403 -0.0777 -0.2404
 6990TIP3    H142461   4.437   6.392  11.349  0.7088 -1.0675 -1.2148
 6990TIP3    H242462   4.387   6.345  11.214 -1.1634 -1.5332 -0.3859
 6991TIP3   OH242463   1.186   5.766  13.477 -0.3503  0.0146  0.1738
 6991TIP3    H142464   1.280   5.782  13.469 -0.4425  0.7134  0.4586
 6991TIP3    H242465   1.166   5.705  13.406  0.5076 -0.9471  0.7240
 6992TIP3   OH242466   0.918   3.976  12.630  0.1270  0.1833 -0.0210
 6992TIP3    H142467   0.986   4.009  12.690  1.1366  1.4359 -1.7630
 6992TIP3    H242468   0.966   3.917  12.572 -0.8363 -0.9802  0.3317
 6993TIP3   OH242469   4.692   1.211  13.837  0.3247  0.3491 -0.5541
 6993TIP3    H142470   4.777   1.243  13.866  0.4237 -2.0820  2.3639
 6993TIP3    H242471   4.713   1.144  13.771  0.7629 -0.4718  0.3868
 6994TIP3   OH242472   3.288   1.066  11.022  0.1271  0.3186  0.1233
 6994TIP3    H142473   3.354   1.120  10.981 -1.2998  0.5195 -2.0856
 6994TIP3    H242474   3.331   1.030  11.099  3.2329 -0.5994 -1.8478
 6995TIP3   OH242475   1.216   6.780   0.699 -0.2599 -0.7059 -0.0796
 6995TIP3    H142476   1.257   6.790   0.613  0.3912  1.7903  0.4421
 6995TIP3    H242477   1.129   6.818   0.689  0.0119  0.0787  0.4893
 6996TIP3   OH242478   5.893   0.802   5.081  0.4603 -0.3463 -0.4585
 6996TIP3    H142479   5.883   0.757   5.165 -1.5681  1.1524  0.1826
 6996TIP3    H242480   5.986   0.825   5.078  0.2405  1.3811  2.4152
 6997TIP3   OH242481   0.702   4.132  10.739 -0.0804  0.1554  0.0392
 6997TIP3    H142482   0.624   4.184  10.720  0.9398  1.3412 -1.0948
 6997TIP3    H242483   0.764   4.156  10.671  0.5673 -2.3643 -0.3600
 6998TIP3   OH242484   6.337   2.436   0.505 -0.1254 -0.3236 -0.3027
 6998TIP3    H142485   6.325   2.509   0.444 -0.0054  0.4218  0.5591
 6998TIP3    H242486   6.392   2.374   0.457 -0.1542  0.1794 -1.0038
 6999TIP3   OH242487   1.682   1.170  16.669 -0.0113 -0.3459  0.1306
 6999TIP3    H142488   1.636   1.086  16.661 -1.2955  0.3354 -0.0288
 6999TIP3    H242489   1.653   1.205  16.754 -0.4869  0.4775 -0.3507
 7000TIP3   OH242490   0.953   5.586   4.069  0.2692  0.1478 -0.0614
 7000TIP3    H142491   0.897   5.660   4.044  1.2548  0.3010 -1.9970
 7000TIP3    H242492   0.920   5.512   4.018 -0.0518 -0.5280  1.0821
 7001TIP3   OH242493   2.538   0.124   1.733 -0.0437  0.0554 -0.2417
 7001TIP3    H142494   2.453   0.094   1.764  0.2865  0.3846  1.0688
 7001TIP3    H242495   2.583   0.044   1.704 -1.0116 -0.0383 -1.5702
 7002TIP3   OH242496   6.350   2.210  14.034 -0.3305 -0.6832  0.3714
 7002TIP3    H142497   6.262   2.190  14.002 -0.7780  0.2235  0.9928
 7002TIP3    H242498   6.338   2.284  14.093  0.8486 -0.5775  0.5072
 7003TIP3   OH242499   4.477   6.027  13.762  0.3230  0.2232  0.2742
 7003TIP3    H142500   4.434   6.105  13.726  1.8000  1.0655  0.2462
 7003TIP3    H242501   4.556   6.017  13.708 -0.3272 -1.9063 -0.3790
 7004TIP3   OH242502   1.764   3.911   3.836  0.4234  0.1011 -0.5192
 7004TIP3    H142503   1.812   3.885   3.757  0.5970 -1.4491  0.0631
 7004TIP3    H242504   1.711   3.834   3.858  0.7813  0.3092  1.1731
 7005TIP3   OH242505   0.807   5.696  14.131 -0.4898  0.0354 -0.5568
 7005TIP3    H142506   0.788   5.631  14.199  0.4084 -1.6265 -1.8005
 7005TIP3    H242507   0.785   5.651  14.049  0.5351  1.1630 -1.4960
 7006TIP3   OH242508   4.834   4.057   1.195 -0.5229  0.5767 -0.5137
 7006TIP3    H142509   4.788   4.043   1.278  3.4215  0.4754  1.9086
 7006TIP3    H242510   4.868   3.971   1.172 -1.4222  0.6450 -2.2344
 7007TIP3   OH242511   1.099   4.144   3.105  0.6022  0.1832 -0.1840
 7007TIP3    H142512   1.111   4.229   3.061 -1.8695  0.9276  0.3954
 7007TIP3    H242513   1.126   4.161   3.195  0.1359  0.3630 -0.0748
 7008TIP3   OH242514   1.975   0.584  12.091 -0.0420  0.0787  0.3926
 7008TIP3    H142515   1.924   0.503  12.082 -0.6257  0.5046 -0.2620
 7008TIP3    H242516   1.970   0.605  12.184 -0.1056 -0.5012  0.5234
 7009TIP3   OH242517   0.501   6.658  13.293 -0.0024  0.1284  0.2770
 7009TIP3    H142518   0.492   6.598  13.219  0.4758  1.1016 -0.6127
 7009TIP3    H242519   0.478   6.744  13.257  1.1993  0.7817  0.9841
 7010TIP3   OH242520   3.896   5.257  11.590  0.5689 -0.3361  0.6044
 7010TIP3    H142521   3.843   5.249  11.669 -1.0024  0.7684 -0.2793
 7010TIP3    H242522   3.836   5.289  11.523  2.0822 -0.2336 -0.7886
 7011TIP3   OH242523   4.886   2.289   2.414  0.0032  0.0366 -0.3057
 7011TIP3    H142524   4.855   2.285   2.324 -2.2012 -1.9364  0.4355
 7011TIP3    H242525   4.873   2.380   2.440  2.3438  1.1049 -2.4137
 7012TIP3   OH242526   1.350   5.041   6.002  0.2582  0.6259  0.6212
 7012TIP3    H142527   1.275   5.010   6.053  1.0863  0.8540  2.0380
 7012TIP3    H242528   1.313   5.072   5.920 -0.8165 -2.3820 -0.1213
 7013TIP3   OH242529   5.153   5.699  12.625  0.2463  0.0280  0.0643
 7013TIP3    H142530   5.071   5.706  12.576  1.2768 -1.1810 -1.9566
 7013TIP3    H242531   5.141   5.757  12.700 -2.3457  0.0673 -0.3054
 7014TIP3   OH242532   1.210   3.969   4.003  0.1664 -0.1610  0.4728
 7014TIP3    H142533   1.187   4.057   3.973 -1.4670 -0.9013 -0.5976
 7014TIP3    H242534   1.268   3.984   4.078  1.3738  1.7918 -0.7621
 7015TIP3   OH242535   3.888   2.466  11.064 -0.4530  0.2634 -0.3403
 7015TIP3    H142536   3.795   2.469  11.087 -0.3608  0.8672 -0.0287
 7015TIP3    H242537   3.907   2.373  11.052 -1.1395  0.1510 -0.5795
 7016TIP3   OH242538   3.752   2.866  16.960 -0.3150 -0.1919  0.2286
 7016TIP3    H142539   3.797   2.816  17.027 -0.8740 -1.7845 -0.5435
 7016TIP3    H242540   3.820   2.888  16.897  0.3277  1.7872  1.5080
 7017TIP3   OH242541   4.809   2.241  13.717  0.2584  0.1259 -0.8805
 7017TIP3    H142542   4.861   2.321  13.719  0.3765  0.0298  0.3419
 7017TIP3    H242543   4.843   2.188  13.789 -0.1709 -0.8106 -1.3421
 7018TIP3   OH242544   5.051   1.637   2.469  0.2332  0.0139  0.2159
 7018TIP3    H142545   4.960   1.637   2.438  1.1272 -0.4303 -2.7265
 7018TIP3    H242546   5.097   1.582   2.406  2.6725  0.7464  1.2711
 7019TIP3   OH242547   4.961   1.235  13.931  0.8712 -0.2886  0.2868
 7019TIP3    H142548   5.045   1.194  13.911  0.3399 -0.7672 -1.0473
 7019TIP3    H242549   4.972   1.327  13.907  0.3255 -0.7964 -2.1968
 7020TIP3   OH242550   4.812   2.968   3.734 -0.2642 -0.1963 -0.3659
 7020TIP3    H142551   4.905   2.959   3.712  0.1361  1.4907  0.5421
 7020TIP3    H242552   4.766   2.924   3.662  1.2466 -2.9153  0.1866
 7021TIP3   OH242553   2.975   6.644  11.195 -0.0185 -0.4251  0.4449
 7021TIP3    H142554   2.880   6.657  11.193  0.0083 -0.2534 -1.4699
 7021TIP3    H242555   2.988   6.556  11.159  0.6159  0.1857 -0.8706
 7022TIP3   OH242556   5.753   5.859   3.676 -0.2534 -0.4027 -0.5974
 7022TIP3    H142557   5.790   5.848   3.588 -0.8714  1.1495 -1.0731
 7022TIP3    H242558   5.690   5.930   3.667 -0.7767 -0.6319  0.9837
 7023TIP3   OH242559   5.417   6.742   0.359  0.1447  0.0557 -0.4509
 7023TIP3    H142560   5.465   6.677   0.411  0.0167  0.2701 -0.0617
 7023TIP3    H242561   5.427   6.824   0.407  0.6344  0.4172 -1.1417
 7024TIP3   OH242562   0.959   3.386  11.091  0.3010  0.5364  0.8171
 7024TIP3    H142563   0.944   3.407  11.184 -2.5052  1.6218  0.2215
 7024TIP3    H242564   0.964   3.471  11.048  1.4556  0.0310 -0.0764
 7025TIP3   OH242565   4.774   3.722   1.478  0.7423  0.2452 -0.1734
 7025TIP3    H142566   4.836   3.713   1.406  0.7292 -0.6676 -0.0822
 7025TIP3    H242567   4.811   3.792   1.533  0.4366  1.3737 -1.3634
 7026TIP3   OH242568   3.149   5.396   1.709  0.2482  0.6299 -0.4642
 7026TIP3    H142569   3.241   5.378   1.727 -0.0548  0.8190  1.4930
 7026TIP3    H242570   3.150   5.476   1.657  1.1737  0.6415 -0.4482
 7027TIP3   OH242571   2.840   0.577   4.326  0.1380 -0.2874  0.4639
 7027TIP3    H142572   2.846   0.646   4.391 -1.4468 -0.7083  1.1185
 7027TIP3    H242573   2.830   0.497   4.377 -0.9597 -0.6441 -0.2800
 7028TIP3   OH242574   5.002   4.452   5.360  0.1872 -0.2222  0.1948
 7028TIP3    H142575   4.997   4.432   5.267  0.2836  0.8725 -0.0547
 7028TIP3    H242576   5.006   4.366   5.403  1.6534 -0.7229 -0.8732
 7029TIP3   OH242577   1.252   1.804   5.099  0.1735 -0.3729 -0.4676
 7029TIP3    H142578   1.160   1.804   5.072 -0.6048  1.7295  1.8629
 7029TIP3    H242579   1.264   1.887   5.144  2.9639 -1.0596  0.2424
 7030TIP3   OH242580   4.482   0.362   4.956  0.2214 -0.1471 -0.1724
 7030TIP3    H142581   4.467   0.277   4.913 -1.6735  0.1742 -0.2571
 7030TIP3    H242582   4.529   0.414   4.891 -1.1269 -0.2188 -1.2584
 7031TIP3   OH242583   3.196   3.393   4.014 -0.3923  0.4296 -0.0106
 7031TIP3    H142584   3.114   3.413   3.969 -0.7281 -0.2857  0.2620
 7031TIP3    H242585   3.224   3.476   4.052 -1.4483  0.4986  0.6328
 7032TIP3   OH242586   3.612   3.794  14.683  0.3142  0.1004  0.0882
 7032TIP3    H142587   3.661   3.779  14.602  0.2366  1.4199 -0.2313
 7032TIP3    H242588   3.678   3.792  14.752  0.3040 -1.6459  0.1055
 7033TIP3   OH242589   0.653   0.150  11.458  0.6423 -0.2612 -0.4710
 7033TIP3    H142590   0.657   0.227  11.514 -0.8112  0.7265 -1.6700
 7033TIP3    H242591   0.560   0.131  11.449  0.9142 -1.2528 -1.3902
 7034TIP3   OH242592   1.837   4.449   3.974 -0.0954 -0.0804  0.4228
 7034TIP3    H142593   1.762   4.403   3.936 -1.2396  1.0753  1.2060
 7034TIP3    H242594   1.877   4.496   3.900 -0.6367 -0.0554  0.1441
 7035TIP3   OH242595   0.893   5.252  16.392 -0.0668 -0.0512  0.0480
 7035TIP3    H142596   0.898   5.311  16.468  1.2085  1.6659 -1.2925
 7035TIP3    H242597   0.799   5.235  16.382 -0.3859  0.8731  1.1228
 7036TIP3   OH242598   3.083   1.930   1.453  0.3906 -0.3528  0.1616
 7036TIP3    H142599   3.160   1.918   1.399 -0.0594 -0.3897 -0.4832
 7036TIP3    H242600   3.086   1.858   1.516  0.4857 -0.7830 -0.3329
 7037TIP3   OH242601   4.178   4.209   2.378  0.6332 -0.6368  0.3317
 7037TIP3    H142602   4.143   4.188   2.464  0.1231 -1.0714  0.0286
 7037TIP3    H242603   4.265   4.244   2.395  0.1209  0.3041  1.0955
 7038TIP3   OH242604   6.103   2.186  13.396  0.0106 -0.1412 -0.0405
 7038TIP3    H142605   6.013   2.187  13.362  1.0385 -1.9074 -3.2228
 7038TIP3    H242606   6.141   2.269  13.366 -0.1423 -0.0688 -0.0347
 7039TIP3   OH242607   0.697   3.467   1.677  0.1614  0.1707 -0.2984
 7039TIP3    H142608   0.701   3.393   1.616 -0.1452 -1.1783  1.2159
 7039TIP3    H242609   0.785   3.472   1.713  0.0654  0.2348 -0.0713
 7040TIP3   OH242610   2.753   4.379  12.625 -0.0444  0.4063  0.5318
 7040TIP3    H142611   2.771   4.293  12.661  1.1995  0.7619  0.7996
 7040TIP3    H242612   2.657   4.385  12.624 -0.2251 -1.6586 -1.2082
 7041TIP3   OH242613   2.169   4.462   5.850  0.1861  0.2334 -0.4293
 7041TIP3    H142614   2.183   4.383   5.902  0.4801  0.6068  0.0612
 7041TIP3    H242615   2.228   4.527   5.888  0.4308  0.5021 -1.2460
 7042TIP3   OH242616   3.258   0.913  14.325 -0.0575  0.4038  0.6277
 7042TIP3    H142617   3.346   0.949  14.340  0.7201 -1.5309  1.0278
 7042TIP3    H242618   3.199   0.988  14.337  1.4801  1.6187  0.9802
 7043TIP3   OH242619   3.000   0.871  14.207 -0.7761 -0.2873  0.2288
 7043TIP3    H142620   2.986   0.912  14.121  2.3069  1.5478  0.4647
 7043TIP3    H242621   3.043   0.788  14.188 -0.4331 -0.0548 -0.0107
 7044TIP3   OH242622   3.424   5.422  14.481 -0.3184 -0.4485  0.3777
 7044TIP3    H142623   3.455   5.512  14.485  0.5049 -0.7497  0.8869
 7044TIP3    H242624   3.398   5.410  14.389 -0.7877  0.4090  0.3869
 7045TIP3   OH242625   1.531   3.145  14.910 -0.3954 -0.1322 -0.3726
 7045TIP3    H142626   1.493   3.182  14.990  0.0135  1.6022 -0.9279
 7045TIP3    H242627   1.457   3.104  14.865 -1.1235  0.9839 -0.2327
 7046TIP3   OH242628   4.206   2.638  13.430 -0.3507  0.5528  0.2079
 7046TIP3    H142629   4.111   2.627  13.431 -0.3821  0.6962 -0.4602
 7046TIP3    H242630   4.224   2.698  13.503 -0.7520  0.4043  0.4328
 7047TIP3   OH242631   6.782   3.479  11.389 -0.2513 -0.3515  0.7716
 7047TIP3    H142632   6.817   3.561  11.423  0.6886 -1.0950  1.6505
 7047TIP3    H242633   6.859   3.422  11.380 -0.8289 -0.9989 -0.2437
 7048TIP3   OH242634   5.472   3.613  13.542  0.0301  0.3897  0.0312
 7048TIP3    H142635   5.383   3.593  13.513  0.3737 -1.5031  0.1479
 7048TIP3    H242636   5.521   3.626  13.461  0.4364 -2.4074 -0.2830
 7049TIP3   OH242637   4.707   1.833  16.629 -0.1292  1.3787  0.1458
 7049TIP3    H142638   4.736   1.908  16.578  0.3539  1.6211  0.7698
 7049TIP3    H242639   4.779   1.770  16.622 -0.1833  1.2989  0.2990
 7050TIP3   OH242640   2.487   4.954   0.615  0.1083 -0.3196 -0.3889
 7050TIP3    H142641   2.440   4.893   0.557 -2.1815  0.3117  0.6947
 7050TIP3    H242642   2.468   5.041   0.580 -0.4278  0.0078  0.6722
 7051TIP3   OH242643   3.076   3.197   0.397 -0.8459 -0.0950 -0.1593
 7051TIP3    H142644   3.051   3.250   0.322  0.6642  0.4553 -0.3070
 7051TIP3    H242645   3.121   3.121   0.360 -1.6404 -0.7255  0.1267
 7052TIP3   OH242646   2.104   2.725  12.577  0.3682  0.2658 -0.1938
 7052TIP3    H142647   2.127   2.659  12.511  0.0283 -1.0053  0.9026
 7052TIP3    H242648   2.187   2.761  12.606  0.7407 -1.1576  0.6203
 7053TIP3   OH242649   1.963   5.479  10.974  0.3342  0.2556 -0.0775
 7053TIP3    H142650   1.895   5.506  10.912  0.7253 -0.7512 -0.9916
 7053TIP3    H242651   1.989   5.559  11.017 -0.6673  0.8320 -0.4978
 7054TIP3   OH242652   2.556   5.493   0.998  0.6434  0.2982 -0.0532
 7054TIP3    H142653   2.484   5.550   1.023  0.8440  0.0420  1.1630
 7054TIP3    H242654   2.516   5.407   0.983  0.2327  0.8461 -2.5636
 7055TIP3   OH242655   0.567   5.189  14.196 -0.4988  0.0423  0.8736
 7055TIP3    H142656   0.562   5.213  14.103 -1.3671 -0.5126  0.7704
 7055TIP3    H242657   0.589   5.271  14.240  1.9359 -0.0630  0.0019
 7056TIP3   OH242658   2.830   1.688   4.024  0.7864 -0.3088 -0.4170
 7056TIP3    H142659   2.823   1.642   3.940  0.7423  0.5561 -0.9091
 7056TIP3    H242660   2.776   1.766   4.012  0.1685 -0.5603  0.6989
 7057TIP3   OH242661   5.972   5.207   4.525 -0.6051  0.0202 -0.0687
 7057TIP3    H142662   6.032   5.193   4.598 -2.0003  0.0798  1.1259
 7057TIP3    H242663   5.943   5.297   4.534 -1.1798 -0.1291 -0.3925
 7058TIP3   OH242664   0.811   2.653  11.290  0.8671 -0.3367 -0.8542
 7058TIP3    H142665   0.893   2.634  11.244  2.0093  0.9198  0.5674
 7058TIP3    H242666   0.801   2.748  11.285 -0.1260 -0.4029 -0.3811
 7059TIP3   OH242667   2.983   0.612   1.062 -0.6077 -0.4292  0.0884
 7059TIP3    H142668   2.978   0.620   1.158  0.5164  0.7577  0.0726
 7059TIP3    H242669   3.033   0.688   1.034  1.7148 -2.2950 -1.1589
 7060TIP3   OH242670   3.276   0.093   1.969  0.0765  0.1822  0.1164
 7060TIP3    H142671   3.189   0.112   2.004 -0.5073 -1.3215 -0.4495
 7060TIP3    H242672   3.268   0.108   1.875  1.0656  2.1680  0.2979
 7061TIP3   OH242673   4.659   2.527   2.263  0.4558  0.2269  0.2841
 7061TIP3    H142674   4.569   2.540   2.232 -0.1889 -1.5745  1.2473
 7061TIP3    H242675   4.687   2.445   2.223  1.2821  0.2162  0.8459
 7062TIP3   OH242676   3.899   4.048  11.419 -0.3866 -0.3045 -0.1521
 7062TIP3    H142677   3.885   4.135  11.381 -1.3935 -0.9725 -1.3883
 7062TIP3    H242678   3.853   4.051  11.503  0.6829  0.7438  0.4297
 7063TIP3   OH242679   5.509   0.211  16.343 -0.9386  0.6685 -0.1385
 7063TIP3    H142680   5.587   0.245  16.385 -1.2045 -1.0518  1.8902
 7063TIP3    H242681   5.470   0.287  16.300  2.0613  1.4859 -1.6913
 7064TIP3   OH242682   3.085   6.035  17.065 -0.1045 -0.5732 -0.4317
 7064TIP3    H142683   3.119   6.114  17.022 -0.6096 -0.8398 -1.3607
 7064TIP3    H242684   3.122   6.038  17.153  0.6342  0.2153 -0.7489
 7065TIP3   OH242685   5.430   6.723  11.770 -0.5649  0.1826  0.0465
 7065TIP3    H142686   5.403   6.779  11.698  0.0077 -1.0002 -1.1201
 7065TIP3    H242687   5.372   6.647  11.766 -0.0462 -0.2425  0.3636
 7066TIP3   OH242688   4.113   0.670  12.107 -0.0033  0.1748  0.5030
 7066TIP3    H142689   4.201   0.698  12.133 -0.1711 -0.5443  1.9689
 7066TIP3    H242690   4.125   0.628  12.022  0.8455  1.2819  0.0629
 7067TIP3   OH242691   4.615   0.974   0.512  0.7440 -0.3535 -0.3419
 7067TIP3    H142692   4.627   0.879   0.517 -0.3297 -0.8892 -4.3868
 7067TIP3    H242693   4.524   0.986   0.483  0.1804  2.0944  2.0166
 7068TIP3   OH242694   4.769   1.721  15.736 -0.0862 -1.2478  0.1605
 7068TIP3    H142695   4.802   1.737  15.824 -0.3189 -1.5643  0.3066
 7068TIP3    H242696   4.848   1.706  15.683  0.0699 -0.7290  0.2433
 7069TIP3   OH242697   2.914   5.589   6.793 -0.3362 -0.1287  0.2627
 7069TIP3    H142698   2.851   5.657   6.769  0.5023  0.9123  0.8997
 7069TIP3    H242699   2.939   5.611   6.883  1.2190 -0.2606 -0.0964
 7070TIP3   OH242700   3.119   6.564  12.121  0.1408 -0.1553  0.0792
 7070TIP3    H142701   3.034   6.524  12.137 -1.1063  1.4007 -2.0779
 7070TIP3    H242702   3.111   6.653  12.157  0.5369  0.2924 -0.9123
 7071TIP3   OH242703   3.088   6.285   0.920  0.7519 -0.4114  0.2611
 7071TIP3    H142704   3.060   6.375   0.938  2.9498  0.2110  0.8509
 7071TIP3    H242705   3.007   6.235   0.915 -0.4866  1.4701  0.6603
 7072TIP3   OH242706   6.198   0.795  14.868  0.1718  0.7520  0.2992
 7072TIP3    H142707   6.268   0.800  14.803 -0.8091 -0.6471 -0.9422
 7072TIP3    H242708   6.204   0.877  14.916  2.8244  0.5553  0.4463
 7073TIP3   OH242709   0.357   4.557  14.189 -0.5667  0.6410 -0.1423
 7073TIP3    H142710   0.317   4.644  14.182 -3.2456 -0.4998 -0.4058
 7073TIP3    H242711   0.370   4.545  14.283  0.3352  1.4978 -0.1369
 7074TIP3   OH242712   4.992   1.391  16.579 -0.0209  0.1586  0.4446
 7074TIP3    H142713   4.962   1.324  16.519 -2.2889  1.8565 -0.4819
 7074TIP3    H242714   4.936   1.381  16.656 -0.0856  0.6723  0.4717
 7075TIP3   OH242715   0.634   1.187  15.401  0.6628 -0.4629  0.4444
 7075TIP3    H142716   0.546   1.205  15.434  0.3950 -1.2744  0.1819
 7075TIP3    H242717   0.632   1.215  15.309  0.4206 -1.2644  0.2000
 7076TIP3   OH242718   2.968   6.014   0.720 -0.0545  0.1580  0.0955
 7076TIP3    H142719   2.921   5.981   0.644 -0.4377  1.1058 -0.0881
 7076TIP3    H242720   3.020   6.087   0.686  0.3464  0.1111  0.5999
 7077TIP3   OH242721   2.348   6.095   5.501 -0.5341  0.0427 -0.0216
 7077TIP3    H142722   2.360   6.002   5.484 -0.2342  0.2317 -0.8643
 7077TIP3    H242723   2.436   6.128   5.518 -0.4711  0.4283 -1.0564
 7078TIP3   OH242724   0.209   0.751   0.124  0.5111 -0.3356  0.2279
 7078TIP3    H142725   0.272   0.819   0.149  0.2867  0.0724 -0.3051
 7078TIP3    H242726   0.235   0.675   0.176 -0.0729  0.5259  1.8911
 7079TIP3   OH242727   1.926   1.767   0.338  0.2444 -0.0968 -0.6097
 7079TIP3    H142728   1.974   1.752   0.420 -1.0336  2.3957  0.7436
 7079TIP3    H242729   1.887   1.683   0.317  0.4840 -0.7875  1.4646
 7080TIP3   OH242730   1.619   0.020  12.398 -0.8703 -0.3272  0.8172
 7080TIP3    H142731   1.600  -0.060  12.349 -2.3049 -0.8751  2.1702
 7080TIP3    H242732   1.593  -0.000  12.487 -0.4428  1.3854  1.3678
 7081TIP3   OH242733   2.313   6.524  12.914  0.0481 -0.1566 -0.0349
 7081TIP3    H142734   2.291   6.554  13.002  0.2181 -3.6158  1.3499
 7081TIP3    H242735   2.266   6.583  12.855 -1.3701  1.2876  2.4057
 7082TIP3   OH242736   5.405   0.452   1.300 -0.3108 -0.2370 -0.6552
 7082TIP3    H142737   5.461   0.375   1.308  1.5023  1.1404  0.7695
 7082TIP3    H242738   5.462   0.525   1.320 -2.3944  1.3626 -0.2360
 7083TIP3   OH242739   5.137   0.038  12.541 -0.4149 -0.2467  0.6664
 7083TIP3    H142740   5.105  -0.040  12.587 -1.2582 -1.1338 -1.2749
 7083TIP3    H242741   5.065   0.061  12.482  1.1425 -0.1119 -1.2681
 7084TIP3   OH242742   5.995   2.745  15.081  1.0242 -0.1489  0.4224
 7084TIP3    H142743   5.965   2.765  14.992  0.6175  1.3242  0.8635
 7084TIP3    H242744   6.000   2.650  15.084  1.7178 -0.2008 -1.3958
 7085TIP3   OH242745   4.830   3.285   2.760 -0.2788 -0.2789 -0.6377
 7085TIP3    H142746   4.753   3.338   2.740 -0.7625  0.1957  2.1420
 7085TIP3    H242747   4.902   3.331   2.718 -1.1434  0.7899 -0.9901
 7086TIP3   OH242748   0.043   5.945   1.688 -0.5299 -0.1447 -0.1368
 7086TIP3    H142749   0.101   5.905   1.623 -1.0608  1.5637 -1.7453
 7086TIP3    H242750   0.099   6.008   1.733 -0.5482 -0.2070 -0.0282
 7087TIP3   OH242751   0.909   0.135  16.827 -0.3201 -0.5117 -0.0016
 7087TIP3    H142752   0.975   0.131  16.897 -0.2312 -0.7858 -0.1020
 7087TIP3    H242753   0.952   0.097  16.751  0.1769  1.2978 -0.6876
 7088TIP3   OH242754   4.209   0.384  13.065  0.2878 -0.1769  0.1851
 7088TIP3    H142755   4.151   0.324  13.113 -1.3485  1.7232  0.7635
 7088TIP3    H242756   4.254   0.434  13.134  2.0704 -1.0766 -0.2761
 7089TIP3   OH242757   2.937   5.775  10.903 -0.2309 -0.0514 -0.0820
 7089TIP3    H142758   2.944   5.680  10.909  0.4971  0.0761  2.0559
 7089TIP3    H242759   3.020   5.803  10.863 -0.5374 -0.3153 -0.9145
 7090TIP3   OH242760   3.726   2.019   1.329 -0.0217  0.0258  0.4081
 7090TIP3    H142761   3.747   2.101   1.284 -2.5754  1.0596  0.9065
 7090TIP3    H242762   3.809   1.989   1.366  1.3838  1.2133 -1.6269
 7091TIP3   OH242763   1.067   2.152  16.267  0.3529  0.1503 -0.7209
 7091TIP3    H142764   1.009   2.168  16.341  1.0052  0.7671 -0.3368
 7091TIP3    H242765   1.036   2.069  16.230  1.4755 -1.4527  1.6533
 7092TIP3   OH242766   6.458   3.677   0.147 -0.0449 -1.1148 -0.5088
 7092TIP3    H142767   6.394   3.626   0.096 -1.7323 -0.4853  0.8538
 7092TIP3    H242768   6.410   3.756   0.172  0.9426 -1.0581  1.3946
 7093TIP3   OH242769   5.824   3.700  14.700 -0.0851  0.5668  0.4143
 7093TIP3    H142770   5.904   3.658  14.733 -0.5231 -0.5014  0.1472
 7093TIP3    H242771   5.852   3.789  14.677  0.5763  0.8813  2.2032
 7094TIP3   OH242772   3.094   3.492  11.049  0.0368  0.6017 -0.1870
 7094TIP3    H142773   3.012   3.506  11.097 -0.2727  1.6665 -0.9836
 7094TIP3    H242774   3.142   3.574  11.061  1.0920 -0.0885  0.4427
 7095TIP3   OH242775   1.579   2.544  16.860  0.4740 -0.5823  0.0870
 7095TIP3    H142776   1.516   2.616  16.858  0.9378 -0.1300  1.0380
 7095TIP3    H242777   1.549   2.488  16.932  0.5658 -0.9216 -0.1369
 7096TIP3   OH242778   3.256   2.229  16.658  0.1528  0.0754  0.4134
 7096TIP3    H142779   3.216   2.209  16.573  1.2445  0.7258 -0.2859
 7096TIP3    H242780   3.267   2.143  16.699  0.5624 -0.3647 -0.5693
 7097TIP3   OH242781   2.631   3.115   1.253 -0.2480 -0.3885  0.0631
 7097TIP3    H142782   2.589   3.196   1.223  0.1380 -0.9503 -2.2167
 7097TIP3    H242783   2.719   3.119   1.214  0.2460 -1.2948  1.0466
 7098TIP3   OH242784   3.380   1.414   4.995  0.1259 -0.1032  0.9725
 7098TIP3    H142785   3.433   1.488   5.024 -0.4936  0.4432  0.7484
 7098TIP3    H242786   3.289   1.442   5.012 -0.1783 -0.3015 -0.2638
 7099TIP3   OH242787   1.875   5.735  15.344 -0.7712 -0.1608  0.2934
 7099TIP3    H142788   1.906   5.696  15.262  2.1076 -0.4226  1.3718
 7099TIP3    H242789   1.859   5.827  15.321  1.8302  0.2466 -0.2825
 7100TIP3   OH242790   4.439   6.542  14.198 -0.0687  0.5756  0.1115
 7100TIP3    H142791   4.454   6.616  14.257  0.2510 -0.9925  2.1052
 7100TIP3    H242792   4.506   6.551  14.131 -1.0793  2.9931 -0.6907
 7101TIP3   OH242793   4.180   5.324  14.444 -0.0070 -0.2257 -0.0637
 7101TIP3    H142794   4.185   5.419  14.444  2.9982 -0.2943  1.3910
 7101TIP3    H242795   4.092   5.305  14.477 -1.1780  1.9752 -1.6594
 7102TIP3   OH242796   1.858   4.346  14.154  0.3399  0.1222 -0.1255
 7102TIP3    H142797   1.938   4.390  14.182 -0.5194  1.2643  0.6017
 7102TIP3    H242798   1.850   4.271  14.213  0.2409  0.6968  0.6042
 7103TIP3   OH242799   3.228   1.079   3.252  0.0044  0.1759 -0.0242
 7103TIP3    H142800   3.266   0.993   3.234 -0.3929  0.2222 -1.1955
 7103TIP3    H242801   3.199   1.074   3.343 -2.3082 -1.8463 -0.7595
 7104TIP3   OH242802   6.120   1.314   3.935  0.1588 -0.3198  0.1992
 7104TIP3    H142803   6.058   1.256   3.979  0.1807 -1.4232 -1.1709
 7104TIP3    H242804   6.139   1.271   3.852  1.6619  0.7082 -0.0361
 7105TIP3   OH242805   6.348   5.922  10.425  0.1905 -1.0322  0.5213
 7105TIP3    H142806   6.257   5.910  10.396  1.1606  1.1620 -4.4509
 7105TIP3    H242807   6.345   6.001  10.479 -0.9257 -1.4734  1.1485
 7106TIP3   OH242808   1.732   4.456  15.572  0.6026 -0.2026  0.0624
 7106TIP3    H142809   1.767   4.465  15.661  0.8351 -0.6136  0.0118
 7106TIP3    H242810   1.791   4.509  15.518 -0.5836  1.5461  0.4052
 7107TIP3   OH242811   1.726   1.311   5.794  0.1059  0.0311  0.1522
 7107TIP3    H142812   1.655   1.264   5.837  0.2298  1.0784  1.5772
 7107TIP3    H242813   1.803   1.255   5.807 -0.2393 -0.5990 -0.4660
 7108TIP3   OH242814   1.126   2.578  14.529  0.0651 -0.3158  0.4756
 7108TIP3    H142815   1.154   2.547  14.443 -0.2638 -0.9890  0.6020
 7108TIP3    H242816   1.114   2.498  14.581 -0.3242  0.0484  0.9636
 7109TIP3   OH242817   4.384   4.500   3.884 -0.3436 -0.2231 -0.6811
 7109TIP3    H142818   4.324   4.430   3.858  2.6633 -2.4810 -2.0080
 7109TIP3    H242819   4.407   4.480   3.974 -0.5646 -0.0669 -0.5865
 7110TIP3   OH242820   0.128   3.905  11.254  0.6985  0.2814 -0.8576
 7110TIP3    H142821   0.051   3.903  11.197 -0.4365 -3.4237  0.5415
 7110TIP3    H242822   0.107   3.970  11.321 -0.4104  0.5903 -1.4876
 7111TIP3   OH242823   4.153   3.417   0.951  0.1535  0.3984 -0.2431
 7111TIP3    H142824   4.103   3.424   1.032 -0.7292 -0.5476 -0.6847
 7111TIP3    H242825   4.224   3.356   0.972  0.5842  1.0149  0.1197
 7112TIP3   OH242826   0.154   6.527  16.039  0.5589  0.1792  0.2657
 7112TIP3    H142827   0.241   6.557  16.014  0.6802 -0.3452  0.0611
 7112TIP3    H242828   0.154   6.531  16.135  0.4081  1.2846  0.2391
 7113TIP3   OH242829   3.618   2.547   0.947  0.1240  0.3153  0.7039
 7113TIP3    H142830   3.583   2.462   0.920  3.6514 -1.1276  0.0921
 7113TIP3    H242831   3.575   2.610   0.889  0.0575 -1.5373 -1.3838
 7114TIP3   OH242832   6.226   4.887   0.652  0.2104  0.4753  0.5154
 7114TIP3    H142833   6.159   4.822   0.673 -0.8037  0.5247 -2.2280
 7114TIP3    H242834   6.179   4.955   0.604  2.2978 -0.0147 -2.5008
 7115TIP3   OH242835   2.064   0.163  13.975 -0.0469 -0.2427 -0.1667
 7115TIP3    H142836   2.060   0.185  13.882  1.2752  0.6652 -0.0363
 7115TIP3    H242837   1.974   0.170  14.005 -0.2495  1.2433 -1.0095
 7116TIP3   OH242838   2.152   0.463   1.985 -0.3163 -0.2770  0.1787
 7116TIP3    H142839   2.101   0.458   2.066 -1.1614  1.8487 -0.1417
 7116TIP3    H242840   2.235   0.419   2.006 -0.0065  1.2518  2.6389
 7117TIP3   OH242841   5.360   5.696   3.640 -0.1322 -0.8542  0.3662
 7117TIP3    H142842   5.319   5.777   3.672  2.3522  0.3867  0.6675
 7117TIP3    H242843   5.286   5.642   3.611 -1.8177  2.3958 -2.0122
 7118TIP3   OH242844   5.105   3.889   1.259  0.0827 -0.3189 -0.2249
 7118TIP3    H142845   5.172   3.877   1.192 -0.1507  1.2804 -0.7894
 7118TIP3    H242846   5.100   3.984   1.270 -2.9163 -0.3054 -1.0442
 7119TIP3   OH242847   6.198   2.967  12.065  0.2660 -0.5971  0.3012
 7119TIP3    H142848   6.203   3.045  12.120 -0.9439  0.2393 -0.7180
 7119TIP3    H242849   6.205   3.001  11.975 -0.8858 -1.5861 -0.1755
 7120TIP3   OH242850   6.555   3.295  16.540  0.3012  0.5345  0.1061
 7120TIP3    H142851   6.559   3.391  16.544  0.2787  0.6114 -1.2916
 7120TIP3    H242852   6.633   3.269  16.493  0.1684 -0.1280  0.2380
 7121TIP3   OH242853   3.872   3.123  10.931  0.6023 -0.2060 -0.0014
 7121TIP3    H142854   3.958   3.106  10.892  0.6705 -0.2815  0.1822
 7121TIP3    H242855   3.815   3.144  10.856  0.9002  0.3447 -0.0790
 7122TIP3   OH242856   3.468   5.539   2.367 -0.5031  0.3010  0.2584
 7122TIP3    H142857   3.525   5.555   2.443 -0.4345 -1.7750  0.7194
 7122TIP3    H242858   3.391   5.495   2.404 -1.3170  0.9142 -0.6724
 7123TIP3   OH242859   6.217   3.560   6.258  0.6232  0.3301 -0.2669
 7123TIP3    H142860   6.217   3.638   6.203  0.6571 -0.0148 -0.7626
 7123TIP3    H242861   6.131   3.560   6.300  0.6650  0.6924 -0.1818
 7124TIP3   OH242862   4.805   1.278  14.800 -0.0797  0.0087 -0.0883
 7124TIP3    H142863   4.771   1.196  14.838 -3.0554  0.8547 -0.6668
 7124TIP3    H242864   4.826   1.332  14.876  2.5617 -1.4036  0.3256
 7125TIP3   OH242865   0.546   5.805  14.178  0.5267 -0.4574  0.1436
 7125TIP3    H142866   0.635   5.769  14.175  1.2604  1.2076  1.0114
 7125TIP3    H242867   0.531   5.836  14.089  0.9062 -0.5521  0.0411
 7126TIP3   OH242868   2.745   4.217   3.711  0.5208  0.1214 -0.1290
 7126TIP3    H142869   2.774   4.245   3.624 -0.2757  2.0350  0.1575
 7126TIP3    H242870   2.742   4.122   3.706 -1.6412  0.1984 -2.9333
 7127TIP3   OH242871   1.498   6.262   3.925  0.7301  0.5260 -0.2106
 7127TIP3    H142872   1.485   6.245   3.832  0.3040  0.7712 -0.1984
 7127TIP3    H242873   1.589   6.291   3.932  1.9365 -2.7800 -0.0796
 7128TIP3   OH242874   3.250   1.380  12.185  0.1302 -0.0399  0.4037
 7128TIP3    H142875   3.200   1.460  12.199 -0.0726 -0.0172 -0.4156
 7128TIP3    H242876   3.291   1.391  12.099  1.7919  0.0652  1.1573
 7129TIP3   OH242877   5.941   3.495  12.881 -0.1260  0.4855  0.3033
 7129TIP3    H142878   5.944   3.549  12.802  2.0902 -1.2331 -0.8990
 7129TIP3    H242879   6.025   3.510  12.923 -0.6508  0.1659  1.4964
 7130TIP3   OH242880   3.184   5.976  15.871  0.1216 -0.1366 -0.0445
 7130TIP3    H142881   3.236   6.023  15.936  0.5004 -1.2073  0.4573
 7130TIP3    H242882   3.163   5.893  15.914 -1.6540  0.0909 -0.3880
 7131TIP3   OH242883   5.158   4.004  16.695  0.3614 -0.3035  0.0923
 7131TIP3    H142884   5.242   4.024  16.736  0.1121  0.6582  0.1509
 7131TIP3    H242885   5.139   4.079  16.639 -2.1806  1.3453  2.8424
 7132TIP3   OH242886   5.086   4.704  12.865  0.2460  0.8895 -0.3516
 7132TIP3    H142887   5.141   4.694  12.787 -1.1034  2.3038 -1.5526
 7132TIP3    H242888   5.045   4.618  12.877 -0.3893  0.9396 -1.9304
 7133TIP3   OH242889   6.322   5.984  15.426  0.5052 -0.2632 -0.2393
 7133TIP3    H142890   6.271   5.964  15.347  0.1269 -0.6587  0.0955
 7133TIP3    H242891   6.260   5.972  15.498  0.7890  0.3010  0.1085
 7134TIP3   OH242892   2.195   2.742   3.754 -0.4268 -0.0459  0.4620
 7134TIP3    H142893   2.102   2.739   3.774 -0.1751  0.8985  1.9301
 7134TIP3    H242894   2.220   2.833   3.768  0.6284 -0.1823 -0.3868
 7135TIP3   OH242895   6.163   0.684  11.672 -0.0038 -0.0732 -0.1453
 7135TIP3    H142896   6.214   0.762  11.694 -1.2154  0.7990 -0.3517
 7135TIP3    H242897   6.225   0.612  11.682  1.4542  1.0011 -1.0202
 7136TIP3   OH242898   3.555   3.502  10.662  0.3535 -0.1002  0.3686
 7136TIP3    H142899   3.505   3.573  10.702 -0.0612 -0.3336  0.2691
 7136TIP3    H242900   3.502   3.475  10.587 -0.5815 -1.9520  1.6345
 7137TIP3   OH242901   5.241   1.546  13.859 -0.2336 -0.1458 -0.2464
 7137TIP3    H142902   5.241   1.628  13.809  2.3937  0.0203 -0.0698
 7137TIP3    H242903   5.205   1.569  13.944 -1.9764  0.2055 -1.0352
 7138TIP3   OH242904   3.546   1.018   4.532 -0.8195  0.0872  0.1663
 7138TIP3    H142905   3.529   1.096   4.479 -3.5176 -0.8399 -0.4609
 7138TIP3    H242906   3.519   1.044   4.620  1.3583  0.8309  0.6815
 7139TIP3   OH242907   4.059   4.738   6.258  0.4442  0.2826  0.5545
 7139TIP3    H142908   3.973   4.697   6.266  1.0312 -1.4063 -1.0214
 7139TIP3    H242909   4.044   4.830   6.281 -1.5725 -0.1648  1.2248
 7140TIP3   OH242910   0.455   4.555   3.554 -0.3817 -0.4590 -0.5644
 7140TIP3    H142911   0.384   4.497   3.527 -0.5081 -1.4591  1.7369
 7140TIP3    H242912   0.487   4.593   3.472 -3.2623 -0.2843 -1.7354
 7141TIP3   OH242913   2.364   1.559  14.904  0.0119  0.3808  0.4372
 7141TIP3    H142914   2.351   1.518  14.818  0.1331  0.3192  0.4481
 7141TIP3    H242915   2.369   1.485  14.965  0.2742  0.4095  0.4507
 7142TIP3   OH242916   1.858   1.799   1.499  0.1035  0.2180 -0.4653
 7142TIP3    H142917   1.770   1.810   1.463  1.3358 -0.0979 -3.9794
 7142TIP3    H242918   1.889   1.888   1.517 -0.5942  0.3872 -0.0963
 7143TIP3   OH242919   5.441   5.456  12.783  0.6024  0.2354 -0.0466
 7143TIP3    H142920   5.422   5.375  12.830 -1.7519  0.3124 -0.7265
 7143TIP3    H242921   5.426   5.434  12.691 -1.5537  1.7512 -0.1350
 7144TIP3   OH242922   2.605   2.811  12.391 -0.9001  0.2589 -0.3008
 7144TIP3    H142923   2.601   2.761  12.309 -0.3432 -0.0283 -0.1571
 7144TIP3    H242924   2.696   2.840  12.396 -1.3170  1.7237 -0.6351
 7145TIP3   OH242925   4.868   6.168  12.489  0.3848 -0.1309  0.8662
 7145TIP3    H142926   4.917   6.121  12.557 -0.0268 -0.1575  1.1484
 7145TIP3    H242927   4.807   6.103  12.455  0.1907  0.0504  0.8713
 7146TIP3   OH242928   2.643   0.385   0.513  0.3183 -0.3052 -0.7223
 7146TIP3    H142929   2.588   0.376   0.591  1.4744 -1.1162  0.0307
 7146TIP3    H242930   2.587   0.429   0.449 -0.8357 -0.1205  0.3781
 7147TIP3   OH242931   6.202   2.140  15.722  0.3262  0.3100  1.0198
 7147TIP3    H142932   6.248   2.215  15.684  1.1243 -0.5741  0.1591
 7147TIP3    H242933   6.272   2.088  15.762  0.0102 -0.6933  0.3270
 7148TIP3   OH242934   3.502   6.326   5.910  0.1941  0.0808 -0.1127
 7148TIP3    H142935   3.419   6.373   5.920  0.4768  1.0317 -1.7337
 7148TIP3    H242936   3.539   6.323   5.998 -0.3515  1.9829  0.2396
 7149TIP3   OH242937   5.460   4.059   1.238 -0.1720 -0.2519  0.3030
 7149TIP3    H142938   5.458   4.052   1.142 -1.6278 -0.4835  0.3185
 7149TIP3    H242939   5.525   3.995   1.265  2.0555  1.4921 -0.6108
 7150TIP3   OH242940   2.868   0.191  12.719  0.4656 -0.5803  0.2427
 7150TIP3    H142941   2.811   0.242  12.776  1.9829 -0.2397  1.5183
 7150TIP3    H242942   2.817   0.178  12.639 -0.9935  0.5537  0.9494
 7151TIP3   OH242943   5.427   4.837  12.969 -0.5297  0.1501  0.7370
 7151TIP3    H142944   5.406   4.765  12.910 -1.0261  1.4034 -0.6843
 7151TIP3    H242945   5.510   4.812  13.010  0.9497  0.1330 -2.0616
 7152TIP3   OH242946   2.707   6.281  15.002 -0.5341  0.7056  0.0191
 7152TIP3    H142947   2.739   6.234  14.925 -2.5867  0.6795 -0.8889
 7152TIP3    H242948   2.778   6.341  15.025  1.2074 -1.1655 -0.2149
 7153TIP3   OH242949   3.340   1.534  16.819  0.1245  0.1489  0.0443
 7153TIP3    H142950   3.309   1.518  16.908 -1.1343 -1.1604 -0.5986
 7153TIP3    H242951   3.316   1.456  16.770  0.2134  1.1054 -1.6175
 7154TIP3   OH242952   1.717   2.905  10.318  0.0594 -0.4751  0.3928
 7154TIP3    H142953   1.804   2.908  10.277  0.3083  0.8742  0.9452
 7154TIP3    H242954   1.715   2.822  10.365  1.0538 -0.5189  0.3785
 7155TIP3   OH242955   3.386   0.562  13.338  0.3863 -0.1756  0.1803
 7155TIP3    H142956   3.340   0.613  13.272  1.8528 -0.2733 -0.9836
 7155TIP3    H242957   3.434   0.627  13.390  1.8689 -0.2633 -0.9975
 7156TIP3   OH242958   2.095   1.865   3.412  0.1155 -0.2199  0.4785
 7156TIP3    H142959   2.159   1.929   3.381  1.2441 -1.5499 -0.0420
 7156TIP3    H242960   2.016   1.885   3.363  0.5544  0.5383  0.0527
 7157TIP3   OH242961   6.493   3.055   4.629 -0.0181  0.0774 -0.2179
 7157TIP3    H142962   6.488   3.050   4.724  2.0068  0.4527 -0.0593
 7157TIP3    H242963   6.414   3.101   4.603  0.4208  1.8750  1.4625
 7158TIP3   OH242964   5.238   5.824   0.956  0.1853  0.1779  0.4035
 7158TIP3    H142965   5.183   5.864   0.888  1.0745 -0.3551 -0.6748
 7158TIP3    H242966   5.300   5.770   0.907 -1.1364 -2.8196  1.7746
 7159TIP3   OH242967   2.860   5.908  13.396  0.6002 -0.4681 -0.3592
 7159TIP3    H142968   2.777   5.861  13.402 -0.1868  1.0181  1.6094
 7159TIP3    H242969   2.837   5.992  13.355  1.2639 -0.3150 -0.4270
 7160TIP3   OH242970   5.546   4.761   4.444  0.1158 -0.1046 -0.1383
 7160TIP3    H142971   5.514   4.699   4.510 -0.5002  2.7862  2.4968
 7160TIP3    H242972   5.467   4.786   4.395  0.0767 -0.2300 -0.1396
 7161TIP3   OH242973   3.957   0.174   2.885  0.6050 -0.5101  0.0366
 7161TIP3    H142974   3.930   0.187   2.794  1.1423  0.4049 -0.0070
 7161TIP3    H242975   3.891   0.116   2.922 -0.6061  0.5252 -0.4548
 7162TIP3   OH242976   1.488   3.086  11.223 -0.4642 -0.2092  0.0496
 7162TIP3    H142977   1.466   3.057  11.135  0.2550  1.0619 -0.5659
 7162TIP3    H242978   1.578   3.059  11.236 -0.5864 -0.4449  0.4224
 7163TIP3   OH242979   3.924   6.514  12.533 -0.0971 -0.2893 -0.3518
 7163TIP3    H142980   3.920   6.570  12.611 -0.8218  0.4774 -0.9149
 7163TIP3    H242981   3.860   6.445  12.549 -1.3331  0.6846 -0.8433
 7164TIP3   OH242982   2.363   5.473  16.152  0.2496 -0.1529 -0.5679
 7164TIP3    H142983   2.312   5.549  16.125 -1.5780 -1.0181  0.2898
 7164TIP3    H242984   2.299   5.413  16.189  1.9617 -1.1499  0.9359
 7165TIP3   OH242985   1.440   0.121   3.079 -0.5907 -0.8624  0.7523
 7165TIP3    H142986   1.347   0.128   3.101 -0.3592 -2.2997  2.3028
 7165TIP3    H242987   1.442   0.135   2.984 -2.0938  1.4407  0.9685
 7166TIP3   OH242988   5.733   1.105   2.588 -0.3427 -0.1731  0.5947
 7166TIP3    H142989   5.676   1.150   2.525 -1.7138  1.0365  2.5863
 7166TIP3    H242990   5.715   1.012   2.574  1.0168 -0.1439 -2.2043
 7167TIP3   OH242991   6.381   2.928   2.746 -1.0163 -0.7398 -0.0044
 7167TIP3    H142992   6.287   2.930   2.728 -1.3600 -1.0035  1.6006
 7167TIP3    H242993   6.414   3.009   2.707 -2.4216  0.8406  1.8563
 7168TIP3   OH242994   1.003   2.687   4.457  0.6360 -0.1165  0.9111
 7168TIP3    H142995   1.048   2.689   4.372  0.0005  0.5956  0.5783
 7168TIP3    H242996   0.918   2.647   4.438 -0.7687  2.7734  0.5287
 7169TIP3   OH242997   3.306   5.448   7.092  0.1718 -0.6837 -0.9776
 7169TIP3    H142998   3.335   5.493   7.013 -1.7221  0.6943 -0.9847
 7169TIP3    H242999   3.279   5.361   7.062  0.0598 -0.3901 -1.7534
 7170TIP3   OH243000   6.631   2.550  15.140  0.2325 -0.1525 -0.3547
 7170TIP3    H143001   6.701   2.564  15.076 -0.0644 -1.0216 -0.8818
 7170TIP3    H243002   6.557   2.601  15.107 -0.2709 -1.4545 -1.3098
 7171TIP3   OH243003   2.682   5.545   3.167 -0.2621 -0.1145  0.6259
 7171TIP3    H143004   2.767   5.574   3.201 -0.4049  0.4756  0.4980
 7171TIP3    H243005   2.702   5.507   3.081 -0.2603  1.0878  0.0782
 7172TIP3   OH243006   4.622   5.328   1.088  0.3136 -0.1516  0.1682
 7172TIP3    H143007   4.690   5.396   1.089  0.7906 -0.5749  2.4693
 7172TIP3    H243008   4.554   5.361   1.146 -1.4991  0.2150 -2.0342
 7173TIP3   OH243009   3.168   2.380   3.492 -0.1961  0.1825  0.3598
 7173TIP3    H143010   3.100   2.312   3.495  2.2205 -2.4204  1.0648
 7173TIP3    H243011   3.200   2.384   3.582  3.0463 -1.5335 -0.5666
 7174TIP3   OH243012   2.675   3.017   0.220  0.1456 -0.0181  0.6810
 7174TIP3    H143013   2.677   3.069   0.300 -0.1557  1.3491 -0.1546
 7174TIP3    H243014   2.583   2.992   0.209 -0.3051  1.9240 -0.4889
 7175TIP3   OH243015   2.127   1.376  12.258 -0.2628  0.3366 -0.2240
 7175TIP3    H143016   2.099   1.298  12.210 -1.1126 -0.6118  1.7091
 7175TIP3    H243017   2.144   1.441  12.189  0.4226 -1.4886 -1.8961
 7176TIP3   OH243018   3.835   3.749   5.292 -0.6093 -0.0838 -0.3781
 7176TIP3    H143019   3.914   3.698   5.306 -0.8310 -0.6110 -1.0166
 7176TIP3    H243020   3.763   3.686   5.298 -1.0450  0.4796  0.7845
 7177TIP3   OH243021   0.610   3.311  14.214 -0.0985 -0.5329 -0.5289
 7177TIP3    H143022   0.658   3.358  14.282 -0.3752  0.6406 -1.1289
 7177TIP3    H243023   0.677   3.259  14.170  0.6084  0.8904 -1.1912
 7178TIP3   OH243024   1.705   3.537   4.108 -0.5951 -0.1128 -0.1763
 7178TIP3    H143025   1.720   3.586   4.189 -1.0746  0.2332 -0.2934
 7178TIP3    H243026   1.700   3.445   4.136  1.9514 -0.3168 -0.1556
 7179TIP3   OH243027   3.559   5.738  11.152  0.3044  0.5172  0.1831
 7179TIP3    H143028   3.513   5.666  11.108  0.0894  0.1093  1.0609
 7179TIP3    H243029   3.650   5.707  11.160  1.0287  1.6806 -2.3580
 7180TIP3   OH243030   3.613   4.883  16.584  0.0792  0.4174  0.1641
 7180TIP3    H143031   3.612   4.978  16.574 -0.1014  0.4007  0.0369
 7180TIP3    H243032   3.558   4.850  16.514 -1.5916  0.3380  1.4492
 7181TIP3   OH243033   0.877   4.212  16.611  0.9959  0.8213 -0.4105
 7181TIP3    H143034   0.933   4.136  16.594  0.8187  0.5885  0.0225
 7181TIP3    H243035   0.797   4.195  16.562  0.1406 -0.2595  1.2417
 7182TIP3   OH243036   1.880   2.221  14.988 -0.0500  0.0340  0.1454
 7182TIP3    H143037   1.933   2.189  14.915 -1.3896 -0.3305 -0.6921
 7182TIP3    H243038   1.852   2.142  15.034 -1.1419  0.1159 -0.3453
 7183TIP3   OH243039   5.000   2.644  10.729  0.2939 -0.1583  0.6544
 7183TIP3    H143040   4.910   2.677  10.727  0.6854  0.9621  0.4899
 7183TIP3    H243041   4.997   2.570  10.789 -0.7754 -0.2673  0.4902
 7184TIP3   OH243042   6.759   4.360  10.792 -0.3522  0.0684  0.1837
 7184TIP3    H143043   6.735   4.272  10.764  1.0685 -0.9955  2.1324
 7184TIP3    H243044   6.688   4.386  10.851 -1.0394  0.4814 -0.7964
 7185TIP3   OH243045   4.378   0.362  17.086 -0.7013  0.6014  0.0061
 7185TIP3    H143046   4.283   0.361  17.097 -0.7665 -0.2573 -0.5845
 7185TIP3    H243047   4.413   0.356  17.175 -1.1888  1.2013  0.2448
 7186TIP3   OH243048   1.204   0.828   4.304 -0.4129  0.3572  0.0376
 7186TIP3    H143049   1.114   0.801   4.287 -0.6212  0.7808  0.4491
 7186TIP3    H243050   1.253   0.746   4.311 -0.5188  0.1276 -1.4455
 7187TIP3   OH243051   5.391   5.809   0.455 -0.1737 -0.8073  0.4747
 7187TIP3    H143052   5.365   5.801   0.363 -1.6563 -4.0152  1.0129
 7187TIP3    H243053   5.484   5.829   0.452  0.1611 -2.3212 -1.8024
 7188TIP3   OH243054   4.774   0.584  16.215 -0.2178  0.1120 -0.2556
 7188TIP3    H143055   4.805   0.627  16.294 -1.6703 -0.6542  0.7896
 7188TIP3    H243056   4.851   0.541  16.178  0.2384 -0.6824  1.5374
 7189TIP3   OH243057   3.199   0.211  16.437 -0.4961  0.5191  0.1368
 7189TIP3    H143058   3.104   0.214  16.427 -0.3004  1.5803 -1.9389
 7189TIP3    H243059   3.227   0.142  16.377  0.1271  0.9700 -0.0944
 7190TIP3   OH243060   1.238   1.711   4.791 -0.3462  0.4516 -0.5871
 7190TIP3    H143061   1.279   1.747   4.870  0.2712  0.4274 -0.8836
 7190TIP3    H243062   1.147   1.696   4.816  0.0067 -0.2729  0.3715
 7191TIP3   OH243063   2.879   4.594   4.118  0.1021  0.1883  0.3396
 7191TIP3    H143064   2.855   4.686   4.105 -0.0856  0.2101  0.7920
 7191TIP3    H243065   2.888   4.586   4.213  1.2179  0.0082  0.2299
 7192TIP3   OH243066   6.316   4.411  17.055 -0.5056  0.0898  0.0807
 7192TIP3    H143067   6.312   4.380  17.145 -0.0166  0.4835  0.2375
 7192TIP3    H243068   6.384   4.359  17.014 -0.8271 -0.1904 -0.1056
 7193TIP3   OH243069   6.307   4.518  16.296  0.3027 -0.3804  1.2724
 7193TIP3    H143070   6.384   4.573  16.279  0.9149 -1.1705  1.4257
 7193TIP3    H243071   6.303   4.512  16.392 -0.9186  0.9779  1.3386
 7194TIP3   OH243072   4.044   4.836   1.775  0.0644 -0.0238 -0.1159
 7194TIP3    H143073   4.112   4.813   1.711 -0.3374  0.6840 -0.8166
 7194TIP3    H243074   4.032   4.756   1.826  0.7052 -0.4751 -0.6475
 7195TIP3   OH243075   0.462   0.684   6.114  0.5079 -0.0425 -0.5860
 7195TIP3    H143076   0.477   0.733   6.195  0.4581 -1.2784  0.1858
 7195TIP3    H243077   0.390   0.625   6.135 -0.4396  0.5683 -1.9681
 7196TIP3   OH243078   4.299   4.974  13.207  0.2384  0.5458 -0.1234
 7196TIP3    H143079   4.273   4.941  13.293  0.8136 -0.8023 -0.4284
 7196TIP3    H243080   4.231   5.037  13.183  0.3373  1.3416  1.5237
 7197TIP3   OH243081   5.858   3.828   4.636  0.2032  0.3481 -0.0207
 7197TIP3    H143082   5.814   3.815   4.552 -0.7911 -0.4671  0.5973
 7197TIP3    H243083   5.864   3.740   4.673 -0.1857  0.7922  1.1501
 7198TIP3   OH243084   5.544   1.536   1.210 -0.5630 -0.7368  0.1025
 7198TIP3    H143085   5.473   1.489   1.166 -0.2207 -0.4150 -0.8278
 7198TIP3    H243086   5.610   1.469   1.228 -0.6339 -0.8477 -0.0485
 7199TIP3   OH243087   4.240   2.710  15.051  0.4586 -0.2986 -0.3769
 7199TIP3    H143088   4.228   2.733  15.143  0.1948 -1.1443 -0.1948
 7199TIP3    H243089   4.314   2.764  15.022 -0.3479  1.0209 -0.0692
 7200TIP3   OH243090   2.901   0.094   6.145  0.0140 -0.1356 -0.7233
 7200TIP3    H143091   2.821   0.071   6.194  0.6945  0.9477  0.9979
 7200TIP3    H243092   2.902   0.034   6.071 -1.8278 -0.9100 -0.1783
 7201TIP3   OH243093   6.177   3.774   6.103 -0.3962 -0.1595 -0.1204
 7201TIP3    H143094   6.247   3.800   6.043 -0.9342  1.0499 -0.2493
 7201TIP3    H243095   6.134   3.856   6.127 -0.7576 -0.7067  1.2257
 7202TIP3   OH243096   0.657   2.957  13.058 -0.1887  0.1501  0.3964
 7202TIP3    H143097   0.576   2.914  13.086 -0.7889  1.0448  0.0794
 7202TIP3    H243098   0.628   3.033  13.008  0.7970 -1.1198 -2.3207
 7203TIP3   OH243099   4.860   2.194  11.801 -0.3370 -0.2730 -0.0026
 7203TIP3    H143100   4.878   2.202  11.894 -1.1846 -1.0656  0.2472
 7203TIP3    H243101   4.774   2.152  11.797 -0.8784  0.8855 -1.1408
 7204TIP3   OH243102   1.558   0.770   1.067 -0.5110 -0.2165  0.1978
 7204TIP3    H143103   1.487   0.733   1.119 -0.4386 -1.0984 -0.3088
 7204TIP3    H243104   1.595   0.695   1.021 -0.2194  0.4665 -0.7030
 7205TIP3   OH243105   3.987   0.532  14.188 -0.8942 -0.1115  0.5090
 7205TIP3    H143106   3.904   0.578  14.183 -1.2114 -0.6226  0.9400
 7205TIP3    H243107   3.967   0.442  14.162  0.0667  0.3693 -2.1574
 7206TIP3   OH243108   3.627   3.896  13.830 -0.3673 -0.1913  0.3745
 7206TIP3    H143109   3.601   3.923  13.918  0.4707  0.2294  0.5008
 7206TIP3    H243110   3.622   3.800  13.832  1.0483 -0.2875  1.3567
 7207TIP3   OH243111   3.150   3.294   1.245  0.2404 -0.2756  0.0567
 7207TIP3    H143112   3.180   3.349   1.317  0.9925  0.4708 -0.8060
 7207TIP3    H243113   3.160   3.204   1.278  2.5098 -0.0297  0.1901
 7208TIP3   OH243114   4.060   3.636  13.967  0.4187 -0.3442  0.6560
 7208TIP3    H143115   4.058   3.709  13.905  0.7354 -0.2441  0.7625
 7208TIP3    H243116   4.153   3.616  13.978  0.2835 -1.5451 -0.2638
 7209TIP3   OH243117   2.151   0.212  12.146 -0.0966 -0.1079 -0.0802
 7209TIP3    H143118   2.217   0.281  12.137  0.8758 -1.0781 -0.6286
 7209TIP3    H243119   2.148   0.171  12.059 -1.8736  0.2924 -0.2527
 7210TIP3   OH243120   6.517   2.203   1.152  0.1523 -0.2571 -0.4846
 7210TIP3    H143121   6.525   2.158   1.068 -0.5346 -0.3371 -0.5089
 7210TIP3    H243122   6.482   2.136   1.211 -0.0956  0.0163 -0.3218
 7211TIP3   OH243123   2.143   4.846  14.957  0.0308  0.6995  0.6260
 7211TIP3    H143124   2.136   4.784  14.884  1.0439  0.8077  0.4241
 7211TIP3    H243125   2.212   4.810  15.013 -0.8526  0.5210  1.6485
 7212TIP3   OH243126   5.324   0.693  12.628 -0.0083  0.3768 -0.2828
 7212TIP3    H143127   5.280   0.736  12.555 -0.4120  0.7929  0.2027
 7212TIP3    H243128   5.254   0.656  12.681  0.2943 -0.1010 -0.2025
 7213TIP3   OH243129   1.873   0.280   3.820 -0.2142 -0.8895 -0.6684
 7213TIP3    H143130   1.890   0.295   3.913  1.5585 -2.3608 -0.6916
 7213TIP3    H243131   1.795   0.331   3.801 -0.2757 -0.0859  1.4870
 7214TIP3   OH243132   4.583   2.977   2.342  0.0690 -0.4606 -0.2924
 7214TIP3    H143133   4.670   2.964   2.380 -0.4187  1.6697  1.7464
 7214TIP3    H243134   4.545   3.049   2.391 -3.5356 -2.3364  0.0342
 7215TIP3   OH243135   2.032   6.611   1.144 -0.1741  0.1274  0.3342
 7215TIP3    H143136   2.022   6.516   1.156 -1.3227  0.4534  2.4822
 7215TIP3    H243137   2.124   6.628   1.163 -0.3688 -0.3615  1.9096
 7216TIP3   OH243138   2.031   5.373  13.978  0.5235  0.1619  0.0013
 7216TIP3    H143139   2.110   5.360  14.031  1.2843 -0.3341 -1.1827
 7216TIP3    H243140   2.035   5.302  13.913  0.2377  1.3840 -1.3991
 7217TIP3   OH243141   0.238   3.047   5.051 -0.0164  0.0744 -0.3051
 7217TIP3    H143142   0.219   2.957   5.026  0.7946 -0.8835  2.1552
 7217TIP3    H243143   0.288   3.039   5.132  0.4375  2.7497 -0.2217
 7218TIP3   OH243144   4.901   1.969   3.551 -0.8062  0.4103 -0.4774
 7218TIP3    H143145   4.963   1.969   3.625  0.0685 -0.6504 -1.1874
 7218TIP3    H243146   4.872   1.878   3.543  1.5491 -0.2414 -3.3820
 7219TIP3   OH243147   0.565   0.602   0.832  0.2062  0.2097 -0.0326
 7219TIP3    H143148   0.642   0.600   0.889  0.1460 -0.4828  0.0249
 7219TIP3    H243149   0.526   0.515   0.840 -1.2715  0.9026  0.8784
 7220TIP3   OH243150   1.623   2.204  12.661 -0.0072 -0.5345  0.0467
 7220TIP3    H143151   1.689   2.158  12.713  0.9525 -1.4805 -1.9296
 7220TIP3    H243152   1.557   2.137  12.642 -1.3126  0.2586  1.4960
 7221TIP3   OH243153   2.126   3.386   3.196 -0.2341 -0.2011 -0.7162
 7221TIP3    H143154   2.038   3.422   3.202 -0.5920 -1.2292  1.0776
 7221TIP3    H243155   2.138   3.365   3.104  0.1052  4.5471 -1.9743
 7222TIP3   OH243156   3.584   1.467   1.127 -0.5793 -0.3413 -0.2369
 7222TIP3    H143157   3.583   1.556   1.161 -2.4612 -1.3857  2.9008
 7222TIP3    H243158   3.523   1.468   1.054 -0.1961  1.0086 -0.5605
 7223TIP3   OH243159   0.816   4.142   0.148 -0.2390  0.2368 -0.1449
 7223TIP3    H143160   0.728   4.150   0.111 -0.0795 -1.6355 -1.0026
 7223TIP3    H243161   0.875   4.164   0.076  0.0337  1.8614  0.5309
 7224TIP3   OH243162   2.719   2.528  16.956  0.3919 -0.5719 -0.2800
 7224TIP3    H143163   2.775   2.556  16.883  0.1105 -2.4191 -1.2639
 7224TIP3    H243164   2.780   2.513  17.029  1.1540 -1.9731 -1.1631
 7225TIP3   OH243165   4.286   3.311  12.219 -0.2963  0.1388 -0.1685
 7225TIP3    H143166   4.251   3.400  12.213 -0.0137  0.3480  0.9960
 7225TIP3    H243167   4.328   3.295  12.135 -1.2779  0.7100 -0.7710
 7226TIP3   OH243168   2.959   5.194   3.570  0.2060 -0.3085 -0.6196
 7226TIP3    H143169   2.940   5.252   3.497  0.2050  0.3387 -0.1172
 7226TIP3    H243170   2.874   5.162   3.599 -0.1286  1.8728  1.0527
 7227TIP3   OH243171   4.842   5.461   4.740  0.0902 -0.2254  0.3307
 7227TIP3    H143172   4.897   5.537   4.721 -0.9664  0.3917 -0.3230
 7227TIP3    H243173   4.894   5.408   4.801  1.3105  0.4425 -0.1091
 7228TIP3   OH243174   4.952   6.176  16.479 -0.3015 -0.0102  0.2771
 7228TIP3    H143175   4.892   6.155  16.407  0.5126 -0.1959 -0.3571
 7228TIP3    H243176   4.895   6.185  16.556 -0.9366 -2.3675  0.1673
 7229TIP3   OH243177   6.787   4.302  15.982  0.5723  0.2465  0.1251
 7229TIP3    H143178   6.792   4.206  15.981  0.8573  0.2631  0.1836
 7229TIP3    H243179   6.710   4.321  16.036  2.2162  0.1368  2.6399
 7230TIP3   OH243180   5.063   3.528  13.274  0.4109  0.4334 -0.0575
 7230TIP3    H143181   5.144   3.478  13.262  0.6460  0.5655  0.9755
 7230TIP3    H243182   4.997   3.477  13.225  0.5525 -1.1429  1.3113
 7231TIP3   OH243183   0.404   6.658  11.992  0.2300  0.2374  0.3087
 7231TIP3    H143184   0.377   6.716  11.920 -1.8837 -2.1326 -0.9848
 7231TIP3    H243185   0.369   6.700  12.071 -1.7002  0.5450 -0.6358
 7232TIP3   OH243186   3.697   3.501   5.341 -0.1826  0.1842 -0.1812
 7232TIP3    H143187   3.633   3.454   5.395 -1.0514  0.6954 -0.7304
 7232TIP3    H243188   3.780   3.492   5.388 -0.5216 -1.0733  0.2079
 7233TIP3   OH243189   4.111   5.167  13.153 -0.0031  0.3468 -0.5252
 7233TIP3    H143190   4.173   5.241  13.146 -0.5276  0.7657 -0.8314
 7233TIP3    H243191   4.027   5.204  13.127 -0.0291 -0.7023 -2.0737
 7234TIP3   OH243192   0.558   2.735  14.965  0.4488  0.7885 -0.4560
 7234TIP3    H143193   0.555   2.641  14.944  0.3243  0.8153 -0.5547
 7234TIP3    H243194   0.511   2.743  15.048 -0.1174  0.8591 -0.7801
 7235TIP3   OH243195   2.397   0.761   4.246 -0.7125  0.3511  0.0516
 7235TIP3    H143196   2.391   0.706   4.324 -1.5858  2.4278  1.5460
 7235TIP3    H243197   2.309   0.797   4.234 -0.2373  1.2662 -0.9632
 7236TIP3   OH243198   2.690   2.634   1.947 -0.2644  0.7732 -0.2643
 7236TIP3    H143199   2.782   2.650   1.968  0.1914  0.5862 -1.9507
 7236TIP3    H243200   2.671   2.694   1.875 -2.1798  2.5027  1.5364
 7237TIP3   OH243201   5.744   0.826  14.607 -0.4521 -0.2854 -0.3853
 7237TIP3    H143202   5.829   0.784  14.616 -1.2160 -1.8642 -0.2513
 7237TIP3    H243203   5.711   0.796  14.522 -0.3310  1.3821 -1.0550
 7238TIP3   OH243204   5.774   4.036  14.775 -0.4226 -0.2626  0.4238
 7238TIP3    H143205   5.679   4.026  14.765 -0.9061  3.1835  0.5728
 7238TIP3    H243206   5.790   4.016  14.867 -1.2508  0.4716  0.7452
 7239TIP3   OH243207   6.209   0.107  16.676 -0.0885 -0.4393  0.4157
 7239TIP3    H143208   6.150   0.049  16.724 -1.0298 -0.3978 -0.6666
 7239TIP3    H243209   6.282   0.051  16.649 -1.8171 -1.6064 -2.1372
 7240TIP3   OH243210   4.459   2.258  16.973  0.8588 -0.1757  0.3402
 7240TIP3    H143211   4.547   2.258  16.937 -0.1004  1.4840 -2.2443
 7240TIP3    H243212   4.441   2.350  16.996 -0.5284 -0.2962 -0.1285
 7241TIP3   OH243213   3.963   4.360  12.830 -1.1747 -0.0750  0.4193
 7241TIP3    H143214   3.881   4.377  12.783 -0.5337  0.4001 -0.5760
 7241TIP3    H243215   4.028   4.414  12.785 -0.2384 -0.7019  0.9722
 7242TIP3   OH243216   5.333   2.491   5.500  0.3178  0.0559 -0.6341
 7242TIP3    H143217   5.250   2.451   5.523  0.7743 -0.2171  0.6443
 7242TIP3    H243218   5.311   2.562   5.440 -1.0479  1.2503  1.1923
 7243TIP3   OH243219   5.682   5.381  12.904 -0.2872 -0.2330 -0.1663
 7243TIP3    H143220   5.600   5.427  12.887  1.1526  1.7673 -2.1868
 7243TIP3    H243221   5.709   5.411  12.990 -1.4063 -0.5478  0.3147
 7244TIP3   OH243222   0.198   4.258  13.853 -0.0430  0.1768 -0.3701
 7244TIP3    H143223   0.223   4.180  13.802 -1.9152 -0.1633 -0.8228
 7244TIP3    H243224   0.218   4.332  13.795 -0.2987 -0.0916 -0.8034
 7245TIP3   OH243225   4.244   0.111  14.057  0.2778 -0.0111 -0.4290
 7245TIP3    H143226   4.290   0.189  14.025 -1.5626  0.9746 -0.7839
 7245TIP3    H243227   4.248   0.049  13.984  1.6908 -0.2656 -0.1686
 7246TIP3   OH243228   6.052   0.182   0.207 -0.0425 -0.9751  0.2939
 7246TIP3    H143229   6.135   0.142   0.233  0.7365  0.6798  0.4645
 7246TIP3    H243230   6.065   0.206   0.116  0.4393  1.0644  0.8488
 7247TIP3   OH243231   6.825   2.981   1.844 -0.0384 -0.0665 -0.1148
 7247TIP3    H143232   6.884   2.936   1.905  0.3726  1.8501  0.9681
 7247TIP3    H243233   6.781   3.047   1.897 -0.8552  0.6093 -1.5734
 7248TIP3   OH243234   4.228   5.595  11.622  0.0874  0.3191 -0.0554
 7248TIP3    H143235   4.202   5.506  11.600  0.4848  0.1540  0.1315
 7248TIP3    H243236   4.294   5.585  11.691 -1.6408  0.8445  1.7663
 7249TIP3   OH243237   6.065   1.550  10.898  0.0393 -0.3041  0.5967
 7249TIP3    H143238   6.031   1.561  10.986  0.1168  0.0773  0.5798
 7249TIP3    H243239   6.108   1.633  10.878  2.1248 -1.1842  1.1217
 7250TIP3   OH243240   4.636   0.695   3.767 -0.3796 -0.0309 -0.3187
 7250TIP3    H143241   4.622   0.719   3.859 -2.2050  0.7043 -0.7407
 7250TIP3    H243242   4.621   0.775   3.718 -1.3528 -0.8116 -1.3770
 7251TIP3   OH243243   6.018   3.573  17.062  0.0021 -0.2215 -0.6787
 7251TIP3    H143244   5.955   3.553  17.131  1.5660 -0.9712  0.5992
 7251TIP3    H243245   5.993   3.660  17.031 -1.7905 -0.5975 -0.4241
 7252TIP3   OH243246   3.838   2.295  10.210  0.3656 -0.2070  0.0225
 7252TIP3    H143247   3.816   2.222  10.269 -0.8179  0.2689  0.2010
 7252TIP3    H243248   3.929   2.315  10.230  0.4480 -1.0705  0.5885
 7253TIP3   OH243249   5.116   1.259  15.133  0.1858  0.1150  0.4481
 7253TIP3    H143250   5.189   1.271  15.194 -0.1984  1.4799  0.6820
 7253TIP3    H243251   5.062   1.192  15.174  0.5629  0.1339  1.0037
 7254TIP3   OH243252   3.828   3.958  13.677 -0.1166  0.2426  0.1623
 7254TIP3    H143253   3.769   3.966  13.752  0.5608 -0.3595  0.7598
 7254TIP3    H243254   3.836   3.864  13.662  0.7842  0.3126  0.1618
 7255TIP3   OH243255   6.023   1.369   5.277 -0.2422 -0.1222  0.3865
 7255TIP3    H143256   5.931   1.365   5.252  0.1197 -1.5129 -0.8464
 7255TIP3    H243257   6.060   1.439   5.222 -0.1103 -1.1040 -0.8291
 7256TIP3   OH243258   6.524   1.524   4.459  0.2572  0.2208  0.2543
 7256TIP3    H143259   6.563   1.466   4.394  0.7720  0.6642  0.1656
 7256TIP3    H243260   6.474   1.466   4.516  0.6093 -0.2828  0.0517
 7257TIP3   OH243261   5.685   6.571   6.502 -0.0711  0.5128  0.3432
 7257TIP3    H143262   5.598   6.536   6.521  0.2460 -0.1687  0.5573
 7257TIP3    H243263   5.745   6.499   6.520  0.5022  0.8247 -0.2696
 7258TIP3   OH243264   5.356   3.983   3.688 -0.0544  0.5642 -0.1713
 7258TIP3    H143265   5.310   3.928   3.624 -0.9806 -0.2849  1.1753
 7258TIP3    H243266   5.448   3.979   3.661 -0.6325  1.7873 -2.5528
 7259TIP3   OH243267   5.350   0.535  11.358 -0.4228 -0.1350 -0.4557
 7259TIP3    H143268   5.380   0.474  11.291  0.3486  0.6285 -0.8209
 7259TIP3    H243269   5.282   0.587  11.315  0.4922  0.7628 -0.8623
 7260TIP3   OH243270   5.611   1.746  12.776 -0.5296 -0.3226 -0.1541
 7260TIP3    H143271   5.595   1.800  12.853  0.1147  1.3581 -1.1449
 7260TIP3    H243272   5.706   1.743  12.767 -0.5924  0.2539 -1.3365
 7261TIP3   OH243273   5.958   3.294  14.198 -0.4973 -0.2295 -0.1484
 7261TIP3    H143274   5.901   3.243  14.255 -0.7773 -0.2415 -0.4340
 7261TIP3    H243275   6.017   3.230  14.159  0.8622 -0.0046  1.4563
 7262TIP3   OH243276   3.853   0.742  12.194  0.8403 -0.1393  0.1870
 7262TIP3    H143277   3.881   0.802  12.264  0.3849 -2.0063  2.0704
 7262TIP3    H243278   3.931   0.733  12.138  1.8117  0.0454  1.4560
 7263TIP3   OH243279   0.375   6.448   3.706 -0.0083  0.4725  0.4876
 7263TIP3    H143280   0.362   6.354   3.693 -0.6707  0.5103  0.8115
 7263TIP3    H243281   0.367   6.461   3.800  0.2685  0.8302  0.4644
 7264TIP3   OH243282   3.899   3.670  15.697 -0.3072 -0.1340  0.5590
 7264TIP3    H143283   3.850   3.752  15.704 -0.4115 -0.1251 -0.2379
 7264TIP3    H243284   3.873   3.620  15.775 -1.1213  0.1190  0.4596
 7265TIP3   OH243285   4.262   4.701  14.424 -0.4476  0.5925  0.1909
 7265TIP3    H143286   4.182   4.648  14.419 -1.5051  2.1430 -0.3814
 7265TIP3    H243287   4.230   4.790  14.441  1.2532  1.0444  1.2823
 7266TIP3   OH243288   0.299   3.766   3.866  0.2043  0.5585  0.0307
 7266TIP3    H143289   0.341   3.742   3.948 -1.8794 -0.1938  0.9571
 7266TIP3    H243290   0.236   3.695   3.849 -1.3863  2.0669 -0.7171
 7267TIP3   OH243291   6.554   4.063  13.568  0.1238 -0.0666 -0.1509
 7267TIP3    H143292   6.571   4.154  13.596 -0.0393 -0.4113  1.1188
 7267TIP3    H243293   6.597   4.057  13.483 -2.4477  2.0925 -1.7386
 7268TIP3   OH243294   6.298   2.594   0.272  0.6126 -0.7071  0.3595
 7268TIP3    H143295   6.322   2.520   0.215 -0.1351 -0.5126 -0.2309
 7268TIP3    H243296   6.208   2.615   0.246  0.7375  0.2590  0.6851
 7269TIP3   OH243297   5.321   1.152  12.216  0.0086  0.1880 -0.2364
 7269TIP3    H143298   5.326   1.121  12.306 -1.6392 -1.2285 -0.5742
 7269TIP3    H243299   5.412   1.168  12.191  0.5280  0.1420  1.5086
 7270TIP3   OH243300   1.314   5.974  14.485 -0.1578  0.3252  0.6590
 7270TIP3    H143301   1.225   6.007  14.481 -0.2243  0.1507  0.6969
 7270TIP3    H243302   1.358   6.031  14.548 -0.6916 -0.6310  1.9431
 7271TIP3   OH243303   4.356   1.823  16.292  0.1259 -0.4850  0.3286
 7271TIP3    H143304   4.422   1.876  16.248 -0.1712 -0.8232 -0.5312
 7271TIP3    H243305   4.327   1.877  16.366 -0.0610  0.4955 -0.4433
 7272TIP3   OH243306   1.472   4.710  11.142  0.3149 -0.4366  0.8318
 7272TIP3    H143307   1.530   4.766  11.090  0.3639 -1.2067  0.0441
 7272TIP3    H243308   1.503   4.621  11.124 -0.9430 -0.8415  0.6144
 7273TIP3   OH243309   4.817   0.246  17.199  0.1366 -0.8542  0.5960
 7273TIP3    H143310   4.737   0.222  17.152  0.5439  1.7586 -1.7004
 7273TIP3    H243311   4.885   0.190  17.161  0.0795 -0.1944 -0.5382
 7274TIP3   OH243312   6.800   1.617  12.800 -0.2941 -0.0360 -0.4770
 7274TIP3    H143313   6.887   1.657  12.801 -0.1222 -0.2923  1.9830
 7274TIP3    H243314   6.791   1.576  12.886 -1.3555 -3.4217 -2.0042
 7275TIP3   OH243315   3.902   1.709   2.688 -0.2903 -0.2872  0.3108
 7275TIP3    H143316   3.951   1.680   2.765 -0.8248 -0.4494  0.5998
 7275TIP3    H243317   3.951   1.673   2.614 -0.2657 -0.9068  0.6164
 7276TIP3   OH243318   1.616   5.805  15.991 -0.4643 -0.2202 -0.1317
 7276TIP3    H143319   1.526   5.804  15.959 -0.8706 -1.9613  0.9167
 7276TIP3    H243320   1.648   5.715  15.975  0.8139  0.1431  0.2338
 7277TIP3   OH243321   2.924   4.312   4.842  0.0712 -0.1889  0.0404
 7277TIP3    H143322   2.845   4.353   4.806  0.0234  0.2579  0.6475
 7277TIP3    H243323   2.891   4.244   4.901  0.1514 -0.8430 -0.6385
 7278TIP3   OH243324   5.652   5.406   2.586  0.5349  0.1214  0.3078
 7278TIP3    H143325   5.594   5.455   2.528 -0.0780 -0.9870 -0.0383
 7278TIP3    H243326   5.622   5.427   2.674  0.8611  1.0657  0.2038
 7279TIP3   OH243327   4.614   3.223  15.294 -0.2466 -0.1375  0.5952
 7279TIP3    H143328   4.583   3.133  15.288 -1.2631  0.2462 -0.1476
 7279TIP3    H243329   4.590   3.251  15.383 -1.8481  0.0616  0.1275
 7280TIP3   OH243330   4.987   6.497  16.729  0.0006 -0.5775  0.6616
 7280TIP3    H143331   4.902   6.455  16.717 -0.8759  0.4113  2.8678
 7280TIP3    H243332   4.972   6.589  16.709  0.8984 -0.5937 -0.1661
 7281TIP3   OH243333   3.809   5.379   3.608 -0.2171 -0.2205 -0.3947
 7281TIP3    H143334   3.889   5.326   3.605  0.0447  0.0436  0.9637
 7281TIP3    H243335   3.739   5.318   3.583  0.3662 -0.5019 -1.4268
 7282TIP3   OH243336   6.127   1.950   1.056 -0.7567  0.2824  0.3356
 7282TIP3    H143337   6.216   1.917   1.048 -1.0918 -0.4731 -0.4195
 7282TIP3    H243338   6.112   1.955   1.151  0.4570  1.4929  0.4832
 7283TIP3   OH243339   2.407   1.642  10.936  0.6002  0.6290 -0.1429
 7283TIP3    H143340   2.501   1.653  10.918  0.1362  3.2897 -1.3690
 7283TIP3    H243341   2.375   1.585  10.866  1.2117 -0.0520  0.1154
 7284TIP3   OH243342   1.128   1.404   4.435  0.0459  0.0124  0.3771
 7284TIP3    H143343   1.129   1.351   4.515 -0.7952 -2.4485 -1.1315
 7284TIP3    H243344   1.219   1.403   4.404  0.0224 -0.6242  0.3255
 7285TIP3   OH243345   3.039   1.581  15.815 -0.7827  0.0331  0.3565
 7285TIP3    H143346   3.116   1.541  15.855 -0.8335  0.3237  0.7478
 7285TIP3    H243347   2.968   1.565  15.878 -1.3326 -1.3497 -0.5736
 7286TIP3   OH243348   4.441   3.797   5.407 -0.6584 -0.3827 -0.1398
 7286TIP3    H143349   4.350   3.822   5.415 -0.4516  0.6502 -0.7595
 7286TIP3    H243350   4.461   3.809   5.314 -0.3926 -2.4240 -0.4055
 7287TIP3   OH243351   6.211   5.455  14.493 -0.8183 -0.3044  0.0663
 7287TIP3    H143352   6.168   5.522  14.439 -0.0249 -0.4382 -0.7604
 7287TIP3    H243353   6.207   5.376  14.440 -0.2641 -0.5051  0.3240
 7288TIP3   OH243354   0.876   5.377  15.345  0.2113 -0.2897 -0.6670
 7288TIP3    H143355   0.953   5.321  15.340 -0.5677 -1.4112 -0.5810
 7288TIP3    H243356   0.834   5.354  15.428  0.2383  0.9311 -0.3011
 7289TIP3   OH243357   2.881   3.706   5.042 -0.5985 -0.1083  0.1182
 7289TIP3    H143358   2.801   3.691   4.992 -1.0956  0.1404  0.8242
 7289TIP3    H243359   2.871   3.654   5.121 -0.4964  0.6700  0.6555
 7290TIP3   OH243360   2.852   5.690  13.688  0.3119 -0.1200 -0.4189
 7290TIP3    H143361   2.895   5.769  13.655 -0.3010  0.6819  0.6578
 7290TIP3    H243362   2.924   5.634  13.718  0.8093 -0.3893 -2.0199
 7291TIP3   OH243363   3.741   3.415   0.967  0.4896 -0.3973 -0.2914
 7291TIP3    H143364   3.649   3.422   0.995  0.2572  2.0789 -1.4596
 7291TIP3    H243365   3.785   3.372   1.041 -1.2219  0.2412  1.1716
 7292TIP3   OH243366   2.035   1.874  11.672  0.2431  0.2059  0.8016
 7292TIP3    H143367   1.958   1.901  11.621 -0.8268 -0.2325  2.1356
 7292TIP3    H243368   2.033   1.779  11.668  1.1331  0.2049  0.2674
 7293TIP3   OH243369   5.570   2.818   4.626 -0.1214  0.0984  0.7193
 7293TIP3    H143370   5.475   2.813   4.616  0.0427 -0.8405 -0.6431
 7293TIP3    H243371   5.602   2.846   4.541  1.0865 -3.8819 -0.3873
 7294TIP3   OH243372   5.833   6.502  14.673 -0.5290  0.0905 -0.0663
 7294TIP3    H143373   5.855   6.499  14.766  0.6999  0.9803 -0.3166
 7294TIP3    H243374   5.903   6.454  14.630 -1.8372 -1.5752 -0.4442
 7295TIP3   OH243375   2.468   6.096  15.890  0.0070  0.4187 -0.2497
 7295TIP3    H143376   2.474   6.069  15.981 -3.2181 -1.7772 -0.5177
 7295TIP3    H243377   2.530   6.039  15.844 -0.6377 -0.6920  0.2264
 7296TIP3   OH243378   4.202   6.708   5.109 -0.2709  0.0281 -0.8028
 7296TIP3    H143379   4.287   6.707   5.065 -0.9469 -1.5084 -2.2106
 7296TIP3    H243380   4.179   6.800   5.114  1.3549  0.4572 -0.6073
 7297TIP3   OH243381   2.571   5.422  15.698 -0.4280 -0.1147  0.2566
 7297TIP3    H143382   2.558   5.516  15.688 -0.6852 -0.2332 -0.6366
 7297TIP3    H243383   2.536   5.402  15.784  0.0645  0.6831  0.6498
 7298TIP3   OH243384   2.065   2.706   2.465 -1.2391 -0.6028 -0.0995
 7298TIP3    H143385   2.088   2.626   2.512 -1.1649  0.3145  1.4850
 7298TIP3    H243386   1.977   2.727   2.495 -1.2587 -0.0931 -0.5072
 7299TIP3   OH243387   1.702   1.054  15.904 -0.5841 -0.2904 -0.4053
 7299TIP3    H143388   1.703   0.985  15.971 -0.3268 -1.6711 -1.7863
 7299TIP3    H243389   1.763   1.120  15.937  0.4709 -1.5005  0.1695
 7300TIP3   OH243390   5.690   0.200   2.398 -0.2330 -1.3159 -0.3167
 7300TIP3    H143391   5.755   0.130   2.406 -0.3315 -1.4732 -0.8893
 7300TIP3    H243392   5.741   0.276   2.369 -0.2450 -1.3324 -0.3791
 7301TIP3   OH243393   0.505   5.034  14.435 -0.3603  0.0811  0.1053
 7301TIP3    H143394   0.411   5.015  14.428 -0.2034 -0.3396 -1.2377
 7301TIP3    H243395   0.521   5.098  14.366  0.5527 -0.8033 -0.5306
 7302TIP3   OH243396   6.274   4.630  13.912 -0.4269 -0.8617 -0.1808
 7302TIP3    H143397   6.211   4.615  13.842 -1.6668 -0.0027  0.7168
 7302TIP3    H243398   6.226   4.679  13.978  1.0101 -0.7351  0.8229
 7303TIP3   OH243399   6.498   1.724   5.477 -0.2748  0.2467 -0.0111
 7303TIP3    H143400   6.413   1.732   5.433 -0.1769 -0.5640 -0.3620
 7303TIP3    H243401   6.476   1.723   5.570 -0.6979 -0.3928 -0.1093
 7304TIP3   OH243402   2.475   5.464   5.021  0.0305 -0.3450 -0.4788
 7304TIP3    H143403   2.383   5.485   5.035  0.4388  0.3764  1.3555
 7304TIP3    H243404   2.505   5.530   4.958 -1.1237 -1.8139 -2.7332
 7305TIP3   OH243405   5.246   5.646  15.491  0.9080 -0.0122  0.6778
 7305TIP3    H143406   5.320   5.626  15.434 -0.2448 -1.2396 -0.4364
 7305TIP3    H243407   5.261   5.737  15.518  2.0063  0.2695 -0.7677
 7306TIP3   OH243408   0.054   2.999  14.997  0.4209  0.4050  0.6006
 7306TIP3    H143409   0.106   3.073  14.964  0.8621  0.0703  0.5353
 7306TIP3    H243410   0.065   2.930  14.932 -0.9174  0.6518  0.0901
 7307TIP3   OH243411   4.477   3.193  13.702  0.2000  0.2788 -0.0867
 7307TIP3    H143412   4.570   3.214  13.703  0.7708 -1.6256 -2.7007
 7307TIP3    H243413   4.463   3.143  13.783  1.5114  0.3085  0.1779
 7308TIP3   OH243414   5.448   3.528   4.401 -0.3383 -0.0111 -0.5136
 7308TIP3    H143415   5.372   3.473   4.381  0.9881 -2.7751  1.4553
 7308TIP3    H243416   5.427   3.568   4.485  0.3724 -0.7874  0.0381
 7309TIP3   OH243417   2.398   6.342  15.819 -0.2330 -0.4446  0.5395
 7309TIP3    H143418   2.430   6.255  15.841 -1.3067 -0.5757  1.6815
 7309TIP3    H243419   2.357   6.332  15.733 -1.8297 -1.4704  1.3893
 7310TIP3   OH243420   4.926   0.724   0.581  0.2556  0.0185 -0.2227
 7310TIP3    H143421   4.863   0.718   0.508  0.1328  0.7895 -0.1971
 7310TIP3    H243422   4.993   0.659   0.561  0.5436  0.6387 -1.3558
 7311TIP3   OH243423   1.361   4.317  16.968  0.5140 -0.1320 -0.0520
 7311TIP3    H143424   1.406   4.290  16.888 -0.2583 -1.5062 -0.0608
 7311TIP3    H243425   1.430   4.317  17.035  0.9849  0.1146 -0.5318
 7312TIP3   OH243426   1.593   4.890  10.389 -0.0019  0.2980  0.5976
 7312TIP3    H143427   1.658   4.953  10.357 -1.4161  0.8591 -1.3615
 7312TIP3    H243428   1.610   4.811  10.337 -0.4815  0.2539  0.5087
 7313TIP3   OH243429   5.904   1.127   6.652 -0.7099  0.0107 -0.1072
 7313TIP3    H143430   5.983   1.147   6.702  0.2066 -2.4814 -0.4408
 7313TIP3    H243431   5.836   1.115   6.718  0.0659 -1.4299  0.4697
 7314TIP3   OH243432   2.187   4.228   1.909 -0.0241  0.1279  0.0040
 7314TIP3    H143433   2.149   4.144   1.935  1.7837 -0.9597 -0.6508
 7314TIP3    H243434   2.143   4.251   1.827  1.3561 -1.6635 -1.3374
 7315TIP3   OH243435   1.271   5.840  11.664 -0.0116 -0.0282 -0.5459
 7315TIP3    H143436   1.209   5.796  11.605 -0.1660 -0.6657  0.0680
 7315TIP3    H243437   1.352   5.790  11.654  0.0184 -0.0151 -0.3641
 7316TIP3   OH243438   6.663   2.684   1.281 -0.0672  0.0162  0.2827
 7316TIP3    H143439   6.597   2.633   1.233  0.2626 -0.8530  0.7306
 7316TIP3    H243440   6.724   2.713   1.213 -0.1887 -0.3032  0.0317
 7317TIP3   OH243441   2.460   1.473  14.177 -0.2003 -0.3954  0.4880
 7317TIP3    H143442   2.406   1.398  14.199  1.3100 -1.4839  0.6799
 7317TIP3    H243443   2.450   1.533  14.251  0.3671 -1.4641  1.4627
 7318TIP3   OH243444   5.711   1.586  10.894  0.2139  0.1364  0.2328
 7318TIP3    H143445   5.620   1.592  10.864  0.3503  0.1508 -0.1686
 7318TIP3    H243446   5.743   1.676  10.894  0.6278  0.0032 -0.8545
 7319TIP3   OH243447   4.070   3.189  11.476 -0.3354 -0.5847  0.5838
 7319TIP3    H143448   4.118   3.120  11.429 -1.5228 -1.8081  1.0930
 7319TIP3    H243449   4.138   3.238  11.521  0.6466 -0.7011 -0.7022
 7320TIP3   OH243450   5.778   2.427  15.987 -0.5104  0.3819 -0.0325
 7320TIP3    H143451   5.694   2.436  15.943 -1.8173 -0.7989  2.1115
 7320TIP3    H243452   5.813   2.344  15.955 -0.7678  0.2435  0.0435
 7321TIP3   OH243453   4.055   2.046  10.877 -0.2247 -0.0139 -0.3265
 7321TIP3    H143454   4.092   2.088  10.799  0.6838 -0.5554 -0.1939
 7321TIP3    H243455   4.127   1.995  10.913 -0.9443 -0.6237  0.2656
 7322TIP3   OH243456   2.798   4.117   2.536 -0.4423 -0.5447  0.2382
 7322TIP3    H143457   2.860   4.189   2.545 -1.3523  0.0815  2.0030
 7322TIP3    H243458   2.758   4.131   2.450 -0.4552  0.9726  0.4584
 7323TIP3   OH243459   1.284   2.483  15.094  0.8346  0.0988  0.4593
 7323TIP3    H143460   1.220   2.545  15.058  2.8859  1.0019 -1.9323
 7323TIP3    H243461   1.303   2.424  15.021  1.0582 -1.6217  1.8398
 7324TIP3   OH243462   3.956   4.699  14.205 -0.1830 -0.4863 -0.0199
 7324TIP3    H143463   3.863   4.697  14.180  0.6801  0.1399 -3.9864
 7324TIP3    H243464   3.959   4.762  14.278 -2.8063 -0.1955 -0.0313
 7325TIP3   OH243465   5.885   5.509   4.556  0.4076 -0.0118  0.1730
 7325TIP3    H143466   5.829   5.583   4.535  0.0149  0.0042  1.1937
 7325TIP3    H243467   5.973   5.537   4.532  0.1534  0.4650 -0.2118
 7326TIP3   OH243468   6.453   1.546   2.739 -0.1493 -0.2514 -0.2607
 7326TIP3    H143469   6.471   1.621   2.795 -0.8291 -0.5839  0.4111
 7326TIP3    H243470   6.538   1.527   2.697  0.6106 -0.5864  1.3595
 7327TIP3   OH243471   4.959   2.400  13.455 -0.4437 -0.0581  0.2868
 7327TIP3    H143472   5.031   2.344  13.485 -1.1291 -0.3189  1.5342
 7327TIP3    H243473   4.984   2.428  13.368 -0.1549 -2.4897 -0.4806
 7328TIP3   OH243474   0.595   3.808   0.574  0.4298 -0.4049 -0.7890
 7328TIP3    H143475   0.615   3.900   0.556 -0.5888  0.5592  2.4290
 7328TIP3    H243476   0.668   3.778   0.627 -0.7432 -0.4501  0.8616
 7329TIP3   OH243477   5.129   4.601   3.378  0.0325 -0.4627 -0.0371
 7329TIP3    H143478   5.153   4.624   3.288  0.6321 -0.4004  0.1339
 7329TIP3    H243479   5.211   4.569   3.417 -0.0421  0.2503  0.7222
 7330TIP3   OH243480   6.517   3.859   0.603  0.0070  0.1347  0.1763
 7330TIP3    H143481   6.525   3.837   0.696 -1.0355 -0.6776  0.0951
 7330TIP3    H243482   6.590   3.812   0.562  1.4620  1.7784  0.7409
 7331TIP3   OH243483   6.695   6.038  10.986 -0.2681 -0.2181 -0.0370
 7331TIP3    H143484   6.715   6.129  10.966 -1.0813 -0.3089 -1.3743
 7331TIP3    H243485   6.779   5.992  10.975  0.1430  0.3520  0.6446
 7332TIP3   OH243486   4.373   6.015  16.674  0.3322  0.1112 -0.2736
 7332TIP3    H143487   4.418   6.059  16.602 -1.4531  0.2249 -1.4023
 7332TIP3    H243488   4.305   6.077  16.701  0.0273 -0.5434  0.5139
 7333TIP3   OH243489   6.611   2.686  13.486 -0.2031 -0.1152 -0.5842
 7333TIP3    H143490   6.610   2.615  13.421  0.7914 -0.4601 -0.2377
 7333TIP3    H243491   6.531   2.735  13.468 -1.4871 -1.9268 -0.1603
 7334TIP3   OH243492   1.556   6.084  13.229  0.5918  0.4055 -0.1191
 7334TIP3    H143493   1.482   6.025  13.239  1.2984 -0.3248  1.0650
 7334TIP3    H243494   1.524   6.168  13.259  0.1220  0.1919 -0.0116
 7335TIP3   OH243495   3.733   1.671  15.579  0.1960  0.4116  0.2411
 7335TIP3    H143496   3.720   1.579  15.600  1.8382 -0.0318 -0.4780
 7335TIP3    H243497   3.663   1.717  15.624  0.0981 -1.0662  1.6636
 7336TIP3   OH243498   1.943   0.458   2.713  0.0088  0.9673  0.3603
 7336TIP3    H143499   1.872   0.521   2.729 -0.5228  0.2081  1.0818
 7336TIP3    H243500   1.985   0.448   2.799 -0.2222 -0.0132  0.3729
 7337TIP3   OH243501   5.722   3.035   2.662  0.2728 -0.2678  0.5317
 7337TIP3    H143502   5.809   3.066   2.689  0.5076 -0.2176 -0.2552
 7337TIP3    H243503   5.734   2.942   2.645  0.4807 -0.0365 -0.7327
 7338TIP3   OH243504   0.936   5.438  16.187  0.1190 -0.6660  0.3517
 7338TIP3    H143505   0.918   5.357  16.234 -0.2786 -1.6379 -1.3660
 7338TIP3    H243506   0.880   5.503  16.229 -2.6845 -2.1948 -0.7224
 7339TIP3   OH243507   2.360   0.531  15.534 -0.2779 -0.5473 -0.0751
 7339TIP3    H143508   2.443   0.578  15.540 -0.1412 -0.8615  0.5661
 7339TIP3    H243509   2.302   0.578  15.594  0.1906 -1.8454  1.4844
 7340TIP3   OH243510   5.540   0.807   1.106 -0.5370  0.0648  0.2697
 7340TIP3    H143511   5.614   0.867   1.107  0.5700 -1.2551  1.2752
 7340TIP3    H243512   5.463   0.862   1.124  0.5201  1.0640  1.8942
 7341TIP3   OH243513   2.441   1.077   6.327 -0.4147 -0.4548 -0.7340
 7341TIP3    H143514   2.448   1.064   6.422  1.3508  1.3962 -0.5406
 7341TIP3    H243515   2.486   1.002   6.289 -0.7892 -1.0025 -0.1213
 7342TIP3   OH243516   1.865   3.901   6.028 -0.3214  0.0273  0.2184
 7342TIP3    H143517   1.911   3.979   6.060 -0.0711  0.6181 -1.4499
 7342TIP3    H243518   1.935   3.847   5.991 -0.8335  0.6379 -1.7685
 7343TIP3   OH243519   3.306   5.417   6.144  0.2768  0.4719 -0.1048
 7343TIP3    H143520   3.232   5.423   6.205 -0.3349 -0.9252 -0.6692
 7343TIP3    H243521   3.320   5.323   6.132  2.0159  0.7121 -0.1920
 7344TIP3   OH243522   1.576   4.720   3.772  0.2071 -0.1706  0.3416
 7344TIP3    H143523   1.506   4.764   3.723  0.5717 -1.8882 -1.8790
 7344TIP3    H243524   1.618   4.790   3.822 -1.6929  1.2737  0.0418
 7345TIP3   OH243525   2.163   6.546   1.487  0.0547  0.5175 -0.0313
 7345TIP3    H143526   2.229   6.517   1.550 -0.9697 -0.9958  0.4015
 7345TIP3    H243527   2.198   6.628   1.452  2.2395 -0.3346  0.0154
 7346TIP3   OH243528   4.871   6.798  14.221  0.7354  0.1044 -0.3705
 7346TIP3    H143529   4.856   6.727  14.159 -2.7784  1.2975 -1.1379
 7346TIP3    H243530   4.897   6.755  14.302 -0.8839 -2.0356 -0.9145
 7347TIP3   OH243531   6.556   5.079  12.469  0.1918 -0.0224 -0.1211
 7347TIP3    H143532   6.464   5.102  12.478  0.3820  0.9134 -0.4176
 7347TIP3    H243533   6.602   5.141  12.526  0.4963 -2.0326  1.9451
 7348TIP3   OH243534   2.442   3.068  15.137  0.1137 -0.2964 -0.2497
 7348TIP3    H143535   2.526   3.032  15.108  0.1366 -0.4687  0.0252
 7348TIP3    H243536   2.465   3.144  15.190  0.1088 -0.4603 -0.0069
 7349TIP3   OH243537   6.396   0.148  17.046  0.6685 -0.0565  0.2413
 7349TIP3    H143538   6.323   0.116  17.099  1.0273  0.4468  1.0690
 7349TIP3    H243539   6.374   0.240  17.029  0.5851 -0.1997 -0.4429
 7350TIP3   OH243540   2.569   0.984   4.299  0.0564 -0.6535 -0.6818
 7350TIP3    H143541   2.629   1.040   4.251  0.6929 -0.7134  0.0307
 7350TIP3    H243542   2.511   0.947   4.232  1.0173 -0.8532 -1.4166
 7351TIP3   OH243543   1.282   3.665   1.458  0.4061  0.3082 -0.0172
 7351TIP3    H143544   1.252   3.578   1.486  0.6906 -0.2720 -1.4144
 7351TIP3    H243545   1.342   3.693   1.527 -1.4471  0.4268  1.6081
 7352TIP3   OH243546   4.729   2.013   4.509  0.2208  0.3348  0.0903
 7352TIP3    H143547   4.690   1.995   4.594 -0.9696  0.2991 -0.4422
 7352TIP3    H243548   4.660   2.058   4.460  0.2125 -1.2952 -1.4905
 7353TIP3   OH243549   6.683   0.393   5.319  0.2898 -0.2076 -0.0557
 7353TIP3    H143550   6.712   0.417   5.407 -0.8380  0.1416  0.2392
 7353TIP3    H243551   6.656   0.301   5.326 -0.2827 -0.0320  0.0987
 7354TIP3   OH243552   3.236   1.873  14.279  0.3804 -0.6632 -0.7099
 7354TIP3    H143553   3.260   1.810  14.347  0.3483 -1.1376 -1.1260
 7354TIP3    H243554   3.256   1.958  14.316  0.8711 -0.9459 -0.3104
 7355TIP3   OH243555   0.178   6.370   5.014 -0.5508  0.0965  0.0024
 7355TIP3    H143556   0.192   6.295   4.956 -1.2462  0.1906 -0.3037
 7355TIP3    H243557   0.233   6.440   4.977 -1.4886  0.3606 -0.9599
 7356TIP3   OH243558   3.274   2.080  11.470 -0.3756  0.0714  0.6838
 7356TIP3    H143559   3.228   2.154  11.510 -1.1726 -0.8322  1.5022
 7356TIP3    H243560   3.205   2.031  11.425  0.3228  0.4101 -0.8140
 7357TIP3   OH243561   5.823   6.001   3.889 -0.2524 -0.3488  0.1525
 7357TIP3    H143562   5.809   5.945   3.812  2.0505 -0.1996 -0.4603
 7357TIP3    H243563   5.917   6.022   3.886 -0.2672  0.3251  2.5707
 7358TIP3   OH243564   2.466   1.419   4.637  0.6227  0.2411 -0.2556
 7358TIP3    H143565   2.373   1.405   4.652 -0.0465  1.0193 -3.0812
 7358TIP3    H243566   2.505   1.415   4.724 -2.1063  0.4567  1.0842
 7359TIP3   OH243567   4.323   4.713  11.442 -0.5393  0.1319  0.0868
 7359TIP3    H143568   4.351   4.802  11.467  0.3266  0.2527 -1.2123
 7359TIP3    H243569   4.271   4.726  11.363 -0.6919 -0.5027  0.0840
 7360TIP3   OH243570   1.448   1.309  12.964  0.1349 -0.0420 -0.3098
 7360TIP3    H143571   1.421   1.271  13.048 -0.9403  2.0115  0.3309
 7360TIP3    H243572   1.448   1.234  12.904 -0.1552 -1.3734  1.2608
 7361TIP3   OH243573   4.515   0.693   3.123  0.3014 -0.2309  0.1397
 7361TIP3    H143574   4.432   0.655   3.151 -1.4168  1.4531 -2.2497
 7361TIP3    H243575   4.563   0.621   3.083 -0.9489 -0.8279 -0.3281
 7362TIP3   OH243576   5.310   6.164   5.914 -0.0832 -0.0442  0.1676
 7362TIP3    H143577   5.299   6.168   5.819  0.7049 -1.4125 -0.0068
 7362TIP3    H243578   5.296   6.072   5.936 -1.2347  0.4189  1.5263
 7363TIP3   OH243579   4.473   5.026   1.439 -0.1555 -0.3511  0.2871
 7363TIP3    H143580   4.449   5.113   1.409  1.6107  0.0596 -0.0468
 7363TIP3    H243581   4.429   5.016   1.523 -0.5537  0.7725  0.2262
 7364TIP3   OH243582   1.642   2.926  16.763  0.2344  0.2768 -0.1387
 7364TIP3    H143583   1.627   2.940  16.670  0.7265  0.3390 -0.2108
 7364TIP3    H243584   1.576   2.981  16.806  0.4324  0.7671 -0.4468
 7365TIP3   OH243585   4.187   5.812  11.458 -0.3210  0.2951  0.2502
 7365TIP3    H143586   4.143   5.775  11.381  0.1525 -1.1180  0.6308
 7365TIP3    H243587   4.207   5.737  11.513  1.6441  0.9880  0.5783
 7366TIP3   OH243588   1.889   2.463   2.240  0.3730 -0.6621  0.2539
 7366TIP3    H143589   1.876   2.409   2.162  1.0034 -0.3784 -0.0538
 7366TIP3    H243590   1.926   2.544   2.207 -0.6248 -0.0044  0.7066
 7367TIP3   OH243591   6.434   5.230   0.055  0.0644  0.5344 -0.6285
 7367TIP3    H143592   6.468   5.315   0.083  0.5663 -0.1281  0.9386
 7367TIP3    H243593   6.477   5.167   0.114 -1.6641 -0.6231 -0.5274
 7368TIP3   OH243594   6.167   0.486   3.259 -0.1478  0.3686  0.0960
 7368TIP3    H143595   6.212   0.475   3.175 -1.1493  1.4527 -0.6003
 7368TIP3    H243596   6.075   0.496   3.237 -0.5900 -0.4750  1.4214
 7369TIP3   OH243597   0.351   2.830   5.632 -0.0574 -0.1772  1.0922
 7369TIP3    H143598   0.367   2.924   5.634 -0.8392  0.0369 -0.6813
 7369TIP3    H243599   0.436   2.790   5.650  0.3985  0.8601  1.2638
 7370TIP3   OH243600   4.878   0.169   4.693 -0.1091 -0.3347 -0.1428
 7370TIP3    H143601   4.879   0.250   4.642 -2.2942 -0.7054 -0.8810
 7370TIP3    H243602   4.831   0.106   4.638 -0.6483 -1.3813  1.4350
 7371TIP3   OH243603   3.690   1.188  11.306 -0.6551 -0.1180 -0.3349
 7371TIP3    H143604   3.612   1.222  11.350 -0.6735  0.3801 -0.7526
 7371TIP3    H243605   3.672   1.197  11.213  0.2669  0.8383 -0.4386
 7372TIP3   OH243606   0.242   5.854  16.606  0.3883  1.3229  0.7925
 7372TIP3    H143607   0.198   5.867  16.522  0.0542  2.2656  1.1050
 7372TIP3    H243608   0.173   5.863  16.671  0.8092  1.5214  1.2170
 7373TIP3   OH243609   4.544   4.846  13.428 -0.1841 -0.8232 -0.0768
 7373TIP3    H143610   4.570   4.861  13.519 -1.5225 -2.0381  0.5378
 7373TIP3    H243611   4.449   4.842  13.430 -0.2760 -0.3801 -1.6360
 7374TIP3   OH243612   3.349   0.013  15.697  0.3294 -0.6035 -0.1147
 7374TIP3    H143613   3.311  -0.038  15.768  2.2940  0.1075  1.5676
 7374TIP3    H243614   3.417  -0.044  15.660  1.3372  0.0841  0.6111
 7375TIP3   OH243615   1.895   0.329  11.990  0.1126  0.2773  0.1447
 7375TIP3    H143616   1.959   0.298  11.927  1.5877  1.0610  1.1984
 7375TIP3    H243617   1.908   0.274  12.067 -1.6791 -0.6843 -0.1735
 7376TIP3   OH243618   2.705   1.953   0.938 -0.8432  0.0356 -0.2707
 7376TIP3    H143619   2.652   1.881   0.972 -0.5333 -0.8688 -1.6130
 7376TIP3    H243620   2.672   2.030   0.984 -2.9787 -0.5648 -0.6621
 7377TIP3   OH243621   6.150   6.750   0.851  0.0522  0.0711  0.0857
 7377TIP3    H143622   6.098   6.730   0.774 -0.7592  1.6984  0.1577
 7377TIP3    H243623   6.241   6.740   0.823 -0.2531 -0.3073 -0.7830
 7378TIP3   OH243624   6.313   1.647  13.828 -0.4239 -0.0509  0.5170
 7378TIP3    H143625   6.369   1.640  13.905 -0.1444 -0.2244  0.2979
 7378TIP3    H243626   6.235   1.694  13.860  0.1087  0.7486  0.6762
 7379TIP3   OH243627   2.458   1.057  14.643 -0.7244 -0.0193  0.3554
 7379TIP3    H143628   2.464   1.071  14.548  1.1150  0.3790  0.4954
 7379TIP3    H243629   2.468   0.962  14.653  0.8175  0.0939  0.2098
 7380TIP3   OH243630   0.720   2.267   5.163  0.4652 -0.3994  0.0364
 7380TIP3    H143631   0.729   2.351   5.208  0.7669 -0.6845  0.5104
 7380TIP3    H243632   0.717   2.202   5.233 -1.1881 -0.6826 -0.2425
 7381TIP3   OH243633   5.011   3.086   2.246 -0.0043  0.5491  0.0049
 7381TIP3    H143634   5.106   3.080   2.238 -0.1215 -1.1538 -0.4999
 7381TIP3    H243635   4.996   3.153   2.312  1.6196 -0.7198  1.7599
 7382TIP3   OH243636   0.864   2.845  15.043  0.0870 -0.0511 -0.1751
 7382TIP3    H143637   0.792   2.787  15.067 -0.0593  0.8284  1.7037
 7382TIP3    H243638   0.866   2.843  14.947  0.0277 -3.0248 -0.1813
 7383TIP3   OH243639   3.520   6.404  11.887  0.7059  0.5830  0.3708
 7383TIP3    H143640   3.575   6.361  11.953 -0.3653 -0.9325  0.3280
 7383TIP3    H243641   3.582   6.454  11.833  2.0096 -0.7939  0.5249
 7384TIP3   OH243642   4.277   0.380   2.499 -0.3134 -0.3733 -0.7339
 7384TIP3    H143643   4.204   0.412   2.552 -0.6798  0.3385 -1.6502
 7384TIP3    H243644   4.265   0.285   2.499  1.5221 -0.8263  3.0878
 7385TIP3   OH243645   3.890   3.006   2.585 -0.5456 -0.3372  0.2393
 7385TIP3    H143646   3.830   2.934   2.604  1.3300 -1.9286  0.4421
 7385TIP3    H243647   3.909   2.998   2.492 -1.0434  0.5194  0.0483
 7386TIP3   OH243648   0.347   0.069   3.580 -0.4493 -0.3151  0.1189
 7386TIP3    H143649   0.387   0.144   3.624  2.3685 -1.7146  0.1812
 7386TIP3    H243650   0.316   0.104   3.496 -0.9850  1.2760  0.9530
 7387TIP3   OH243651   1.798   3.473  14.424  0.4178 -0.7573  0.0287
 7387TIP3    H143652   1.706   3.457  14.442 -0.4344 -0.4609 -3.3012
 7387TIP3    H243653   1.837   3.494  14.509 -2.6424 -0.4816  1.4745
 7388TIP3   OH243654   1.668   0.440   3.480 -0.2190 -0.2720  0.5191
 7388TIP3    H143655   1.574   0.436   3.499  0.0763  0.7504  2.4124
 7388TIP3    H243656   1.679   0.525   3.436 -0.0062  0.2560  1.5638
 7389TIP3   OH243657   1.644   4.145  11.907  0.1759 -0.2396  0.0425
 7389TIP3    H143658   1.550   4.167  11.908  0.3755  0.6852  1.2021
 7389TIP3    H243659   1.683   4.212  11.852  0.4721  1.0005  1.6805
 7390TIP3   OH243660   1.577   4.247  17.156 -0.3164 -0.3978 -0.4673
 7390TIP3    H143661   1.642   4.210  17.216 -1.6899  0.2506  1.5227
 7390TIP3    H243662   1.559   4.334  17.191 -0.2005  0.5648 -2.6549
 7391TIP3   OH243663   0.492   2.793  13.510 -0.0424  0.0601 -0.5494
 7391TIP3    H143664   0.537   2.733  13.450  3.0441  1.0390  0.5767
 7391TIP3    H243665   0.481   2.743  13.591  1.7979  0.6563  0.1234
 7392TIP3   OH243666   1.418   5.969  16.574 -0.8188  0.2412  0.7924
 7392TIP3    H143667   1.495   5.976  16.518 -2.3726  1.0878 -1.3507
 7392TIP3    H243668   1.396   5.876  16.573 -0.5308  0.1756  0.4362
 7393TIP3   OH243669   5.099   4.957  16.466 -0.4218 -0.3907  0.2923
 7393TIP3    H143670   5.143   4.910  16.395 -0.7283  0.5082 -0.5150
 7393TIP3    H243671   5.012   4.918  16.471 -0.4676 -0.3203  0.0393
 7394TIP3   OH243672   2.729   2.579   6.691 -0.0982 -0.3014  0.1021
 7394TIP3    H143673   2.815   2.576   6.732 -0.0848  2.0198  0.3837
 7394TIP3    H243674   2.670   2.542   6.757  0.3166  0.7278  1.0768
 7395TIP3   OH243675   2.201   4.331  12.945 -0.3231 -0.1999  0.3584
 7395TIP3    H143676   2.259   4.401  12.976  0.2329 -1.3101  1.9811
 7395TIP3    H243677   2.200   4.342  12.850  1.4470  0.7114  0.3821
 7396TIP3   OH243678   4.674   4.683  13.908  0.1827 -0.0217  0.1495
 7396TIP3    H143679   4.657   4.627  13.984 -1.7290 -0.5043 -0.5542
 7396TIP3    H243680   4.675   4.772  13.943 -0.9486 -0.2175  0.7364
 7397TIP3   OH243681   1.925   4.804   3.243  0.7405  0.3987  0.2807
 7397TIP3    H143682   1.883   4.863   3.180  0.1373 -0.5343 -0.2062
 7397TIP3    H243683   1.871   4.725   3.242  0.9860  0.1801  1.6269
 7398TIP3   OH243684   6.235   5.593  14.730  0.2463  0.0055  0.0943
 7398TIP3    H143685   6.235   5.533  14.655 -0.2024  0.3683 -0.1977
 7398TIP3    H243686   6.320   5.635  14.727  0.4460 -0.3891  0.1194
 7399TIP3   OH243687   1.263   0.939   1.278 -0.2301 -0.3088 -0.6233
 7399TIP3    H143688   1.350   0.967   1.306 -0.7772  0.1858  0.6104
 7399TIP3    H243689   1.207   1.016   1.289 -0.5975 -0.2371 -2.6115
 7400TIP3   OH243690   3.278   5.744  14.570  0.4404 -0.1318 -0.1906
 7400TIP3    H143691   3.322   5.756  14.654  0.5502 -2.1361  0.0865
 7400TIP3    H243692   3.347   5.718  14.509  0.1952  0.2775 -0.6525
 7401TIP3   OH243693   4.743   5.697  15.736  0.7903 -0.4128 -0.4341
 7401TIP3    H143694   4.759   5.677  15.829 -1.3920 -0.6586 -0.0383
 7401TIP3    H243695   4.733   5.611  15.695 -1.3856 -0.3275 -0.2059
 7402TIP3   OH243696   5.580   2.301   1.399 -0.6834 -0.2576  0.2546
 7402TIP3    H143697   5.641   2.239   1.359 -2.0056  0.5096 -3.2912
 7402TIP3    H243698   5.522   2.247   1.452  0.7021 -1.4651  0.5925
 7403TIP3   OH243699   6.036   6.741   1.274  0.4917 -0.2209  1.2543
 7403TIP3    H143700   5.999   6.828   1.259 -0.6280 -0.5320  2.1166
 7403TIP3    H243701   6.124   6.758   1.307 -0.3791  0.6604  3.2675
 7404TIP3   OH243702   4.400   0.596   2.714 -0.2839 -0.2948  0.2262
 7404TIP3    H143703   4.324   0.640   2.751 -1.2061 -0.4410 -1.4400
 7404TIP3    H243704   4.372   0.506   2.700  0.5309 -0.6102  0.5311
 7405TIP3   OH243705   1.409   2.895   6.339  0.3057  0.7889 -0.7059
 7405TIP3    H143706   1.416   2.863   6.249  0.3900  0.1750 -0.4899
 7405TIP3    H243707   1.455   2.979   6.339 -0.9072  1.4818 -1.5501
 7406TIP3   OH243708   5.343   2.193   1.475  0.1502 -0.4932  0.5523
 7406TIP3    H143709   5.249   2.209   1.470  0.3917  1.4038  1.0813
 7406TIP3    H243710   5.365   2.205   1.567  1.2025  1.3253  0.1324
 7407TIP3   OH243711   0.099   0.436  15.622 -0.4124 -0.3353 -0.4435
 7407TIP3    H143712   0.137   0.521  15.646 -0.0138 -0.4959 -0.5097
 7407TIP3    H243713   0.137   0.374  15.684  1.8755 -1.0474 -2.3795
 7408TIP3   OH243714   3.296   0.068   0.286  0.2670  0.1468  0.3027
 7408TIP3    H143715   3.348  -0.006   0.255 -0.3151 -0.4974  0.8500
 7408TIP3    H243716   3.206   0.035   0.288 -0.2134  1.2895 -0.7896
 7409TIP3   OH243717   0.466   0.834   1.143 -0.7569  0.3557  0.5576
 7409TIP3    H143718   0.375   0.812   1.122 -0.5276 -0.9702  0.8667
 7409TIP3    H243719   0.507   0.848   1.058 -1.1939  0.7542  0.4059
 7410TIP3   OH243720   2.970   0.187  11.533  0.0345 -0.4190 -0.2600
 7410TIP3    H143721   3.009   0.130  11.467 -0.0206 -0.0951 -0.5740
 7410TIP3    H243722   2.933   0.127  11.598  2.1527 -0.7876  0.7284
 7411TIP3   OH243723   5.432   5.610  15.899  0.8014  0.0535  0.9663
 7411TIP3    H143724   5.480   5.546  15.845 -1.4253 -1.0045  0.0949
 7411TIP3    H243725   5.363   5.558  15.940 -1.2299  1.9076  0.0695
 7412TIP3   OH243726   4.749   3.404   1.360 -0.3779  0.4673  0.2178
 7412TIP3    H143727   4.763   3.450   1.443 -3.2099  1.0774  0.4394
 7412TIP3    H243728   4.753   3.311   1.383 -0.2327  0.6192  0.8440
 7413TIP3   OH243729   3.167   4.565  12.984  0.2453  0.4943 -0.3688
 7413TIP3    H143730   3.134   4.575  13.073  1.4819  0.3857  0.1217
 7413TIP3    H243731   3.113   4.624  12.931 -0.0964  1.0186  0.5441
 7414TIP3   OH243732   1.148   4.419   4.959  0.2900 -0.2238 -0.2367
 7414TIP3    H143733   1.226   4.364   4.968 -0.8822 -1.9800 -0.1143
 7414TIP3    H243734   1.139   4.463   5.043  0.4136 -1.0772  0.2365
 7415TIP3   OH243735   4.638   0.017  16.494 -0.0032 -0.0961  0.3331
 7415TIP3    H143736   4.571  -0.006  16.431  1.0959 -1.8596 -0.2703
 7415TIP3    H243737   4.691   0.083  16.450  0.4725 -0.9689 -0.4532
 7416TIP3   OH243738   1.320   2.385  12.784 -0.1528  0.0032  0.0145
 7416TIP3    H143739   1.260   2.370  12.711 -1.9467  0.1940  1.3783
 7416TIP3    H243740   1.262   2.397  12.860  1.5951  1.1664  1.2206
 7417TIP3   OH243741   6.782   1.475   2.950  0.6166  0.5300  0.0931
 7417TIP3    H143742   6.769   1.509   2.862 -0.6696 -0.8983 -0.2984
 7417TIP3    H243743   6.819   1.387   2.937 -0.4863 -0.0841  0.9274
 7418TIP3   OH243744   3.782   4.175   3.075 -0.9632  0.2270  0.2016
 7418TIP3    H143745   3.786   4.116   3.150 -1.1961  0.4080  0.3585
 7418TIP3    H243746   3.729   4.128   3.010 -0.3406 -0.1404 -0.0417
 7419TIP3   OH243747   1.404   4.891   0.215 -0.8934  0.1331  0.0546
 7419TIP3    H143748   1.366   4.975   0.239 -1.3521  0.0923 -0.5132
 7419TIP3    H243749   1.487   4.888   0.263 -0.9403  0.8410  0.1938
 7420TIP3   OH243750   0.420   5.405  12.449  0.4573 -0.3179  0.1698
 7420TIP3    H143751   0.378   5.363  12.374 -0.4938 -0.2885  0.6817
 7420TIP3    H243752   0.350   5.417  12.513  0.6637  2.0531  0.0497
 7421TIP3   OH243753   2.413   4.939  16.118  0.1455  0.0361 -0.2719
 7421TIP3    H143754   2.457   4.886  16.052 -1.6609  0.7317 -2.1722
 7421TIP3    H243755   2.440   5.029  16.099  1.1622  0.0832  1.2603
 7422TIP3   OH243756   5.463   6.675   3.485 -0.4292 -0.8695 -0.4849
 7422TIP3    H143757   5.498   6.586   3.493  0.5789 -0.7495 -2.7861
 7422TIP3    H243758   5.440   6.683   3.393 -0.7755  1.1729 -0.2588
 7423TIP3   OH243759   4.145   6.014  15.076  0.4541 -0.2550 -0.2450
 7423TIP3    H143760   4.051   6.024  15.093  0.7795  2.7136  0.3045
 7423TIP3    H243761   4.185   6.012  15.163  1.0290  0.3967 -0.4901
 7424TIP3   OH243762   6.563   5.974   5.852  0.3972  0.1877  0.0209
 7424TIP3    H143763   6.514   5.908   5.902  0.1073  1.1063  0.9888
 7424TIP3    H243764   6.651   5.972   5.889  0.2276  0.7507  0.4695
 7425TIP3   OH243765   1.398   4.017  13.139  0.0671  0.1583 -0.5218
 7425TIP3    H143766   1.492   4.027  13.154  0.4601 -0.7084 -2.1015
 7425TIP3    H243767   1.384   3.923  13.140 -1.0549  0.3099  0.9625
 7426TIP3   OH243768   0.762   2.194  10.847 -0.2960  0.0617 -0.4840
 7426TIP3    H143769   0.764   2.108  10.804  1.6141  0.2506 -0.8364
 7426TIP3    H243770   0.843   2.236  10.822 -0.5630  1.4504  0.8065
 7427TIP3   OH243771   1.660   3.692   5.741  0.2917  0.2785  0.3146
 7427TIP3    H143772   1.738   3.747   5.730  2.2046 -2.4389 -1.0475
 7427TIP3    H243773   1.627   3.714   5.828  3.7387  0.2303  1.7899
 7428TIP3   OH243774   0.021   1.574   1.146  0.4019 -0.8421  0.2428
 7428TIP3    H143775   0.065   1.649   1.106  0.2950 -0.1318  1.3841
 7428TIP3    H243776   0.084   1.541   1.210  0.1590 -1.2566  0.2715
 7429TIP3   OH243777   2.480   4.078   1.037  0.2186 -0.1643 -0.6768
 7429TIP3    H143778   2.465   4.122   1.121  2.1346 -0.8075  0.0713
 7429TIP3    H243779   2.447   4.139   0.972 -1.5899  0.2331  0.5307
 7430TIP3   OH243780   5.781   0.299  15.288  0.0315 -0.5266  0.0019
 7430TIP3    H143781   5.780   0.218  15.238  0.9767  0.2718 -1.3780
 7430TIP3    H243782   5.868   0.301  15.328 -0.5025 -0.8653  1.2089
 7431TIP3   OH243783   4.886   4.443  16.346 -0.1791 -0.0745  0.6129
 7431TIP3    H143784   4.964   4.493  16.322 -0.3876  0.0773  0.2424
 7431TIP3    H243785   4.815   4.507  16.340 -0.2914 -0.1404  1.2327
 7432TIP3   OH243786   4.301   1.481  11.396  0.2988  0.2069  0.0134
 7432TIP3    H143787   4.344   1.553  11.442 -0.2488  2.8178 -3.1980
 7432TIP3    H243788   4.346   1.475  11.312 -0.4603 -2.4865 -0.2976
 7433TIP3   OH243789   4.482   5.168  16.834 -0.0784  0.3318  0.0827
 7433TIP3    H143790   4.510   5.093  16.782 -0.8173  1.0749 -1.4508
 7433TIP3    H243791   4.489   5.138  16.924  0.1788 -1.3845 -0.4673
 7434TIP3   OH243792   4.254   1.927   0.152 -0.0610  0.5745  0.0369
 7434TIP3    H143793   4.285   1.971   0.231 -1.6859 -0.1919  1.1659
 7434TIP3    H243794   4.284   1.982   0.080  2.1564  0.8718  1.1074
 7435TIP3   OH243795   5.147   6.135  12.746  0.2039  0.0846 -0.2462
 7435TIP3    H143796   5.076   6.074  12.724 -1.1838  1.4355  0.2625
 7435TIP3    H243797   5.214   6.119  12.679 -0.9780 -0.6061 -1.3213
 7436TIP3   OH243798   1.258   1.849  11.067 -0.3159 -0.0074 -0.6270
 7436TIP3    H143799   1.254   1.760  11.032  2.8316 -0.1238 -1.0367
 7436TIP3    H243800   1.181   1.857  11.123  0.5632 -3.9327  1.5083
 7437TIP3   OH243801   0.895   1.140  14.812  0.2160  0.7033  0.1980
 7437TIP3    H143802   0.892   1.048  14.786  1.0154  0.5662  0.5783
 7437TIP3    H243803   0.888   1.139  14.908  3.8957  0.7648  0.5944
 7438TIP3   OH243804   6.100   3.750  13.867 -0.4488 -0.0931 -0.4244
 7438TIP3    H143805   6.115   3.799  13.948 -0.5382  0.3177 -0.6590
 7438TIP3    H243806   6.019   3.701  13.884  0.2726 -1.1021  0.2544
 7439TIP3   OH243807   6.084   1.116   1.895 -0.0311 -0.4300 -0.2208
 7439TIP3    H143808   6.056   1.038   1.943 -0.8172 -0.4527 -0.7002
 7439TIP3    H243809   6.003   1.154   1.861  0.2744  0.9478  0.5191
 7440TIP3   OH243810   4.383   3.135   4.908 -0.2345 -0.3326 -0.1365
 7440TIP3    H143811   4.398   3.070   4.977 -0.8041  0.1881  0.4874
 7440TIP3    H243812   4.361   3.082   4.831  0.4464 -0.9216  0.0557
 7441TIP3   OH243813   0.818   4.511   1.730 -0.2356 -0.3348 -0.0170
 7441TIP3    H143814   0.814   4.485   1.822 -0.4826  0.0574  0.0844
 7441TIP3    H243815   0.886   4.455   1.692 -2.6194 -3.1415 -0.4643
 7442TIP3   OH243816   0.909   3.216  16.197 -0.5427 -0.3143  0.2821
 7442TIP3    H143817   0.949   3.265  16.125 -2.0254  1.7282  0.7686
 7442TIP3    H243818   0.908   3.276  16.271  0.8393 -2.3352  2.0629
 7443TIP3   OH243819   4.167   5.950   2.486 -0.5527 -0.6308  0.4847
 7443TIP3    H143820   4.225   5.885   2.447  0.3872 -0.5465  1.6991
 7443TIP3    H243821   4.106   5.899   2.540  0.6401 -0.4998  2.0185
 7444TIP3   OH243822   6.492   6.509   1.118  0.0459 -0.2418 -0.3585
 7444TIP3    H143823   6.410   6.540   1.079 -0.3461 -0.5470  0.2199
 7444TIP3    H243824   6.470   6.490   1.209  0.7870 -0.2220 -0.1694
 7445TIP3   OH243825   4.906   1.940  13.643 -0.4281  0.0551 -0.8633
 7445TIP3    H143826   4.826   1.986  13.615 -1.2426 -1.4343 -1.1198
 7445TIP3    H243827   4.947   1.912  13.561 -0.8172 -1.0632 -0.6926
 7446TIP3   OH243828   2.360   4.230   0.863 -0.3993 -0.4095 -0.0983
 7446TIP3    H143829   2.371   4.240   0.768 -1.2720 -1.0288 -0.2800
 7446TIP3    H243830   2.266   4.218   0.875 -0.3770  0.2803  0.9206
 7447TIP3   OH243831   6.046   1.928   4.505  0.1273 -0.3744 -0.4570
 7447TIP3    H143832   6.085   1.963   4.585 -0.7919 -0.5669  0.0877
 7447TIP3    H243833   5.956   1.907   4.530  0.6958 -3.4639 -0.6269
 7448TIP3   OH243834   4.804   2.736   5.611 -0.0114  0.1650  0.2378
 7448TIP3    H143835   4.762   2.818   5.585 -0.3455  1.3808  4.0803
 7448TIP3    H243836   4.893   2.743   5.575 -0.7316  1.0739 -1.4770
 7449TIP3   OH243837   1.193   2.698  15.585 -0.1762 -0.2280 -0.0825
 7449TIP3    H143838   1.194   2.683  15.490 -1.0020  0.7493 -0.2681
 7449TIP3    H243839   1.102   2.681  15.611 -0.0886  0.0723  0.4300
 7450TIP3   OH243840   2.420   0.762  14.602 -0.2351  0.3886  0.4100
 7450TIP3    H143841   2.513   0.744  14.589  0.2055  1.4726  1.7966
 7450TIP3    H243842   2.404   0.743  14.695 -0.8520  2.3150  0.7425
 7451TIP3   OH243843   4.624   1.686  15.061 -0.0525 -0.0918  0.0416
 7451TIP3    H143844   4.651   1.636  14.983 -0.4313 -0.1923 -0.0259
 7451TIP3    H243845   4.688   1.662  15.128  0.1471 -0.1745 -0.1777
 7452TIP3   OH243846   6.714   4.881   3.122  0.2713  0.4610 -0.2993
 7452TIP3    H143847   6.801   4.898   3.158  0.2572  0.0571 -0.0583
 7452TIP3    H243848   6.679   4.810   3.177  0.2878 -0.2362 -1.1649
 7453TIP3   OH243849   4.824   5.808  11.551 -0.2379  0.4264  0.3695
 7453TIP3    H143850   4.843   5.791  11.459  0.1244  1.4853  0.2317
 7453TIP3    H243851   4.745   5.757  11.570 -1.4936  1.7433 -1.0814
 7454TIP3   OH243852   4.851   3.461  12.619 -0.1389 -0.3888 -0.8839
 7454TIP3    H143853   4.774   3.492  12.665 -0.4018  1.2810 -2.3512
 7454TIP3    H243854   4.819   3.440  12.531  0.8113 -1.0999 -1.0754
 7455TIP3   OH243855   4.975   2.232   3.846 -0.6148  0.5011  0.7265
 7455TIP3    H143856   4.972   2.278   3.930 -0.5691  1.3596  0.2738
 7455TIP3    H243857   5.056   2.181   3.850 -0.4677  0.7564  1.0950
 7456TIP3   OH243858   1.488   2.804   6.095  0.3289  0.4697 -0.1145
 7456TIP3    H143859   1.557   2.749   6.057 -1.0873 -0.6653 -1.1467
 7456TIP3    H243860   1.532   2.887   6.114  1.6628  0.2890 -2.0508
 7457TIP3   OH243861   3.272   2.669  16.542  0.1509 -0.4426 -0.7471
 7457TIP3    H143862   3.219   2.591  16.526  0.2000 -0.9722  1.3638
 7457TIP3    H243863   3.210   2.735  16.571  0.3950 -0.4395 -0.2216
 7458TIP3   OH243864   4.345   1.768   5.666  0.5039 -0.0987  0.1807
 7458TIP3    H143865   4.299   1.713   5.730 -1.4333  0.3126 -0.7840
 7458TIP3    H243866   4.378   1.707   5.601 -2.5738 -0.1809 -1.4689
 7459TIP3   OH243867   5.676   2.985   0.507  0.2056  0.3928 -0.4395
 7459TIP3    H143868   5.600   2.990   0.566 -1.3560  2.0630 -2.4447
 7459TIP3    H243869   5.656   2.912   0.449 -0.1815  1.2162 -1.3535
 7460TIP3   OH243870   6.164   2.794  16.503  0.1369 -0.4029  0.0170
 7460TIP3    H143871   6.085   2.773  16.453  0.3406 -0.3923 -0.3103
 7460TIP3    H243872   6.236   2.761  16.449  0.6593  2.9887 -1.6241
 7461TIP3   OH243873   6.572   4.054   4.039  0.2227  0.2903 -0.0899
 7461TIP3    H143874   6.557   4.029   4.130 -2.6637 -0.9192 -0.7909
 7461TIP3    H243875   6.652   4.007   4.014  0.8061  0.2933  1.6664
 7462TIP3   OH243876   0.321   1.701   1.237 -0.4173 -0.5772  0.2356
 7462TIP3    H143877   0.325   1.605   1.232  0.8737 -0.5476  0.3923
 7462TIP3    H243878   0.276   1.727   1.157  0.7570 -1.2424 -0.6788
 7463TIP3   OH243879   1.265   6.515  13.146 -0.0727 -0.2083 -0.4030
 7463TIP3    H143880   1.183   6.492  13.189 -0.1684  0.6314 -0.1176
 7463TIP3    H243881   1.247   6.503  13.052 -0.2227 -0.9291 -0.2852
 7464TIP3   OH243882   6.461   5.626   3.370  0.1520  0.7319 -0.1658
 7464TIP3    H143883   6.421   5.624   3.283 -1.6541  0.2558  0.6134
 7464TIP3    H243884   6.493   5.537   3.384  0.0275  0.6860 -0.1700
 7465TIP3   OH243885   2.286   3.488   5.153  0.3419 -0.1910  0.2368
 7465TIP3    H143886   2.271   3.462   5.244  0.2667 -0.5795  0.1123
 7465TIP3    H243887   2.246   3.419   5.101  1.0830 -0.3846 -0.0933
 7466TIP3   OH243888   1.698   4.472  16.183  0.2697  0.0826  0.5989
 7466TIP3    H143889   1.783   4.458  16.224  0.8444  2.3579  0.3292
 7466TIP3    H243890   1.668   4.556  16.218 -1.1121  0.1082 -0.5422
 7467TIP3   OH243891   6.355   4.035  15.417  0.1963 -0.5576  0.0367
 7467TIP3    H143892   6.328   4.078  15.498  0.1327 -1.5407  0.5450
 7467TIP3    H243893   6.369   3.944  15.441 -2.1262 -1.4293 -1.5066
 7468TIP3   OH243894   2.835   3.176   3.268  0.5370  0.7420  0.1423
 7468TIP3    H143895   2.740   3.184   3.283  0.1935 -2.1229  0.1429
 7468TIP3    H243896   2.854   3.242   3.201 -1.6529  0.7989 -0.5337
 7469TIP3   OH243897   1.546   3.781  13.604  0.0411  0.5727  0.3902
 7469TIP3    H143898   1.493   3.741  13.674 -0.7327  1.7247  0.5053
 7469TIP3    H243899   1.584   3.858  13.645 -1.0972  1.7428 -0.6463
 7470TIP3   OH243900   3.020   1.096   4.349  0.3643  0.3097  0.0185
 7470TIP3    H143901   2.988   1.153   4.279 -2.3201  0.3373  1.1531
 7470TIP3    H243902   3.089   1.147   4.392 -0.5211  1.8555 -0.3086
 7471TIP3   OH243903   4.761   6.596  11.027 -0.1603  0.0437 -0.4346
 7471TIP3    H143904   4.764   6.634  10.939  2.0896 -0.4079 -0.6093
 7471TIP3    H243905   4.800   6.509  11.017  0.0573 -0.0437  0.9995
 7472TIP3   OH243906   3.146   2.508   2.622 -0.2514  0.3852  0.3909
 7472TIP3    H143907   3.187   2.424   2.645  1.5143  0.5097 -1.9090
 7472TIP3    H243908   3.054   2.497   2.646  0.5632 -0.8696  3.4478
 7473TIP3   OH243909   4.501   0.211   3.569 -0.4033  0.4991 -0.0166
 7473TIP3    H143910   4.486   0.277   3.637 -0.0072  1.5262 -0.8944
 7473TIP3    H243911   4.426   0.222   3.509 -0.4716 -0.0278 -0.0267
 7474TIP3   OH243912   1.887   1.556   5.867 -0.2292  0.3579  0.0033
 7474TIP3    H143913   1.916   1.600   5.946 -1.8797  1.1678  0.2012
 7474TIP3    H243914   1.806   1.511   5.893 -2.0554  2.4697 -1.6880
 7475TIP3   OH243915   1.173   4.483   1.394 -0.4847  0.1196  0.5265
 7475TIP3    H143916   1.087   4.468   1.434 -0.6833 -1.3228 -0.3764
 7475TIP3    H243917   1.153   4.508   1.304  0.0013  2.1308  0.9303
 7476TIP3   OH243918   5.670   1.469  11.408 -0.1843  0.3656 -0.6298
 7476TIP3    H143919   5.712   1.403  11.465 -0.3153  0.1293 -0.8037
 7476TIP3    H243920   5.691   1.440  11.319  1.4217  1.6480 -0.7113
 7477TIP3   OH243921   2.137   4.616   2.917 -0.7548  0.3138 -0.0262
 7477TIP3    H143922   2.200   4.593   2.849 -1.5080 -3.3445  0.3016
 7477TIP3    H243923   2.100   4.699   2.889  0.2586 -0.1682 -3.1158
 7478TIP3   OH243924   5.300   2.133  12.110 -0.0928 -0.1944  0.7246
 7478TIP3    H143925   5.230   2.075  12.079 -2.3104  2.5744  0.0859
 7478TIP3    H243926   5.353   2.150  12.033  0.0472 -0.6816  0.7117
 7479TIP3   OH243927   0.855   1.286   4.591  0.3723 -0.2745  0.0672
 7479TIP3    H143928   0.850   1.287   4.687  0.6272  0.6980  0.0834
 7479TIP3    H243929   0.831   1.375   4.565 -0.6090 -0.7871 -0.8326
 7480TIP3   OH243930   4.516   0.011   4.632 -0.2887 -1.2693 -0.4615
 7480TIP3    H143931   4.525  -0.046   4.556 -0.6460 -0.6580 -0.9693
 7480TIP3    H243932   4.556   0.094   4.605  2.7850 -2.0393  1.1970
 7481TIP3   OH243933   2.951   2.918   2.185  0.0533 -0.1329 -0.6986
 7481TIP3    H143934   2.949   3.003   2.140 -0.0218  0.4659  0.4005
 7481TIP3    H243935   3.003   2.934   2.263 -0.2153 -1.0308 -0.3286
 7482TIP3   OH243936   2.802   2.691   3.120  0.2633  0.6102  0.1537
 7482TIP3    H143937   2.776   2.709   3.210  0.0172 -0.0466  0.2152
 7482TIP3    H243938   2.894   2.718   3.116  0.1957  0.9030  0.5211
 7483TIP3   OH243939   1.848   0.600  15.569 -0.6238 -0.4294 -0.1283
 7483TIP3    H143940   1.852   0.578  15.475  1.2523 -2.5186  0.3382
 7483TIP3    H243941   1.837   0.515  15.612  0.3524  0.2867  1.6087
 7484TIP3   OH243942   0.721   3.173   2.954 -0.3323 -0.2221 -0.4558
 7484TIP3    H143943   0.671   3.093   2.942 -1.1228 -0.1886  2.0388
 7484TIP3    H243944   0.809   3.143   2.977 -0.7446 -0.4507  0.9520
 7485TIP3   OH243945   3.224   2.657  14.046  0.2271  0.1261  0.0822
 7485TIP3    H143946   3.191   2.716  14.114  3.0151  1.1791  0.6554
 7485TIP3    H243947   3.156   2.658  13.978 -1.2717  1.4382  1.5129
 7486TIP3   OH243948   2.251   2.052   0.560 -0.2260 -0.8090 -0.7353
 7486TIP3    H143949   2.333   2.026   0.602  0.7539  1.4990 -1.0504
 7486TIP3    H243950   2.278   2.095   0.479 -1.8490 -1.1972 -1.5251
 7487TIP3   OH243951   5.979   2.272   4.199  0.5975 -0.1959 -0.1336
 7487TIP3    H143952   6.028   2.306   4.274  2.5867  0.5228 -1.6802
 7487TIP3    H243953   6.045   2.255   4.132 -0.9440 -2.1555 -1.2870
 7488TIP3   OH243954   0.650   5.255   3.681  0.1303  0.1574  0.2341
 7488TIP3    H143955   0.569   5.263   3.632 -0.0593  0.2687  0.5631
 7488TIP3    H243956   0.715   5.301   3.627 -0.1727  0.6898  0.3104
 7489TIP3   OH243957   6.281   6.446  14.536 -0.3804  0.1335  0.3109
 7489TIP3    H143958   6.371   6.414  14.537 -1.0920 -1.9681  0.7061
 7489TIP3    H243959   6.282   6.517  14.471  1.4028 -0.2625 -0.1534
 7490TIP3   OH243960   2.239   2.717   0.091  0.7259  0.3162 -0.2495
 7490TIP3    H143961   2.245   2.770   0.011  0.1641 -0.4165 -0.7937
 7490TIP3    H243962   2.176   2.764   0.146 -0.0113  0.0562 -0.8594
 7491TIP3   OH243963   2.738   5.181   5.863 -1.1004  0.1041 -0.0406
 7491TIP3    H143964   2.766   5.245   5.797 -1.0077  0.4612  0.3380
 7491TIP3    H243965   2.816   5.169   5.917 -0.6970 -1.3519 -0.9033
 7492TIP3   OH243966   1.701   0.293   2.909  0.2498 -0.0833  0.1591
 7492TIP3    H143967   1.778   0.341   2.939  1.0631 -0.7730 -0.7685
 7492TIP3    H243968   1.630   0.322   2.967 -0.0970  4.5988 -2.1466
 7493TIP3   OH243969   1.210   1.662   5.311 -0.0182  0.1531  0.2550
 7493TIP3    H143970   1.238   1.571   5.300  0.3665  0.0780  1.6836
 7493TIP3    H243971   1.222   1.701   5.224 -1.6298 -1.5173 -0.7733
 7494TIP3   OH243972   5.634   2.411  15.698 -0.4013  0.3477 -0.4155
 7494TIP3    H143973   5.648   2.502  15.721 -1.6743  0.1640  1.3175
 7494TIP3    H243974   5.558   2.412  15.640 -2.2992  0.2346  1.9306
 7495TIP3   OH243975   5.726   1.684  14.943  0.0270  0.3101  0.0721
 7495TIP3    H143976   5.670   1.607  14.944  0.1745  0.1489 -1.3230
 7495TIP3    H243977   5.733   1.707  14.850  0.1609  1.8773  0.4392
 7496TIP3   OH243978   5.836   0.236  16.788  0.6120 -0.2043 -0.3993
 7496TIP3    H143979   5.888   0.271  16.861 -0.5016  0.1417  0.2644
 7496TIP3    H243980   5.873   0.150  16.772  0.0489 -0.8630  1.5085
 7497TIP3   OH243981   1.427   5.738  17.015 -0.0509  0.0024  0.0095
 7497TIP3    H143982   1.394   5.648  17.013 -1.6199  0.4719  1.5891
 7497TIP3    H243983   1.473   5.749  16.932 -2.8234 -1.1866 -1.8404
 7498TIP3   OH243984   5.001   5.980   0.734  0.6144 -0.1345 -0.2725
 7498TIP3    H143985   4.958   5.961   0.650 -0.5590 -0.1845  0.3169
 7498TIP3    H243986   4.938   5.951   0.800 -0.1744  3.3837  0.6965
 7499TIP3   OH243987   2.097   4.964  11.246 -0.1224  0.3251 -0.0645
 7499TIP3    H143988   2.159   4.892  11.256  0.3694  0.4828 -1.7326
 7499TIP3    H243989   2.020   4.925  11.205  0.5068  0.8871 -1.8454
 7500TIP3   OH243990   1.107   4.132   4.455  0.5015 -0.4300  0.4211
 7500TIP3    H143991   1.065   4.053   4.421  2.0818 -0.8306 -0.6784
 7500TIP3    H243992   1.200   4.119   4.440  0.9562  0.9182  1.7784
 7501TIP3   OH243993   2.021   2.030  13.769 -0.0617  0.1020 -0.4888
 7501TIP3    H143994   2.027   2.005  13.861  0.4562 -1.2190 -0.8609
 7501TIP3    H243995   2.093   1.983  13.726 -0.8837 -0.0869 -1.7201
 7502TIP3   OH243996   0.517   1.085  16.710 -0.2914 -0.7487 -0.3582
 7502TIP3    H143997   0.425   1.072  16.686 -0.6058 -1.1936  0.9930
 7502TIP3    H243998   0.525   1.179  16.724 -0.5377 -0.7053 -0.4940
 7503TIP3   OH243999   5.010   5.409  13.063  0.1306 -0.9568  0.4823
 7503TIP3    H144000   5.019   5.313  13.065  1.4965 -0.8471  0.1248
 7503TIP3    H244001   5.039   5.438  13.149  1.1903 -0.7640  0.0729
 7504TIP3   OH244002   5.917   5.319  11.687  0.4813  0.6514 -0.0588
 7504TIP3    H144003   5.936   5.396  11.740  1.1379  0.8198 -0.5250
 7504TIP3    H244004   6.001   5.272  11.683  0.1745  0.1010 -0.0764
 7505TIP3   OH244005   3.344   5.759   0.290 -0.1971  0.4653 -0.2191
 7505TIP3    H144006   3.390   5.812   0.356  0.3842  0.0776 -0.3051
 7505TIP3    H244007   3.366   5.669   0.312 -0.2562  0.3170 -0.7505
 7506TIP3   OH244008   5.729   1.691   2.734  0.5149  0.3059 -0.3529
 7506TIP3    H144009   5.682   1.610   2.717  0.4196  0.3058 -0.0963
 7506TIP3    H244010   5.819   1.663   2.752 -0.3919 -0.3165  4.6606
 7507TIP3   OH244011   3.072   3.187  14.646  0.1694  0.0764 -0.1854
 7507TIP3    H144012   3.165   3.212  14.644  0.0469  0.5348 -1.7849
 7507TIP3    H244013   3.053   3.172  14.739  1.3570  1.8472  0.4070
 7508TIP3   OH244014   6.425   5.435  15.517  0.2609 -0.4776 -0.0052
 7508TIP3    H144015   6.371   5.418  15.440  1.1062  0.9691 -0.9799
 7508TIP3    H244016   6.513   5.447  15.481  0.6090  0.5505  1.1335
 7509TIP3   OH244017   4.215   6.122   5.696  0.4540  0.2585 -0.0662
 7509TIP3    H144018   4.152   6.155   5.631 -0.1566 -0.6309  0.0552
 7509TIP3    H244019   4.300   6.153   5.664  0.0169  1.0476 -0.5093
 7510TIP3   OH244020   6.436   6.018  14.223  0.0329 -0.1413  0.3210
 7510TIP3    H144021   6.380   5.942  14.239 -0.3366  0.2458  0.9169
 7510TIP3    H244022   6.376   6.093  14.228  0.5265  0.2460  0.5202
 7511TIP3   OH244023   6.119   4.531   0.106  0.6887  0.4212  0.2503
 7511TIP3    H144024   6.106   4.567   0.194  0.1221 -2.5763  1.4956
 7511TIP3    H244025   6.213   4.514   0.100  0.6726  0.2869  0.4040
 7512TIP3   OH244026   6.401   0.007   2.545 -0.7213 -0.3518 -0.0423
 7512TIP3    H144027   6.466  -0.060   2.523  0.7847  1.0534 -0.0337
 7512TIP3    H244028   6.415   0.076   2.480 -1.5059  0.4246  0.5934
 7513TIP3   OH244029   4.919   6.013   3.825  0.2855  0.0887 -0.2760
 7513TIP3    H144030   4.919   5.938   3.765  0.9877 -1.0790  1.1179
 7513TIP3    H244031   4.841   5.999   3.880  1.9090 -1.2704  1.8571
 7514TIP3   OH244032   5.518   0.659   4.238  0.2496 -0.4103 -1.0241
 7514TIP3    H144033   5.600   0.688   4.198  0.5442 -0.5723 -0.5427
 7514TIP3    H244034   5.501   0.574   4.198 -0.2965  0.1300 -1.9834
 7515TIP3   OH244035   2.097   5.915   0.681 -0.6747 -0.1506  0.9137
 7515TIP3    H144036   2.153   5.985   0.648 -0.2301  0.3173  2.5870
 7515TIP3    H244037   2.129   5.836   0.637  0.3151  0.3480  0.7241
 7516TIP3   OH244038   2.086   4.424   0.289  0.0143 -0.5421  0.2043
 7516TIP3    H144039   2.062   4.332   0.299  2.3121 -1.0717  1.6974
 7516TIP3    H244040   2.178   4.421   0.261  1.0988  1.2285  3.1736
 7517TIP3   OH244041   6.710   0.125  16.623  0.8432  0.5498 -0.0148
 7517TIP3    H144042   6.713   0.158  16.713  2.4435  1.8371 -0.4672
 7517TIP3    H244043   6.772   0.052  16.622  1.1157  0.7780 -0.1355
 7518TIP3   OH244044   0.004   4.336  16.966 -0.5358  0.2869 -0.0107
 7518TIP3    H144045  -0.092   4.333  16.966 -0.7109  3.1114  0.4608
 7518TIP3    H244046   0.029   4.261  17.020 -2.6080  0.7521  1.7854
 7519TIP3   OH244047   6.023   3.082  15.697 -0.9169  0.3343  0.4596
 7519TIP3    H144048   5.942   3.102  15.744 -1.4510  0.2584 -0.4081
 7519TIP3    H244049   6.031   3.152  15.632 -0.3692  0.2536  0.4366
 7520TIP3   OH244050   3.058   2.741  16.105 -0.2750 -0.1376  0.1023
 7520TIP3    H144051   3.139   2.730  16.154 -0.3470  1.0160  0.4983
 7520TIP3    H244052   3.078   2.807  16.039 -0.6754 -0.4193 -0.3091
 7521TIP3   OH244053   4.918   3.746  13.487 -0.1366 -0.0913  0.2845
 7521TIP3    H144054   4.915   3.747  13.582 -2.3706  0.6990  0.2508
 7521TIP3    H244055   4.924   3.838  13.462 -1.5837 -0.1413 -0.3396
 7522TIP3   OH244056   0.410   3.207  14.372 -0.3275  0.1864 -0.3879
 7522TIP3    H144057   0.486   3.231  14.319  0.0714 -1.5179 -0.6497
 7522TIP3    H244058   0.385   3.120  14.341 -1.4904  0.1031  0.6899
 7523TIP3   OH244059   1.501   2.373  12.456  0.0129 -0.0497  0.3820
 7523TIP3    H144060   1.412   2.369  12.491 -0.1100  1.5825  0.3248
 7523TIP3    H244061   1.547   2.302  12.501 -1.2139 -0.6828  0.6848
 7524TIP3   OH244062   6.433   0.737   5.258 -0.5142 -0.1129  0.2608
 7524TIP3    H144063   6.494   0.730   5.332 -0.1640 -0.5535 -0.0658
 7524TIP3    H244064   6.387   0.653   5.257  0.8564 -0.9000 -1.2079
 7525TIP3   OH244065   1.042   2.526   4.996  0.0645  0.0724  0.0450
 7525TIP3    H144066   1.036   2.443   5.044  0.1543  0.1156  0.1324
 7525TIP3    H244067   1.136   2.543   4.991  0.2979 -1.4490 -2.7691
 7526TIP3   OH244068   2.164   2.250   0.713 -0.1279 -0.2213  0.5680
 7526TIP3    H144069   2.176   2.333   0.667  1.4262 -0.5195  0.3800
 7526TIP3    H244070   2.159   2.184   0.644  0.6594 -0.4907  0.7482
 7527TIP3   OH244071   1.723   5.300  15.155 -0.0722  0.0877 -0.3203
 7527TIP3    H144072   1.795   5.242  15.129  0.1759  0.5191 -0.5864
 7527TIP3    H244073   1.655   5.285  15.089 -0.7464 -1.2589  0.6160
 7528TIP3   OH244074   5.228   0.331  16.110  0.3545  0.3461 -0.1566
 7528TIP3    H144075   5.215   0.238  16.130  1.8109 -0.2383 -1.6993
 7528TIP3    H244076   5.180   0.346  16.029 -2.0716  1.6738  1.3878
 7529TIP3   OH244077   2.679   4.173   2.294 -0.5292  0.2042  0.0293
 7529TIP3    H144078   2.726   4.247   2.256  0.5358 -0.6911 -0.4668
 7529TIP3    H244079   2.685   4.104   2.227  1.0906 -1.2976  1.6019
 7530TIP3   OH244080   0.326   4.891  17.140 -0.1401 -0.2096  0.0968
 7530TIP3    H144081   0.380   4.832  17.192  1.8537  1.1844 -0.2999
 7530TIP3    H244082   0.237   4.876  17.172  0.8881  0.1325  3.4877
 7531TIP3   OH244083   3.301   5.866  13.411  0.0722 -0.2641 -0.6391
 7531TIP3    H144084   3.285   5.833  13.499 -0.8779 -2.2540 -1.4878
 7531TIP3    H244085   3.354   5.944  13.424  0.0730 -0.5755  1.6760
 7532TIP3   OH244086   3.958   0.908   0.389 -0.4970  0.0232  0.1662
 7532TIP3    H144087   3.986   0.893   0.299  0.6519 -0.8014  0.6398
 7532TIP3    H244088   3.892   0.977   0.383  0.2987  0.6892 -1.1983
 7533TIP3   OH244089   6.627   2.714  15.457  0.1358  0.1526  0.2507
 7533TIP3    H144090   6.652   2.622  15.457  0.9605  0.3677  0.1099
 7533TIP3    H244091   6.691   2.756  15.515  1.5275  1.0669 -1.8310
 7534TIP3   OH244092   2.304   5.522  11.057 -0.5163 -0.5956 -0.3134
 7534TIP3    H144093   2.349   5.606  11.047 -0.3402 -0.9556 -3.2027
 7534TIP3    H244094   2.374   5.459  11.071 -0.5751 -0.4331  0.7962
 7535TIP3   OH244095   6.766   2.868   3.021  0.1125 -0.1853 -0.0027
 7535TIP3    H144096   6.784   2.793   3.077 -1.2875 -0.9479 -0.5210
 7535TIP3    H244097   6.714   2.833   2.949  0.1019  1.1480 -0.6880
 7536TIP3   OH244098   3.438   5.501   0.305 -0.6421  0.1539 -0.0319
 7536TIP3    H144099   3.422   5.467   0.394  1.2789 -1.6355 -0.2849
 7536TIP3    H244100   3.464   5.423   0.255 -0.5885  1.3185 -1.8854
 7537TIP3   OH244101   1.609   2.179   0.339 -0.2450  0.2298 -0.3846
 7537TIP3    H144102   1.676   2.246   0.351 -2.0510  2.0311  0.1112
 7537TIP3    H244103   1.573   2.165   0.426 -1.6644  0.5809 -0.8836
 7538TIP3   OH244104   1.676   5.142   2.680  0.7386 -0.2852 -0.3827
 7538TIP3    H144105   1.631   5.139   2.596  0.3068 -0.5124 -0.1458
 7538TIP3    H244106   1.606   5.142   2.745  1.0802 -1.7073  0.0199
 7539TIP3   OH244107   1.857   4.091   2.979  0.2489  0.0066 -0.1857
 7539TIP3    H144108   1.924   4.157   2.966  0.0347  0.4176  0.7256
 7539TIP3    H244109   1.889   4.015   2.931  1.5381  0.0786  0.5137
 7540TIP3   OH244110   6.514   3.165   2.633  0.5237  0.8418 -0.3371
 7540TIP3    H144111   6.493   3.244   2.683  0.0430  0.0184  0.8279
 7540TIP3    H244112   6.610   3.161   2.634  0.5504  1.3913 -0.3880
 7541TIP3   OH244113   1.205   6.777  12.468 -0.4290 -0.3824 -0.7179
 7541TIP3    H144114   1.207   6.851  12.407  0.2490  1.0958  1.0158
 7541TIP3    H244115   1.233   6.814  12.552 -2.8529 -1.9569  0.9145
 7542TIP3   OH244116   6.281   5.506  16.457 -0.2278 -0.5125 -0.3670
 7542TIP3    H144117   6.347   5.563  16.418  0.3424 -2.3192 -2.2338
 7542TIP3    H244118   6.221   5.486  16.385 -2.0606 -0.0223  0.9534
 7543TIP3   OH244119   1.289   3.062   3.498 -0.6045  0.3005  0.0525
 7543TIP3    H144120   1.238   2.982   3.517 -1.2446  1.2042  2.5823
 7543TIP3    H244121   1.224   3.132   3.499  0.2814  1.1335  0.2889
 7544TIP3   OH244122   3.239   5.088   0.185 -0.2046 -0.5308  0.4176
 7544TIP3    H144123   3.241   4.995   0.163 -0.0712 -0.6438  0.8827
 7544TIP3    H244124   3.323   5.103   0.230 -0.0112 -0.0772 -0.0826
 7545TIP3   OH244125   2.647   0.790   4.491  0.0342 -0.6656  0.1303
 7545TIP3    H144126   2.730   0.836   4.483 -0.1666 -0.1534  0.8686
 7545TIP3    H244127   2.591   0.829   4.424  0.4414 -1.1417 -0.4918
 7546TIP3   OH244128   2.848   0.666  12.022 -0.0119 -0.1741  0.1752
 7546TIP3    H144129   2.903   0.743  12.038 -0.2520  0.1927 -0.6899
 7546TIP3    H244130   2.783   0.668  12.092  0.2771  0.1328  0.4395
 7547TIP3   OH244131   2.892   5.587   4.465 -0.0569  0.2396 -0.4856
 7547TIP3    H144132   2.826   5.637   4.515  1.3610  0.8445  0.8591
 7547TIP3    H244133   2.884   5.498   4.499 -0.6806  0.1434 -0.8685
 7548TIP3   OH244134   4.509   0.332  14.217  0.2181  0.4276 -0.4431
 7548TIP3    H144135   4.564   0.295  14.148  3.7940  1.3330  1.6974
 7548TIP3    H244136   4.519   0.427  14.207  2.5316  0.6235  2.3734
 7549TIP3   OH244137   2.324   5.061   4.895 -0.3834 -0.0071 -0.2430
 7549TIP3    H144138   2.263   5.082   4.825 -0.8714  0.0286  0.1837
 7549TIP3    H244139   2.354   4.972   4.874  0.4101  0.4592 -1.1460
 7550TIP3   OH244140   2.611   4.689  15.358 -0.0045 -0.5640 -0.3305
 7550TIP3    H144141   2.641   4.599  15.350  0.1528 -0.5190 -0.2452
 7550TIP3    H244142   2.685   4.742  15.328 -0.4776 -0.4955 -1.4294
 7551TIP3   OH244143   5.580   2.905  11.277 -0.2607 -0.1327  0.0671
 7551TIP3    H144144   5.626   2.919  11.194 -0.1011  0.1316  0.2012
 7551TIP3    H244145   5.568   2.993  11.313 -0.3535 -0.2457  0.3119
 7552TIP3   OH244146   2.779   2.916   6.339  0.1393  0.5963 -0.2483
 7552TIP3    H144147   2.807   2.851   6.403 -0.3848  0.3045 -0.3083
 7552TIP3    H244148   2.860   2.957   6.308  0.5632 -0.7841 -1.0118
 7553TIP3   OH244149   4.799   3.799   1.092  0.1084  0.4314  0.1832
 7553TIP3    H144150   4.783   3.715   1.134  0.8406  1.4585  2.6716
 7553TIP3    H244151   4.833   3.776   1.005  0.7135 -1.8321  0.9536
 7554TIP3   OH244152   2.440   3.635  11.458 -0.0115 -0.2059 -0.1827
 7554TIP3    H144153   2.425   3.579  11.534  1.0378  0.1037  0.2658
 7554TIP3    H244154   2.359   3.685  11.449  0.2114  0.4785  1.3528
 7555TIP3   OH244155   4.944   2.058  10.789 -0.1502 -0.3759 -0.2525
 7555TIP3    H144156   4.906   2.066  10.876  0.5236  1.9008 -0.1099
 7555TIP3    H244157   4.998   1.979  10.794 -0.9875 -0.8914  1.0342
 7556TIP3   OH244158   5.712   3.107   5.011  0.4447  0.0028 -0.6101
 7556TIP3    H144159   5.740   3.120   4.921  0.8285 -0.7597 -0.6139
 7556TIP3    H244160   5.794   3.105   5.061  0.1787  1.7533 -0.0423
 7557TIP3   OH244161   0.107   6.570   0.477  0.2351 -0.1333  0.3031
 7557TIP3    H144162   0.080   6.638   0.416 -1.0533  1.0184  2.0724
 7557TIP3    H244163   0.079   6.601   0.562  4.4982 -0.2478  2.0225
 7558TIP3   OH244164   3.326   5.569  15.463 -0.0187  0.2882  0.1709
 7558TIP3    H144165   3.335   5.534  15.552  1.3189 -2.0572 -0.7865
 7558TIP3    H244166   3.239   5.539  15.435 -0.1135  0.3343  0.4110
 7559TIP3   OH244167   0.846   6.412   4.739  0.6589  0.0803 -0.5294
 7559TIP3    H144168   0.922   6.362   4.707 -1.1100 -2.0197 -1.6940
 7559TIP3    H244169   0.790   6.347   4.780 -0.6075  1.5768  0.2091
 7560TIP3   OH244170   1.903   5.149  13.297  0.3164 -0.7371  0.2093
 7560TIP3    H144171   1.848   5.071  13.288  0.0754 -0.5060 -0.3914
 7560TIP3    H244172   1.841   5.222  13.293  0.5459 -0.5085  0.7213
 7561TIP3   OH244173   5.828   5.918  13.959 -0.0715 -0.2534 -0.2356
 7561TIP3    H144174   5.918   5.948  13.970 -0.0868 -0.5427  0.7658
 7561TIP3    H244175   5.831   5.824  13.974 -0.3100 -0.5143 -1.6646
 7562TIP3   OH244176   0.384   5.320   3.637  0.4951  0.0751 -0.0872
 7562TIP3    H144177   0.324   5.383   3.679  0.9682  1.1404 -0.9623
 7562TIP3    H244178   0.360   5.236   3.675 -3.0483  0.0602 -1.9028
 7563TIP3   OH244179   4.448   1.523  16.086 -0.7693  0.2410  0.4806
 7563TIP3    H144180   4.434   1.429  16.074 -0.3453  0.1468  0.6877
 7563TIP3    H244181   4.514   1.545  16.020 -1.9596  0.7081 -0.6025
 7564TIP3   OH244182   4.786   2.223  11.346 -0.4948 -0.2696  0.2333
 7564TIP3    H144183   4.761   2.131  11.349 -3.0412  0.3668  0.8849
 7564TIP3    H244184   4.790   2.244  11.253 -3.1913 -0.3131  0.0280
 7565TIP3   OH244185   5.323   0.401  15.628  0.6168  0.0124 -0.2745
 7565TIP3    H144186   5.384   0.341  15.586  1.0282 -0.7937  1.4035
 7565TIP3    H244187   5.242   0.352  15.636  1.1402 -0.6204  1.6857
 7566TIP3   OH244188   1.750   3.341   3.000 -0.3636  0.1427 -0.1984
 7566TIP3    H144189   1.696   3.291   3.061 -1.3798 -0.2268 -1.3467
 7566TIP3    H244190   1.800   3.401   3.055 -1.2489 -0.1642  0.9867
 7567TIP3   OH244191   5.579   2.733  12.639  0.4509 -0.1776  0.1873
 7567TIP3    H144192   5.514   2.746  12.708  0.7719 -0.7977  0.6184
 7567TIP3    H244193   5.619   2.648  12.659  1.2971  0.1251 -0.1447
 7568TIP3   OH244194   0.364   1.035  15.450  0.1713  0.0804  0.5254
 7568TIP3    H144195   0.272   1.023  15.430  0.2046  0.9011 -0.1711
 7568TIP3    H244196   0.402   0.947  15.445 -0.0021  0.0845 -2.1638
 7569TIP3   OH244197   3.485   5.185  11.655 -0.0899 -0.0465  0.1768
 7569TIP3    H144198   3.445   5.136  11.727  0.2140  0.6111  0.8038
 7569TIP3    H244199   3.564   5.223  11.693  0.7115 -0.6677 -0.8310
 7570TIP3   OH244200   6.444   1.203   5.679 -0.3540  0.1895 -0.3639
 7570TIP3    H144201   6.414   1.119   5.644 -0.8274  0.5758 -0.9015
 7570TIP3    H244202   6.512   1.232   5.618 -1.3464  0.9767 -1.1152
 7571TIP3   OH244203   0.542   5.517   5.712 -0.2624  0.0010  0.0254
 7571TIP3    H144204   0.576   5.598   5.748  0.2086 -1.7476  4.0934
 7571TIP3    H244205   0.448   5.520   5.730 -0.4621  0.1430 -0.9867
 7572TIP3   OH244206   4.136   3.612  13.033 -0.1537 -0.1396  0.4124
 7572TIP3    H144207   4.115   3.519  13.028 -0.6267 -0.0451  0.6644
 7572TIP3    H244208   4.061   3.652  13.076 -0.5944  0.5745 -0.9484
 7573TIP3   OH244209   6.330   3.970  13.723  0.3153  0.6282  0.3067
 7573TIP3    H144210   6.349   3.987  13.815  0.6793 -0.2254  0.4029
 7573TIP3    H244211   6.413   3.983  13.678 -0.1663  2.4209 -0.1297
 7574TIP3   OH244212   6.800   1.735  11.957  0.8671  0.1618  0.2854
 7574TIP3    H144213   6.754   1.651  11.956  3.1783 -1.2053 -1.6513
 7574TIP3    H244214   6.774   1.778  11.875  3.0533 -0.7578 -0.9844
 7575TIP3   OH244215   3.538   0.937   6.898  0.5137 -0.7893 -0.5949
 7575TIP3    H144216   3.554   0.852   6.940  0.6552 -0.0629  0.8809
 7575TIP3    H244217   3.621   0.959   6.856  0.8405 -0.8462  0.0122
 7576TIP3   OH244218   2.985   2.053   1.756 -0.4184 -0.4992 -0.6234
 7576TIP3    H144219   2.937   1.972   1.740  0.2093 -0.7725 -1.1577
 7576TIP3    H244220   3.000   2.090   1.669 -1.9237  0.9321 -0.3260
 7577TIP3   OH244221   4.437   3.033  13.927 -0.3542 -0.5160  0.4011
 7577TIP3    H144222   4.367   3.082  13.970  0.8260  0.8116  0.8619
 7577TIP3    H244223   4.515   3.051  13.979  0.9424  0.3740 -1.6997
 7578TIP3   OH244224   4.588   0.195  17.013 -0.3759 -0.2889 -0.1810
 7578TIP3    H144225   4.526   0.267  17.021  0.5027  0.3146  1.7077
 7578TIP3    H244226   4.597   0.181  16.919 -0.9108  1.7598 -0.5742
 7579TIP3   OH244227   1.770   1.443  16.067 -0.4487 -0.0492 -0.2556
 7579TIP3    H144228   1.738   1.445  15.977  0.7793 -2.1733 -0.8267
 7579TIP3    H244229   1.844   1.503  16.067 -1.0798  0.7395 -0.3785
 7580TIP3   OH244230   0.881   2.920  15.825 -0.1111  0.2954 -0.1966
 7580TIP3    H144231   0.974   2.926  15.845 -0.0814  2.0030 -0.6938
 7580TIP3    H244232   0.845   3.004  15.855 -1.5793 -0.5061  0.3973
 7581TIP3   OH244233   1.301   0.758  10.616 -0.2271 -0.1500  0.4912
 7581TIP3    H144234   1.315   0.832  10.676 -1.9220 -1.0898  2.1414
 7581TIP3    H244235   1.283   0.799  10.532 -0.3937  1.2957  1.1982
 7582TIP3   OH244236   2.577   5.807  16.926 -0.4982  0.4525  0.5823
 7582TIP3    H144237   2.593   5.825  16.834  0.4014  0.5134  0.7449
 7582TIP3    H244238   2.639   5.738  16.949 -0.6552  0.4978  1.1612
 7583TIP3   OH244239   4.920   3.399   4.974 -0.3529 -0.0678  0.2242
 7583TIP3    H144240   4.847   3.342   4.949  0.9147 -1.2960 -0.9020
 7583TIP3    H244241   4.972   3.347   5.035 -1.0615  1.2837  2.0648
 7584TIP3   OH244242   3.941   2.112  10.576 -0.0135 -0.4075 -0.1199
 7584TIP3    H144243   4.032   2.124  10.605 -0.3961 -1.1662  1.4854
 7584TIP3    H244244   3.895   2.189  10.608  0.1764  0.3734 -1.6210
 7585TIP3   OH244245   5.540   5.984  14.618 -0.5043 -0.1956  0.7007
 7585TIP3    H144246   5.474   6.035  14.569 -0.7239  0.5421  1.7292
 7585TIP3    H244247   5.553   5.906  14.565 -0.2331  0.8702 -0.8947
 7586TIP3   OH244248   5.476   3.353  13.057  0.4581  0.0726  0.1774
 7586TIP3    H144249   5.496   3.352  12.964  2.4516 -0.2150  0.5580
 7586TIP3    H244250   5.450   3.263  13.077 -0.4150  0.2389 -0.1627
 7587TIP3   OH244251   0.392   0.928  13.862 -0.9867  0.4183 -0.1183
 7587TIP3    H144252   0.300   0.939  13.838 -1.2785 -0.7412  0.3665
 7587TIP3    H244253   0.418   1.012  13.899 -1.3606  1.2796 -1.7635
 7588TIP3   OH244254   1.342   6.478  16.524  0.0742  0.0207  0.2768
 7588TIP3    H144255   1.378   6.396  16.558 -0.0595  0.3530  1.2630
 7588TIP3    H244256   1.248   6.470  16.536  0.0771  0.4047  0.6111
 7589TIP3   OH244257   3.084   5.564  11.865  0.5248  0.4426 -0.3182
 7589TIP3    H144258   3.136   5.641  11.841 -0.6520  0.9982 -1.1924
 7589TIP3    H244259   3.071   5.517  11.783 -0.6898  0.5516 -0.2154
 7590TIP3   OH244260   3.774   0.196   2.189 -0.7944 -0.2716  0.0377
 7590TIP3    H144261   3.854   0.232   2.228 -1.2356 -1.3590  2.0753
 7590TIP3    H244262   3.760   0.249   2.111  1.1306  0.8690  0.3926
 7591TIP3   OH244263   1.828   6.091  13.217  0.3209 -0.0228 -0.0308
 7591TIP3    H144264   1.733   6.101  13.225  0.1493 -0.6992 -0.9736
 7591TIP3    H244265   1.840   6.050  13.131  1.4542 -0.1455  0.1733
 7592TIP3   OH244266   4.718   0.456  11.877 -0.1486 -0.3045  0.3734
 7592TIP3    H144267   4.797   0.506  11.857 -1.1035  0.4802 -1.6737
 7592TIP3    H244268   4.747   0.365  11.877  0.5715 -0.1100 -1.4211
 7593TIP3   OH244269   0.543   3.259  15.883  0.2307  0.1552  0.3266
 7593TIP3    H144270   0.543   3.323  15.954  0.9884  2.1079 -1.3423
 7593TIP3    H244271   0.456   3.267  15.843 -0.4659 -1.4679  1.4269
 7594TIP3   OH244272   2.335   1.773  14.256 -0.2846 -0.0306 -0.1083
 7594TIP3    H144273   2.264   1.709  14.257  1.0499 -1.6301  2.5678
 7594TIP3    H244274   2.292   1.857  14.267 -1.8482 -0.8134  0.0222
 7595TIP3   OH244275   4.423   5.400   4.154 -0.3001 -0.1762  0.5159
 7595TIP3    H144276   4.413   5.453   4.234 -0.1963  1.2939 -0.3992
 7595TIP3    H244277   4.377   5.450   4.087  2.2915  0.3279 -1.0557
 7596TIP3   OH244278   2.978   0.200  14.751 -0.3608 -0.0800  1.0018
 7596TIP3    H144279   3.054   0.232  14.703  0.3090 -0.8719  1.5020
 7596TIP3    H244280   3.003   0.111  14.778 -2.0726 -1.0041 -0.2216
 7597TIP3   OH244281   0.971   0.504  12.648 -0.0171  0.8478  0.4902
 7597TIP3    H144282   1.039   0.560  12.612  1.9142 -0.3088  2.0712
 7597TIP3    H244283   0.978   0.422  12.600  0.5863  0.3018  1.4705
 7598TIP3   OH244284   2.042   6.167  14.858  0.2096 -0.3760 -0.5050
 7598TIP3    H144285   2.086   6.231  14.914 -0.9978  0.5856 -0.6261
 7598TIP3    H244286   2.027   6.213  14.776 -0.7472 -0.7850 -0.5659
 7599TIP3   OH244287   5.337   0.661  11.729  0.0829  0.1799 -0.6097
 7599TIP3    H144288   5.263   0.721  11.739  0.0161  0.4158 -2.2083
 7599TIP3    H244289   5.413   0.717  11.721  0.5495 -0.0790  1.5814
 7600TIP3   OH244290   0.769   5.595   1.775  0.2335  0.1408 -0.2863
 7600TIP3    H144291   0.817   5.543   1.710  0.3944 -0.4653  0.3007
 7600TIP3    H244292   0.832   5.662   1.803 -0.5875  1.9318 -2.4492
 7601TIP3   OH244293   2.199   4.747   0.141  0.3965  0.0299  0.4862
 7601TIP3    H144294   2.125   4.745   0.080 -0.7087  0.8945  1.7460
 7601TIP3    H244295   2.270   4.788   0.091 -0.2751  0.1133 -0.4217
 7602TIP3   OH244296   2.770   6.447  14.647 -0.5831  0.6095  0.0636
 7602TIP3    H144297   2.675   6.444  14.634 -0.6502 -1.0158  0.7426
 7602TIP3    H244298   2.795   6.534  14.616 -2.3966  1.3889  0.6369
 7603TIP3   OH244299   2.461   2.487   4.016  0.3837 -0.2257 -0.1943
 7603TIP3    H144300   2.478   2.548   4.089  0.0727  1.1889 -1.2665
 7603TIP3    H244301   2.405   2.419   4.055 -1.3534  1.4955  0.4755
 7604TIP3   OH244302   1.826   4.839  17.003  0.1255 -0.3857  0.4009
 7604TIP3    H144303   1.857   4.897  16.934  0.5378  0.2300  1.0870
 7604TIP3    H244304   1.839   4.751  16.968 -0.4996 -0.0755 -0.6429
 7605TIP3   OH244305   4.458   5.782   4.295  0.6864 -0.0654  0.2880
 7605TIP3    H144306   4.402   5.795   4.219  0.2715 -1.7431  0.2641
 7605TIP3    H244307   4.447   5.862   4.347 -1.2263 -0.0482 -0.0459
 7606TIP3   OH244308   0.331   4.960   2.290  0.2644  0.2538  0.5758
 7606TIP3    H144309   0.255   4.954   2.232  0.0998  1.9131  0.5933
 7606TIP3    H244310   0.392   5.019   2.246  1.3515 -0.6689  0.7951
 7607TIP3   OH244311   0.461   0.444  14.501  0.7003  0.3025 -0.2240
 7607TIP3    H144312   0.394   0.420  14.566  2.1479  1.9496  2.0418
 7607TIP3    H244313   0.412   0.461  14.421 -2.0570  3.8369  1.9130
 7608TIP3   OH244314   3.179   2.957  13.405  0.1049 -1.1031 -0.1759
 7608TIP3    H144315   3.084   2.962  13.416  0.1328 -1.8586  0.5918
 7608TIP3    H244316   3.207   2.892  13.470  1.2245 -0.4042  0.0721
 7609TIP3   OH244317   4.296   1.716  15.648 -0.0908  0.3436  0.1954
 7609TIP3    H144318   4.281   1.777  15.575 -2.2547  1.3409  1.3514
 7609TIP3    H244319   4.222   1.732  15.707  0.0977 -2.3474  1.3100
 7610TIP3   OH244320   2.142   2.413   5.263  0.2299  0.3058 -0.1067
 7610TIP3    H144321   2.173   2.411   5.353  2.5308 -0.4476 -0.8509
 7610TIP3    H244322   2.098   2.497   5.255 -0.7729  0.0335  1.9161
 7611TIP3   OH244323   4.827   1.309   0.714  0.0788 -0.0222 -0.0433
 7611TIP3    H144324   4.816   1.314   0.809 -0.3284  1.6672 -0.1512
 7611TIP3    H244325   4.916   1.342   0.699 -0.6011  1.7957 -0.3682
 7612TIP3   OH244326   0.608   4.074  11.462 -0.0877  0.4958 -0.1623
 7612TIP3    H144327   0.649   4.026  11.534  2.0980  1.2293 -0.8262
 7612TIP3    H244328   0.630   4.022  11.384  0.6399  1.5180 -0.6643
 7613TIP3   OH244329   5.047   6.771   0.936 -0.2084 -0.3376 -0.4449
 7613TIP3    H144330   5.037   6.769   0.841  0.4270 -2.1764 -0.5101
 7613TIP3    H244331   4.958   6.771   0.970 -0.4395 -0.3175 -1.0494
 7614TIP3   OH244332   2.793   1.019  10.799  0.2595 -0.4340 -0.5574
 7614TIP3    H144333   2.780   1.035  10.705 -0.7039 -0.3309 -0.4245
 7614TIP3    H244334   2.852   1.088  10.827 -0.1281  0.0632 -0.9304
 7615TIP3   OH244335   3.390   0.655  16.242 -0.2400  0.3199  0.0805
 7615TIP3    H144336   3.447   0.677  16.316  2.0092 -3.3918 -0.3178
 7615TIP3    H244337   3.329   0.591  16.277  0.7280 -1.3393 -1.1476
 7616TIP3   OH244338   3.642   4.078  12.496  0.8060 -0.7882  0.0335
 7616TIP3    H144339   3.611   4.045  12.580  1.8368 -1.5024  0.1536
 7616TIP3    H244340   3.579   4.044  12.432 -0.0125 -0.1960  0.5113
 7617TIP3   OH244341   6.471   1.099   3.961  0.0415  0.0188 -0.1730
 7617TIP3    H144342   6.523   1.033   3.916 -2.4447 -0.8654 -1.9899
 7617TIP3    H244343   6.445   1.058   4.043  1.2191  0.0612  0.2392
 7618TIP3   OH244344   4.927   6.201  12.979 -0.6735 -0.1286 -0.1098
 7618TIP3    H144345   5.019   6.198  13.007 -0.6743 -1.3297 -0.1687
 7618TIP3    H244346   4.924   6.272  12.915  0.4487 -0.7093 -0.8616
 7619TIP3   OH244347   1.498   3.767   3.112 -0.2646  0.3190  0.4591
 7619TIP3    H144348   1.486   3.672   3.103  3.2259 -0.2813  0.7120
 7619TIP3    H244349   1.412   3.799   3.138 -1.3979 -2.8809  1.1954
 7620TIP3   OH244350   5.544   1.831  13.852 -0.1784 -0.0112 -0.3688
 7620TIP3    H144351   5.618   1.885  13.825 -1.2652  1.3186 -0.7699
 7620TIP3    H244352   5.498   1.809  13.770  1.1651 -3.0646 -0.4569
 7621TIP3   OH244353   1.825   4.177  12.475 -0.0662 -0.3546 -0.3252
 7621TIP3    H144354   1.775   4.142  12.401 -0.3129 -0.4753 -0.1035
 7621TIP3    H244355   1.822   4.272  12.464  2.2260 -0.3978 -2.0082
 7622TIP3   OH244356   2.682   0.139  13.815 -0.5323  0.0124  0.2888
 7622TIP3    H144357   2.695   0.068  13.753 -0.1573  0.4666 -0.1641
 7622TIP3    H244358   2.672   0.096  13.900 -0.6183 -0.5894 -0.0221
 7623TIP3   OH244359   0.889   0.564  16.489  0.0784  0.0239 -0.4367
 7623TIP3    H144360   0.839   0.585  16.410  0.2850  0.7929 -0.3677
 7623TIP3    H244361   0.958   0.505  16.457 -0.5907 -0.6795 -0.6068
 7624TIP3   OH244362   6.136   4.761   3.922  0.1886  0.3216  0.0210
 7624TIP3    H144363   6.177   4.701   3.984 -1.3561 -0.3662  0.4362
 7624TIP3    H244364   6.199   4.832   3.913  1.7999 -1.0266  0.0063
 7625TIP3   OH244365   6.138   1.906  13.346  0.3616 -0.1670  0.1269
 7625TIP3    H144366   6.167   1.860  13.425  0.7993  0.5346  0.3848
 7625TIP3    H244367   6.145   1.999  13.368  2.4451  0.1130 -1.4100
 7626TIP3   OH244368   2.149   5.220   2.657 -0.0351  0.2421  0.9210
 7626TIP3    H144369   2.215   5.273   2.613 -0.4963 -0.4150 -0.6308
 7626TIP3    H244370   2.069   5.273   2.653 -0.3335 -0.2611 -0.0218
 7627TIP3   OH244371   2.649   1.100  13.826  0.6027  0.0026  0.0080
 7627TIP3    H144372   2.627   1.058  13.909  0.1826 -0.0288 -0.1136
 7627TIP3    H244373   2.625   1.035  13.759  3.3539 -1.0475 -0.0698
 7628TIP3   OH244374   1.027   1.913   2.021  0.2138  0.5049  0.0795
 7628TIP3    H144375   0.982   1.878   2.097  0.3385  2.3139  1.0369
 7628TIP3    H244376   1.047   2.003   2.044  4.0040 -0.0565 -0.4299
 7629TIP3   OH244377   4.007   5.972  13.554  0.4519 -0.0811 -0.3277
 7629TIP3    H144378   4.064   5.939  13.485  0.1072 -0.7388 -0.3039
 7629TIP3    H244379   3.919   5.966  13.517  0.5248  3.3750 -1.3801
 7630TIP3   OH244380   3.297   4.591  12.510  0.8248  0.0923 -0.0317
 7630TIP3    H144381   3.381   4.596  12.463  0.0082  1.0417 -1.4477
 7630TIP3    H244382   3.231   4.586  12.441 -0.4531  2.0675  0.9650
 7631TIP3   OH244383   6.195   4.175  12.350  0.2136  0.7256 -0.2539
 7631TIP3    H144384   6.261   4.112  12.322 -0.1013  0.9760 -1.6496
 7631TIP3    H244385   6.243   4.256  12.365  0.6636  0.1337  1.8199
 7632TIP3   OH244386   5.409   1.454  13.197  0.1714  0.5755  0.1091
 7632TIP3    H144387   5.369   1.541  13.207  3.2968  2.3208 -1.1868
 7632TIP3    H244388   5.486   1.456  13.254  1.7362 -0.2809 -1.8507
 7633TIP3   OH244389   0.347   5.147   5.434 -0.0157  0.5360 -0.3406
 7633TIP3    H144390   0.367   5.059   5.465  2.4544  0.7707 -1.0046
 7633TIP3    H244391   0.270   5.174   5.483  0.0679 -1.4293  0.9655
 7634TIP3   OH244392   1.170   2.932  16.553 -0.2972 -0.0880  0.1025
 7634TIP3    H144393   1.207   2.911  16.639  4.3372  0.3177 -1.4670
 7634TIP3    H244394   1.173   2.850  16.504  1.2882  0.4907 -0.8633
 7635TIP3   OH244395   1.498   2.850   0.785  0.0549 -0.3368 -0.3199
 7635TIP3    H144396   1.544   2.911   0.728  0.0327  1.7579  1.7093
 7635TIP3    H244397   1.565   2.789   0.815  1.8122  2.7335  2.6927
 7636TIP3   OH244398   6.280   2.726   3.133 -0.4185  0.6051 -0.2099
 7636TIP3    H144399   6.335   2.652   3.105 -2.2502 -1.1011  0.4667
 7636TIP3    H244400   6.307   2.741   3.224 -1.6766 -0.9246  0.4709
 7637TIP3   OH244401   1.536   3.659  15.403 -0.2379  0.6699  0.0979
 7637TIP3    H144402   1.529   3.642  15.309  0.8773  0.1160  0.1091
 7637TIP3    H244403   1.495   3.582  15.444 -0.6364  0.8656  0.0708
 7638TIP3   OH244404   1.283   5.119   0.335  0.4405 -0.3780  0.1062
 7638TIP3    H144405   1.197   5.116   0.377 -0.2438 -1.8065 -1.3003
 7638TIP3    H244406   1.269   5.165   0.253  0.9741 -0.7817 -0.2214
 7639TIP3   OH244407   1.386   4.998   1.860 -0.0735 -0.1520  0.6573
 7639TIP3    H144408   1.295   5.015   1.834  0.4495  2.2327  0.1648
 7639TIP3    H244409   1.387   5.014   1.955 -0.4253 -1.6084  0.9357
 7640TIP3   OH244410   1.025   0.558  15.091  0.2130  0.3206 -0.0902
 7640TIP3    H144411   0.948   0.533  15.142  0.6543  1.2740  1.0752
 7640TIP3    H244412   1.097   0.559  15.153  1.4660 -1.6997 -1.3860
 7641TIP3   OH244413   2.021   2.055  15.448  0.0537 -0.0564  0.4712
 7641TIP3    H144414   2.108   2.095  15.451 -0.4817  1.1119  0.9188
 7641TIP3    H244415   2.025   1.986  15.515  1.3105 -1.4978 -1.0145
 7642TIP3   OH244416   2.519   1.986  15.410 -0.3047  0.0479 -0.4326
 7642TIP3    H144417   2.604   2.016  15.444 -0.7087 -0.0973  0.7713
 7642TIP3    H244418   2.533   1.894  15.388 -0.0830  0.0872 -0.4563
 7643TIP3   OH244419   0.891   4.449   5.998 -0.1434  0.6963  0.5571
 7643TIP3    H144420   0.966   4.407   5.956 -0.0397  0.8474  0.5887
 7643TIP3    H244421   0.914   4.542   6.000 -0.9659  0.9502 -0.7619
 7644TIP3   OH244422   2.108   5.708   2.890  0.9455  0.4711  0.7252
 7644TIP3    H144423   2.191   5.737   2.928  0.2891  1.1558  1.6734
 7644TIP3    H244424   2.082   5.633   2.943 -0.1506  1.6457  1.9206
 7645TIP3   OH244425   5.460   3.454   4.913  0.6860 -0.3466  0.0876
 7645TIP3    H144426   5.365   3.460   4.920  0.5025 -1.0660 -1.4958
 7645TIP3    H244427   5.493   3.520   4.975 -0.8283 -0.0922  0.6546
 7646TIP3   OH244428   3.305   6.778  14.437  0.2865  0.2935  0.1541
 7646TIP3    H144429   3.276   6.687  14.431  0.6248  0.1862  0.1594
 7646TIP3    H244430   3.278   6.818  14.354  0.2365  0.1631  0.1080
 7647TIP3   OH244431   5.982   1.230  15.621 -0.0021 -0.6983  0.7319
 7647TIP3    H144432   6.067   1.221  15.662 -1.2376  0.4283  3.8232
 7647TIP3    H244433   5.933   1.152  15.647 -0.4389 -0.5610  0.3591
 7648TIP3   OH244434   1.687   1.494  11.922 -0.0453 -0.0827 -0.4086
 7648TIP3    H144435   1.600   1.488  11.883  0.2357 -0.9840 -0.9194
 7648TIP3    H244436   1.688   1.580  11.965 -1.2815 -0.1739 -0.1579
 7649TIP3   OH244437   5.067   6.463   0.893  0.0840 -0.3201 -0.3242
 7649TIP3    H144438   5.062   6.444   0.800 -2.1804  0.8496 -0.5277
 7649TIP3    H244439   5.090   6.556   0.897 -0.4600 -0.2037  0.2427
 7650TIP3   OH244440   6.803   6.520   2.021 -0.4232 -0.0409  0.2044
 7650TIP3    H144441   6.712   6.525   1.993  0.1544 -1.0758 -2.0779
 7650TIP3    H244442   6.848   6.585   1.966  0.4099 -0.4801  0.3607
 7651TIP3   OH244443   0.204   1.214   3.373  0.1451 -0.1174  0.1929
 7651TIP3    H144444   0.258   1.161   3.314 -1.3377  0.1881 -1.5457
 7651TIP3    H244445   0.150   1.267   3.314  0.3964  2.1533  1.8607
 7652TIP3   OH244446   4.035   5.252   6.563  1.1035  0.4942  0.0612
 7652TIP3    H144447   4.042   5.284   6.652 -0.6057 -0.4996  0.5983
 7652TIP3    H244448   4.016   5.330   6.510  0.9725  0.9260  0.7429
 7653TIP3   OH244449   2.600   0.122   4.088 -0.0006  0.1751 -0.1209
 7653TIP3    H144450   2.582   0.078   4.171  1.0400  0.6348  0.3664
 7653TIP3    H244451   2.546   0.202   4.091  1.3082  1.0564  0.8955
 7654TIP3   OH244452   2.904   4.484   4.423  0.4261  0.0025  0.6505
 7654TIP3    H144453   2.829   4.424   4.419  0.1367  0.1597  2.7234
 7654TIP3    H244454   2.976   4.431   4.455  1.0737  0.0066 -0.7318
 7655TIP3   OH244455   4.079   5.254  17.090  0.2943 -0.3948  0.4593
 7655TIP3    H144456   4.138   5.254  17.014 -0.4854 -0.7083 -0.1536
 7655TIP3    H244457   3.996   5.285  17.056  0.5968  2.1253  1.7519
 7656TIP3   OH244458   2.268   3.600   2.239 -1.3831  0.4898 -0.3890
 7656TIP3    H144459   2.348   3.649   2.221 -1.6396  0.9595 -0.2657
 7656TIP3    H244460   2.286   3.555   2.321 -1.0129  0.0830 -0.6895
 7657TIP3   OH244461   2.107   1.577  12.064  0.2469  0.6020  0.2824
 7657TIP3    H144462   2.097   1.597  11.971  0.2377  2.4624  0.6456
 7657TIP3    H244463   2.019   1.583  12.099 -0.0932 -2.0968  0.1218
 7658TIP3   OH244464   6.021   6.526   4.786 -0.2534 -0.0552 -0.3278
 7658TIP3    H144465   6.083   6.597   4.770  0.8347 -0.5753  1.3966
 7658TIP3    H244466   6.074   6.455   4.822 -1.4135 -1.5560 -1.4167
 7659TIP3   OH244467   4.901   6.109   1.264  0.2822 -0.1217  0.7427
 7659TIP3    H144468   4.814   6.074   1.284 -0.3887  0.1667 -1.3810
 7659TIP3    H244469   4.891   6.203   1.273 -0.0804  0.0274 -0.8918
 7660TIP3   OH244470   1.994   2.522   0.784  0.8292  0.2543  0.0142
 7660TIP3    H144471   2.064   2.510   0.718  0.9052  0.4417  0.0615
 7660TIP3    H244472   1.971   2.433   0.810  1.0147  0.1890 -0.0419
 7661TIP3   OH244473   6.373   4.894  15.887 -0.0040  0.1514  0.2301
 7661TIP3    H144474   6.382   4.802  15.862 -0.3240 -0.1724  1.2638
 7661TIP3    H244475   6.296   4.925  15.839  1.3744  0.5328 -1.8730
 7662TIP3   OH244476   4.739   2.423   0.015 -0.2456  0.6263  0.2605
 7662TIP3    H144477   4.790   2.493   0.057 -0.4105  0.9416 -0.0543
 7662TIP3    H244478   4.772   2.421  -0.075 -0.8624  0.9140  0.0219
 7663TIP3   OH244479   1.432   5.658   5.900 -0.1104 -0.0868 -0.1358
 7663TIP3    H144480   1.452   5.576   5.945  1.6473  0.1261 -0.4864
 7663TIP3    H244481   1.339   5.673   5.919  0.1656 -0.8390  2.0463
 7664TIP3   OH244482   5.612   4.347  15.033  0.3027  0.0287  0.6109
 7664TIP3    H144483   5.567   4.407  14.973  0.8898 -0.2014 -0.0784
 7664TIP3    H244484   5.700   4.386  15.043 -0.3834  1.1509  2.9125
 7665TIP3   OH244485   3.838   4.234   2.794  0.0361 -0.4952  0.0311
 7665TIP3    H144486   3.882   4.234   2.880  1.8868 -1.7098 -0.8534
 7665TIP3    H244487   3.904   4.201   2.733 -1.1345  0.6155 -1.9480
 7666TIP3   OH244488   5.494   3.416   5.311  0.1951  0.4089 -0.7240
 7666TIP3    H144489   5.560   3.439   5.376 -0.5797  0.6650 -0.0128
 7666TIP3    H244490   5.529   3.338   5.268  0.3847 -0.2228  0.5204
 7667TIP3   OH244491   1.971   5.996   2.540 -0.0130  0.2623 -0.0367
 7667TIP3    H144492   2.055   6.039   2.557  0.1763 -0.5959  1.3698
 7667TIP3    H244493   1.965   5.929   2.608 -1.6181 -0.0120 -0.4255
 7668TIP3   OH244494   5.285   0.390  12.418  0.5785  0.2140  0.1606
 7668TIP3    H144495   5.265   0.323  12.353  0.2677 -0.9738  1.4470
 7668TIP3    H244496   5.209   0.449  12.416 -0.5204 -1.1179  1.0527
 7669TIP3   OH244497   3.873   6.254  16.528 -0.1670 -0.0336  0.4558
 7669TIP3    H144498   3.902   6.344  16.511 -1.8205  0.7931  1.7684
 7669TIP3    H244499   3.798   6.242  16.471  0.3488 -0.7933 -0.0838
 7670TIP3   OH244500   4.831   5.808   3.580  0.1468 -0.1924 -0.4126
 7670TIP3    H144501   4.738   5.823   3.568  0.1794 -0.4888 -1.0825
 7670TIP3    H244502   4.859   5.763   3.500  0.9581  0.3240 -0.4363
 7671TIP3   OH244503   6.610   1.992  16.356  0.2354  0.0658  0.0343
 7671TIP3    H144504   6.649   1.928  16.414  0.2741 -0.9414 -1.0655
 7671TIP3    H244505   6.652   2.075  16.380  2.1041 -0.7554 -0.2334
 7672TIP3   OH244506   4.387   2.968   1.264  0.1502 -0.7420  0.8339
 7672TIP3    H144507   4.385   2.900   1.197 -1.8375 -1.8254  1.8736
 7672TIP3    H244508   4.460   2.944   1.321  0.8750 -0.6924 -0.0679
 7673TIP3   OH244509   4.853   6.718  16.638  0.6929 -0.0154 -0.3588
 7673TIP3    H144510   4.854   6.813  16.647 -0.9076 -0.0869  0.9859
 7673TIP3    H244511   4.781   6.700  16.578 -0.1490 -0.4495  0.7579
 7674TIP3   OH244512   4.164   3.082   2.395 -0.2440  0.0164 -0.3917
 7674TIP3    H144513   4.116   3.005   2.368  0.7211 -0.3470 -1.1389
 7674TIP3    H244514   4.198   3.061   2.482 -3.1438  1.0903  1.1482
 7675TIP3   OH244515   2.475   2.151  14.351 -0.1064  0.3829  0.0442
 7675TIP3    H144516   2.466   2.246  14.340 -0.7431  0.3851  0.5283
 7675TIP3    H244517   2.396   2.125  14.397  1.4631  0.0738  2.7741
 7676TIP3   OH244518   5.216   2.690   5.336 -0.0985 -0.3761 -0.1456
 7676TIP3    H144519   5.125   2.710   5.358 -0.0128  0.1511 -0.2467
 7676TIP3    H244520   5.224   2.713   5.244  0.4492  0.7664  0.1633
 7677TIP3   OH244521   2.473   0.368   4.118 -0.0208 -0.0483 -0.5506
 7677TIP3    H144522   2.442   0.456   4.097 -1.7329 -0.4634  0.0695
 7677TIP3    H244523   2.463   0.361   4.213  1.2877 -0.4858 -0.4364
 7678TIP3   OH244524   3.122   3.034  12.353 -0.2761 -0.1518 -0.0049
 7678TIP3    H144525   3.056   3.006  12.416 -0.4296 -0.3419 -0.2472
 7678TIP3    H244526   3.135   2.958  12.296 -0.1456  0.0218 -0.2082
 7679TIP3   OH244527   1.029   3.727   5.485 -0.0157  0.7593  1.1720
 7679TIP3    H144528   1.027   3.670   5.409 -2.2129 -1.4848  2.7391
 7679TIP3    H244529   1.028   3.815   5.449 -0.0046 -0.1892 -1.3758
 7680TIP3   OH244530   0.670   2.270  15.836  0.3928 -0.1919  0.0978
 7680TIP3    H144531   0.663   2.175  15.844 -0.5491 -0.2284 -0.9027
 7680TIP3    H244532   0.580   2.302  15.841  0.8007  0.8034  1.8754
 7681TIP3   OH244533   0.744   4.761  12.416  0.8542  0.1474 -0.0274
 7681TIP3    H144534   0.656   4.772  12.452  0.8888 -4.6396  2.2602
 7681TIP3    H244535   0.793   4.837  12.449 -1.0960  0.0525  3.6390
 7682TIP3   OH244536   4.867   0.913  11.392  0.3579 -0.0057  0.7304
 7682TIP3    H144537   4.855   0.842  11.328 -1.1042 -0.2070  1.1956
 7682TIP3    H244538   4.867   0.993  11.339  0.2711 -0.2386  0.3727
 7683TIP3   OH244539   1.819   0.583   5.767 -0.0214 -0.4741  0.0950
 7683TIP3    H144540   1.808   0.489   5.754 -0.6385 -0.2150 -1.5760
 7683TIP3    H244541   1.741   0.611   5.815 -1.6190 -0.3250 -2.4150
 7684TIP3   OH244542   5.526   2.375  16.528 -0.5245 -0.3621  0.1820
 7684TIP3    H144543   5.600   2.425  16.491 -0.4551 -0.8771 -0.3983
 7684TIP3    H244544   5.471   2.356  16.452 -0.6537 -0.9884  0.4273
 7685TIP3   OH244545   2.839   1.153  14.979  0.1193  0.4505  0.8318
 7685TIP3    H144546   2.763   1.182  14.930  0.6341  1.1386  0.4214
 7685TIP3    H244547   2.913   1.165  14.919  0.6241  0.3137  1.4085
 7686TIP3   OH244548   5.960   1.912  11.053 -0.5785  0.2626 -0.2232
 7686TIP3    H144549   5.981   2.003  11.034  1.5608 -0.5251 -2.1535
 7686TIP3    H244550   5.884   1.893  10.997 -1.0397  0.8307  0.1956
 7687TIP3   OH244551   6.436   3.356   0.344 -0.3658  0.1262 -0.4639
 7687TIP3    H144552   6.512   3.327   0.394 -0.5950  1.1913  0.5492
 7687TIP3    H244553   6.380   3.279   0.339  0.6823 -0.6165 -1.0654
 7688TIP3   OH244554   2.091   4.313  14.590  0.0398  0.2213  0.1186
 7688TIP3    H144555   2.007   4.312  14.635 -0.3390  1.6781 -0.5128
 7688TIP3    H244556   2.156   4.311  14.661 -0.4582 -2.1162  0.5872
 7689TIP3   OH244557   2.494   1.338   0.305  0.8109  0.2800  0.1941
 7689TIP3    H144558   2.578   1.368   0.271  0.9997 -0.4335  0.0058
 7689TIP3    H244559   2.429   1.378   0.248  1.0879 -0.2252 -0.4773
 7690TIP3   OH244560   4.529   1.243  12.292 -0.4653 -0.0518 -0.1668
 7690TIP3    H144561   4.524   1.149  12.311  0.7929 -0.5343 -1.9765
 7690TIP3    H244562   4.493   1.285  12.370 -1.4540 -2.0373  0.5152
 7691TIP3   OH244563   1.568   0.596   5.845 -0.0451  0.3859  0.2273
 7691TIP3    H144564   1.499   0.647   5.803 -0.1703  0.1372  0.1273
 7691TIP3    H244565   1.522   0.524   5.888  0.1682  0.0904 -0.0319
 7692TIP3   OH244566   0.062   5.217  16.154  0.9965  0.0929  0.1752
 7692TIP3    H144567  -0.008   5.178  16.207  0.5190  0.7010 -0.0025
 7692TIP3    H244568   0.123   5.145  16.139  0.0955 -0.6090 -0.2017
 7693TIP3   OH244569   4.777   4.279  14.638 -0.5901  0.7822 -0.1002
 7693TIP3    H144570   4.872   4.277  14.649 -0.4088  2.0457 -1.1759
 7693TIP3    H244571   4.761   4.357  14.585 -2.3447  1.2333  1.0289
 7694TIP3   OH244572   5.177   2.233   5.244 -0.0079 -0.5670  0.1354
 7694TIP3    H144573   5.178   2.196   5.156 -1.5415  2.1145 -1.1153
 7694TIP3    H244574   5.085   2.229   5.271 -0.5763  3.2613 -0.6398
 7695TIP3   OH244575   3.677   3.857   2.667 -0.1121 -0.5443  0.2441
 7695TIP3    H144576   3.741   3.927   2.652 -1.2916 -0.0284 -3.2187
 7695TIP3    H244577   3.707   3.815   2.748  3.6378  0.6613 -0.3058
 7696TIP3   OH244578   6.636   4.369  12.292  0.4105 -0.3160  0.2642
 7696TIP3    H144579   6.651   4.420  12.212 -0.7443  0.7053  0.6645
 7696TIP3    H244580   6.700   4.403  12.354  0.1681  0.1123  0.2863
 7697TIP3   OH244581   6.306   4.913   0.241 -0.4619  0.4956  0.3808
 7697TIP3    H144582   6.359   4.920   0.162  1.5126 -0.5719  1.5004
 7697TIP3    H244583   6.292   5.003   0.270  0.6274  0.8275 -0.0694
 7698TIP3   OH244584   1.787   0.041  15.728  0.7215 -0.4287  0.3288
 7698TIP3    H144585   1.877   0.035  15.759  0.7988  1.9691  0.7291
 7698TIP3    H244586   1.785  -0.014  15.649  2.7437  0.0463 -0.1155
 7699TIP3   OH244587   0.668   6.810   2.150  0.2755 -0.2300 -0.1525
 7699TIP3    H144588   0.719   6.729   2.145  2.6810  1.1725  0.0639
 7699TIP3    H244589   0.664   6.841   2.059  3.8471  1.8775  0.2151
 7700TIP3   OH244590   2.516   6.686  11.992  0.3732 -0.4354  0.1174
 7700TIP3    H144591   2.537   6.644  12.075 -1.6386 -1.2266  0.2851
 7700TIP3    H244592   2.481   6.772  12.016 -1.7935 -1.2989  0.2745
 7701TIP3   OH244593   6.030   1.134  14.794 -0.0988 -0.0287  0.1585
 7701TIP3    H144594   6.121   1.137  14.824 -0.3598 -2.0136  1.3331
 7701TIP3    H244595   6.036   1.115  14.700  0.6971  0.1512  0.1662
 7702TIP3   OH244596   1.020   1.307   0.404 -0.4130 -0.1964  0.3792
 7702TIP3    H144597   0.994   1.398   0.399 -0.1502 -0.1156  0.4676
 7702TIP3    H244598   0.946   1.258   0.366 -0.4566  0.0660  0.1227
 7703TIP3   OH244599   4.302   2.853   1.554 -0.6471  0.6300 -0.6700
 7703TIP3    H144600   4.252   2.934   1.537 -0.2283  1.1722  0.6101
 7703TIP3    H244601   4.378   2.859   1.496 -0.6673  1.1101 -0.6501
 7704TIP3   OH244602   5.148   2.093  14.919  0.1512 -0.0843 -0.4597
 7704TIP3    H144603   5.233   2.062  14.888  0.0232  0.1839 -1.0788
 7704TIP3    H244604   5.169   2.149  14.994  0.5154 -0.0630 -0.5775
 7705TIP3   OH244605   5.672   1.833   6.320 -0.2651  0.1514 -0.3780
 7705TIP3    H144606   5.716   1.892   6.381 -0.1329 -1.1875  0.8971
 7705TIP3    H244607   5.600   1.795   6.371 -1.0978  0.1308 -1.5373
 7706TIP3   OH244608   0.608   5.799   3.752  0.1743  0.1334 -0.2988
 7706TIP3    H144609   0.518   5.827   3.768  0.5879  1.0607  0.5107
 7706TIP3    H244610   0.649   5.873   3.709  0.2267 -0.7709 -1.8742
 7707TIP3   OH244611   5.555   6.494   2.660 -0.1525  0.1810  0.3983
 7707TIP3    H144612   5.509   6.572   2.631  0.2781  0.0986 -0.5584
 7707TIP3    H244613   5.500   6.421   2.632  0.7836  0.0577 -1.2857
 7708TIP3   OH244614   4.613   4.581   1.115  0.7324 -0.4341  0.8267
 7708TIP3    H144615   4.536   4.565   1.061  1.1966  0.1038 -0.0136
 7708TIP3    H244616   4.584   4.644   1.181  0.3559 -0.5217  0.7448
 7709TIP3   OH244617   2.564   6.604   2.680  0.2286 -0.2441  0.1042
 7709TIP3    H144618   2.511   6.669   2.634  0.3878  0.9670  1.5939
 7709TIP3    H244619   2.643   6.596   2.626 -0.7926 -1.0008 -1.3575
 7710TIP3   OH244620   0.654   6.311  11.614  0.2201  0.8232  0.1354
 7710TIP3    H144621   0.699   6.391  11.642  2.7014 -0.7039  0.8606
 7710TIP3    H244622   0.696   6.289  11.531  2.5976 -1.7900  1.8341
 7711TIP3   OH244623   6.033   6.523  16.679  0.3557 -0.2749 -0.4847
 7711TIP3    H144624   5.969   6.518  16.609 -0.2747  0.6644  0.0198
 7711TIP3    H244625   6.000   6.464  16.747  0.4623 -0.4284 -0.5645
 7712TIP3   OH244626   2.380   5.398   3.540  0.1575 -0.4392 -0.3018
 7712TIP3    H144627   2.294   5.358   3.551 -0.5731  0.6252 -1.8570
 7712TIP3    H244628   2.438   5.345   3.595 -0.9484 -2.9167 -1.3833
 7713TIP3   OH244629   3.227   6.200   3.742  0.3268  0.2182 -0.2818
 7713TIP3    H144630   3.190   6.136   3.802  3.1295 -0.6572  0.6584
 7713TIP3    H244631   3.169   6.276   3.749 -0.8145 -0.7620  1.6196
 7714TIP3   OH244632   0.427   3.774   4.597  0.2151  0.9870  0.0556
 7714TIP3    H144633   0.508   3.820   4.617  0.7458  0.9199 -1.7971
 7714TIP3    H244634   0.380   3.833   4.538 -0.5333  0.4903  0.1408
 7715TIP3   OH244635   0.005   4.033  15.964 -0.4539  0.6081 -0.4339
 7715TIP3    H144636  -0.046   3.955  15.945  2.4575 -1.8053  0.8260
 7715TIP3    H244637   0.051   4.052  15.883  0.4923 -0.4070 -0.1628
 7716TIP3   OH244638   6.265   1.762  16.051  1.0584 -0.2001 -0.6409
 7716TIP3    H144639   6.345   1.795  16.093 -0.1557  1.4273  0.5451
 7716TIP3    H244640   6.243   1.829  15.987  0.0393 -0.0571 -0.1538
 7717TIP3   OH244641   2.787   1.001  11.110  0.0889  0.3631  0.0135
 7717TIP3    H144642   2.792   0.974  11.018 -2.1925 -0.6335  0.1093
 7717TIP3    H244643   2.755   1.091  11.107 -0.0492  0.3079 -0.1608
 7718TIP3   OH244644   0.729   5.617   0.724 -0.6719 -0.1330  0.3882
 7718TIP3    H144645   0.721   5.709   0.747 -2.7922 -0.5818  1.6733
 7718TIP3    H244646   0.814   5.611   0.680  0.7349  1.9463  2.5686
 7719TIP3   OH244647   4.657   3.401  11.831  0.4043 -0.5098 -0.2136
 7719TIP3    H144648   4.733   3.350  11.804  0.3600 -0.4130 -0.5312
 7719TIP3    H244649   4.594   3.389  11.760  0.5971  0.4260 -0.5658
 7720TIP3   OH244650   6.695   0.716   6.481  0.0962  0.1830  0.6123
 7720TIP3    H144651   6.780   0.682   6.452 -0.1345  0.8743 -0.9577
 7720TIP3    H244652   6.669   0.778   6.413 -0.3924  2.0908  2.4271
 7721TIP3   OH244653   1.580   0.329  11.623 -0.1856 -0.1750 -1.2484
 7721TIP3    H144654   1.602   0.361  11.535 -0.5220 -0.7507 -1.5505
 7721TIP3    H244655   1.619   0.241  11.627 -1.0055 -0.5436 -1.1863
 7722TIP3   OH244656   3.354   6.651  15.898 -0.3970  0.5373 -0.0437
 7722TIP3    H144657   3.357   6.563  15.936 -0.0053  0.6255  0.1339
 7722TIP3    H244658   3.412   6.703  15.953  0.6167  0.5391 -1.0765
 7723TIP3   OH244659   2.689   3.319  12.436  0.4259 -0.9934  0.2935
 7723TIP3    H144660   2.745   3.368  12.495  0.3116  0.2100 -0.5430
 7723TIP3    H244661   2.749   3.271  12.379  0.6420  0.1851 -0.5122
 7724TIP3   OH244662   4.822   6.740   2.174 -0.5846  0.8435  0.2106
 7724TIP3    H144663   4.915   6.755   2.162 -0.5877  0.3589 -0.4853
 7724TIP3    H244664   4.792   6.813   2.227  0.6716 -0.3244  2.6784
 7725TIP3   OH244665   4.012   5.021  11.524 -0.7679  0.1673  0.1311
 7725TIP3    H144666   4.103   5.023  11.553 -0.1340 -0.5084 -1.6607
 7725TIP3    H244667   3.973   5.100  11.561  0.1802 -0.1576  1.9762
 7726TIP3   OH244668   3.473   3.661   2.696 -0.1601  0.4209  0.4175
 7726TIP3    H144669   3.417   3.718   2.748  0.6704  1.3966  0.2870
 7726TIP3    H244670   3.552   3.714   2.679  0.4905 -0.6445 -0.0033
 7727TIP3   OH244671   0.428   1.155   5.982 -0.3817 -0.5239  0.5517
 7727TIP3    H144672   0.408   1.172   6.075  0.3180  0.1739  0.5818
 7727TIP3    H244673   0.342   1.142   5.942 -0.7918  0.4211  1.0687
 7728TIP3   OH244674   6.425   0.512   0.023  0.1545 -0.1098  0.7126
 7728TIP3    H144675   6.434   0.522  -0.072  0.2143 -1.3759  0.5654
 7728TIP3    H244676   6.401   0.599   0.054 -1.5719 -0.0157 -0.6809
 7729TIP3   OH244677   2.619   3.994   2.086  0.3956  0.1786  0.6288
 7729TIP3    H144678   2.578   3.908   2.075 -1.6636  0.8671  2.2758
 7729TIP3    H244679   2.700   3.989   2.036 -0.8437 -1.8874 -1.3158
 7730TIP3   OH244680   2.028   0.421   2.271  0.1525  0.0515  0.5399
 7730TIP3    H144681   2.086   0.482   2.317  0.2308 -0.4930  1.1776
 7730TIP3    H244682   1.972   0.386   2.340 -0.7701  0.3739 -0.0290
 7731TIP3   OH244683   3.424   2.281  16.238 -0.0306  0.0947 -0.5285
 7731TIP3    H144684   3.351   2.327  16.278 -0.0765  0.7888 -1.3877
 7731TIP3    H244685   3.403   2.278  16.145  0.7031 -0.3261 -0.6911
 7732TIP3   OH244686   6.463   4.653  11.383 -0.1617 -0.3906  0.0753
 7732TIP3    H144687   6.394   4.718  11.390 -0.2712 -0.3347 -1.2364
 7732TIP3    H244688   6.418   4.572  11.359 -0.1718 -1.3057  2.8814
 7733TIP3   OH244689   1.764   0.221   1.586  0.3412  0.0448 -0.8042
 7733TIP3    H144690   1.828   0.285   1.618  0.4416  0.1522 -1.2229
 7733TIP3    H244691   1.728   0.182   1.666  0.6911  0.2160 -0.5597
 7734TIP3   OH244692   3.507   5.992   4.085 -0.3880 -0.1413 -0.3229
 7734TIP3    H144693   3.437   5.928   4.100  0.4366 -1.5116 -1.9462
 7734TIP3    H244694   3.564   5.949   4.021  0.1060  2.3098 -1.6401
 7735TIP3   OH244695   6.822   4.038  16.578  0.1118  0.1623 -0.3438
 7735TIP3    H144696   6.816   4.080  16.492  2.3306  1.5982  0.1375
 7735TIP3    H244697   6.904   3.989  16.575  1.4183  2.0519  1.6435
 7736TIP3   OH244698   5.636   6.717   1.051  0.1004  0.0450  0.3148
 7736TIP3    H144699   5.656   6.711   1.144 -1.1446 -1.8387  0.5223
 7736TIP3    H244700   5.713   6.681   1.007  0.5880  0.7074  0.6120
 7737TIP3   OH244701   6.024   6.792  16.780  0.4195 -0.0562 -0.0958
 7737TIP3    H144702   6.010   6.804  16.873 -2.8615  0.1242 -0.5219
 7737TIP3    H244703   6.009   6.698  16.765  0.0110  0.0835 -0.5891
 7738TIP3   OH244704   5.428   5.856   1.648 -0.0408 -0.1657  0.5786
 7738TIP3    H144705   5.504   5.910   1.666 -0.2229 -0.0866  1.1434
 7738TIP3    H244706   5.383   5.849   1.732 -1.2071  0.6486  0.0464
 7739TIP3   OH244707   2.259   2.643  14.690  0.2618  0.4441  0.1209
 7739TIP3    H144708   2.277   2.644  14.784 -1.5803  2.8733  0.5706
 7739TIP3    H244709   2.215   2.727  14.673  0.7887  0.2338 -2.9851
 7740TIP3   OH244710   0.838   3.834   0.279 -0.0754  0.1456 -1.0468
 7740TIP3    H144711   0.917   3.841   0.226 -1.1369  0.9897 -2.6120
 7740TIP3    H244712   0.820   3.923   0.308  0.6796 -0.3524  1.1199
 7741TIP3   OH244713   2.331   0.411  16.757  0.2689  0.4282 -0.0577
 7741TIP3    H144714   2.382   0.486  16.725 -0.3909  0.5524 -0.8375
 7741TIP3    H244715   2.397   0.347  16.784  0.8633  1.5000  1.1716
 7742TIP3   OH244716   5.752   5.715  11.611  0.4034  0.0731 -0.5111
 7742TIP3    H144717   5.755   5.657  11.534 -1.8068 -2.4206  1.1033
 7742TIP3    H244718   5.660   5.736  11.621  0.5547 -0.1312  1.7403
 7743TIP3   OH244719   4.554   4.401   2.731 -0.6859  0.2148 -0.0401
 7743TIP3    H144720   4.602   4.475   2.769  0.3350 -0.4285 -0.0508
 7743TIP3    H244721   4.616   4.328   2.735 -1.4783 -0.4953 -0.5703
 7744TIP3   OH244722   1.536   1.646  15.662 -0.5354 -0.1287 -0.0690
 7744TIP3    H144723   1.526   1.618  15.571  1.0992 -0.3567 -0.2050
 7744TIP3    H244724   1.578   1.732  15.656  2.0450 -1.2390  0.4403
 7745TIP3   OH244725   1.180   0.173   1.838  0.0807  0.3322  0.1490
 7745TIP3    H144726   1.102   0.197   1.787 -0.1054 -1.1375 -0.2919
 7745TIP3    H244727   1.145   0.144   1.923  0.1027 -0.6707 -0.1749
 7746TIP3   OH244728   4.742   5.392  16.532  0.0019 -0.2854  0.3005
 7746TIP3    H144729   4.655   5.396  16.492  0.5427 -1.4972 -1.0665
 7746TIP3    H244730   4.745   5.306  16.574  1.0994 -0.9383 -1.0497
 7747TIP3   OH244731   0.671   0.297   1.550  0.3940 -0.3240 -0.2569
 7747TIP3    H144732   0.583   0.270   1.523  0.1165 -0.2833  0.5793
 7747TIP3    H244733   0.677   0.389   1.523  0.9909 -0.8972 -2.2485
 7748TIP3   OH244734   6.456   6.584  17.072  0.0389  0.2088  0.3960
 7748TIP3    H144735   6.393   6.570  17.142 -2.0960  1.1880 -1.1965
 7748TIP3    H244736   6.468   6.498  17.032 -0.9485  0.1485  0.2122
 7749TIP3   OH244737   2.421   4.873   4.168 -0.1720 -0.6963 -0.7024
 7749TIP3    H144738   2.433   4.789   4.212 -3.0065 -0.3072  1.1089
 7749TIP3    H244739   2.358   4.854   4.098  0.3702 -0.3364 -1.2978
 7750TIP3   OH244740   2.985   3.515   1.404 -0.4570  0.4439  0.1942
 7750TIP3    H144741   2.907   3.567   1.418 -0.0424  1.7557 -1.8630
 7750TIP3    H244742   3.055   3.563   1.449 -0.5461  0.1592  0.6396
 7751TIP3   OH244743   1.225   3.676   6.625 -0.5741  0.0354  0.7591
 7751TIP3    H144744   1.196   3.699   6.714 -1.8048  0.8161  0.1809
 7751TIP3    H244745   1.146   3.639   6.584  0.0400 -0.4927  0.0402
 7752TIP3   OH244746   4.218   1.626  10.865  0.0724 -0.3025 -0.2308
 7752TIP3    H144747   4.189   1.578  10.787 -0.3864  0.7911 -0.7479
 7752TIP3    H244748   4.301   1.666  10.839  0.2692 -0.4952  0.0849
 7753TIP3   OH244749   4.746   2.721   3.840 -0.1328  0.1768  0.3088
 7753TIP3    H144750   4.832   2.746   3.805 -0.1699 -2.8265 -2.3514
 7753TIP3    H244751   4.691   2.798   3.824  2.0399  2.3816  2.5407
 7754TIP3   OH244752   1.332   6.182   1.678 -0.2966 -0.0280  0.3966
 7754TIP3    H144753   1.238   6.191   1.692 -0.3245 -1.4160  1.3243
 7754TIP3    H244754   1.352   6.093   1.710  0.7916 -0.9838 -2.6277
 7755TIP3   OH244755   2.555   5.216   5.371  0.1430  1.0107  0.1396
 7755TIP3    H144756   2.533   5.182   5.458 -0.1432  1.0981  0.1042
 7755TIP3    H244757   2.470   5.236   5.331  0.0698 -1.6275 -1.2422
 7756TIP3   OH244758   4.856   2.816  15.893 -0.3357  0.2897 -0.4935
 7756TIP3    H144759   4.834   2.878  15.823 -0.8216  0.0511 -0.5582
 7756TIP3    H244760   4.900   2.744  15.848 -1.3819 -0.2528 -0.6880
 7757TIP3   OH244761   4.880   6.533   3.416 -0.1708  0.2098  0.1191
 7757TIP3    H144762   4.959   6.490   3.383 -0.8975 -1.1923  0.0987
 7757TIP3    H244763   4.904   6.625   3.424  1.0418  0.0478 -1.1753
 7758TIP3   OH244764   1.488   3.886   1.913  0.7358 -0.7639  0.7567
 7758TIP3    H144765   1.426   3.957   1.897  0.7441 -0.9371 -0.1276
 7758TIP3    H244766   1.436   3.817   1.953  0.9350  0.1019  2.5975
 7759TIP3   OH244767   1.881   6.811   4.815  0.8953 -0.5372 -0.8716
 7759TIP3    H144768   1.856   6.900   4.791  1.6765  0.1460  0.6708
 7759TIP3    H244769   1.798   6.763   4.819  0.0315  0.9611  1.3985
 7760TIP3   OH244770   0.851   1.327  16.282 -0.1217  0.1431 -0.1152
 7760TIP3    H144771   0.839   1.241  16.323 -0.6629  0.2109 -0.1314
 7760TIP3    H244772   0.912   1.310  16.210  2.0350  0.2898  1.5880
 7761TIP3   OH244773   3.889   2.520   2.179 -0.2572 -0.0933  0.1216
 7761TIP3    H144774   3.896   2.503   2.273 -0.0888  0.5548  0.2260
 7761TIP3    H244775   3.956   2.586   2.162 -0.4825 -0.0031 -0.4074
 7762TIP3   OH244776   2.357   3.524   4.367 -0.1235  0.5595 -0.3132
 7762TIP3    H144777   2.357   3.568   4.282 -1.0562 -1.1615 -1.2635
 7762TIP3    H244778   2.415   3.577   4.422 -0.5300  2.4640 -1.6082
 7763TIP3   OH244779   5.299   4.332  11.267  0.0178 -0.2190  0.4423
 7763TIP3    H144780   5.376   4.323  11.210  0.4225  0.8259  0.8003
 7763TIP3    H244781   5.229   4.359  11.207  0.1462 -0.3068  0.2495
 7764TIP3   OH244782   6.579   3.724  12.468  0.1766  0.1589 -0.2379
 7764TIP3    H144783   6.650   3.708  12.406 -1.0294  0.3439 -1.7283
 7764TIP3    H244784   6.605   3.804  12.514  0.1176  1.3176 -2.0951
 7765TIP3   OH244785   1.919   2.685  16.418 -0.0884 -0.6275 -0.2875
 7765TIP3    H144786   1.925   2.779  16.403 -0.6270 -0.5562 -0.0582
 7765TIP3    H244787   1.869   2.676  16.499 -1.3800 -1.1473 -1.1064
 7766TIP3   OH244788   0.365   2.510  12.470  0.0064 -0.1405 -0.3886
 7766TIP3    H144789   0.440   2.485  12.524  1.1202  1.3113 -1.1822
 7766TIP3    H244790   0.390   2.487  12.381 -0.0281  1.2519 -0.7928
 7767TIP3   OH244791   5.120   6.401  12.798  0.1610 -0.0210  0.3056
 7767TIP3    H144792   5.157   6.322  12.760  0.7222  1.1628 -1.7831
 7767TIP3    H244793   5.182   6.425  12.868  1.1985 -0.2432 -0.5080
 7768TIP3   OH244794   1.904   4.472   3.557  0.0768 -0.1164  0.1818
 7768TIP3    H144795   1.958   4.470   3.478  1.3982  0.5225  1.0291
 7768TIP3    H244796   1.905   4.382   3.589  2.9077  0.2876  1.5899
 7769TIP3   OH244797   5.850   5.784   0.203 -0.0397 -0.2706 -0.4034
 7769TIP3    H144798   5.848   5.688   0.205 -2.4048 -0.3288 -1.8503
 7769TIP3    H244799   5.788   5.810   0.271  0.0452  0.2187 -0.5132
 7770TIP3   OH244800   5.290   5.135   4.983  0.2664 -0.2155  0.1293
 7770TIP3    H144801   5.229   5.127   5.057  1.7711  0.1229  1.4542
 7770TIP3    H244802   5.343   5.055   4.986  0.7739  0.1029 -0.1868
 7771TIP3   OH244803   3.347   6.161  16.008 -0.1121 -0.2037 -0.5644
 7771TIP3    H144804   3.351   6.255  16.028 -0.9991 -0.0857 -0.9073
 7771TIP3    H244805   3.413   6.148  15.940 -0.9928  0.4643 -1.5754
 7772TIP3   OH244806   3.812   5.160   2.673  0.0470  0.5963 -0.4838
 7772TIP3    H144807   3.902   5.190   2.665 -0.0333  0.7036 -1.0420
 7772TIP3    H244808   3.774   5.173   2.586 -0.4492  0.3642 -0.3103
 7773TIP3   OH244809   4.412   4.207   3.867  0.0342 -0.6414  0.1986
 7773TIP3    H144810   4.317   4.209   3.876 -0.3097 -0.6350 -2.5971
 7773TIP3    H244811   4.429   4.135   3.808  1.5307  0.8617 -1.3116
 7774TIP3   OH244812   1.096   3.668   5.192  0.1508 -0.2448  0.1800
 7774TIP3    H144813   1.018   3.613   5.190 -0.1006  0.0882 -1.6801
 7774TIP3    H244814   1.064   3.755   5.165  1.2115 -0.2417 -1.2024
 7775TIP3   OH244815   5.725   5.399   3.765 -0.4034  0.4363  0.3285
 7775TIP3    H144816   5.800   5.340   3.765 -1.4312 -0.9336 -0.8603
 7775TIP3    H244817   5.745   5.462   3.695 -0.4845 -0.0890 -0.1717
 7776TIP3   OH244818   0.922   4.554   2.328 -0.3169 -0.5071  0.8674
 7776TIP3    H144819   0.925   4.635   2.379  2.2724 -0.7147  1.1781
 7776TIP3    H244820   0.844   4.508   2.360 -0.5396  0.8159  2.3434
 7777TIP3   OH244821   6.054   3.284  11.213 -0.5267 -0.0829  0.2755
 7777TIP3    H144822   5.988   3.328  11.160 -0.0040 -0.5587 -0.8034
 7777TIP3    H244823   6.011   3.203  11.242 -0.2835 -0.6459 -0.8567
 7778TIP3   OH244824   2.010   6.573   5.829  0.2727  0.7330  0.3077
 7778TIP3    H144825   2.047   6.565   5.741  2.1708  0.9437  1.0488
 7778TIP3    H244826   2.014   6.667   5.848  1.3207  0.5300  1.1869
 7779TIP3   OH244827   6.203   2.453  13.308 -0.1158  0.2552  0.2910
 7779TIP3    H144828   6.121   2.501  13.309  0.4151  1.2011  2.2030
 7779TIP3    H244829   6.251   2.483  13.385  1.3024 -1.5363  0.2048
 7780TIP3   OH244830   5.727   3.639  13.322 -0.3953  0.3416  0.2766
 7780TIP3    H144831   5.757   3.593  13.244  2.9390  1.6895  0.5689
 7780TIP3    H244832   5.762   3.588  13.395  1.0439  1.7754  0.6588
 7781TIP3   OH244833   3.123   6.061   3.437 -0.3783  0.3679 -0.1348
 7781TIP3    H144834   3.165   5.980   3.466 -0.4993 -0.8892 -3.0382
 7781TIP3    H244835   3.180   6.131   3.468  0.2631 -0.8810  1.6312
 7782TIP3   OH244836   5.838   6.566   0.317 -0.0928 -0.0904 -0.4712
 7782TIP3    H144837   5.925   6.535   0.342 -0.4759 -0.1776  0.7939
 7782TIP3    H244838   5.816   6.633   0.381 -0.3808  0.9542 -1.6296
 7783TIP3   OH244839   5.557   5.466  15.657  0.1363 -0.4054 -0.8859
 7783TIP3    H144840   5.551   5.419  15.574  1.1473  0.4744 -1.4887
 7783TIP3    H244841   5.650   5.488  15.666 -0.3596  2.0556 -0.9952
 7784TIP3   OH244842   4.262   3.715  15.578  0.2705 -0.2909  0.2608
 7784TIP3    H144843   4.302   3.785  15.629  0.2590 -0.0970  0.0018
 7784TIP3    H244844   4.333   3.680  15.525  0.2400 -0.3713  0.2708
 7785TIP3   OH244845   6.549   3.013  13.581  0.2731  0.2303  0.1129
 7785TIP3    H144846   6.614   2.959  13.626 -2.0385 -1.3806  1.8451
 7785TIP3    H244847   6.472   3.008  13.638 -1.4857  1.6886 -1.9879
 7786TIP3   OH244848   4.230   0.260  11.673  0.1613  0.1685  0.1395
 7786TIP3    H144849   4.285   0.196  11.718 -1.4045 -0.8890  0.6404
 7786TIP3    H244850   4.278   0.280  11.593  1.2237 -0.7943  0.4995
 7787TIP3   OH244851   0.191   4.315  11.818  0.0537 -0.3619  0.0945
 7787TIP3    H144852   0.168   4.276  11.903  0.2841 -2.7012 -0.8440
 7787TIP3    H244853   0.121   4.287  11.759  0.5883  0.1032 -0.7791
 7788TIP3   OH244854   0.616   2.695  10.604  0.2260 -0.3289  0.0847
 7788TIP3    H144855   0.670   2.674  10.680 -2.3539 -0.2956  2.0786
 7788TIP3    H244856   0.634   2.788  10.586  2.0141 -0.7379 -0.4190
 7789TIP3   OH244857   0.191   3.402   6.357 -0.3521 -0.5095 -0.2629
 7789TIP3    H144858   0.173   3.309   6.347  1.5110 -0.8894 -0.4720
 7789TIP3    H244859   0.284   3.406   6.378 -0.0875  1.3863 -1.5705
 7790TIP3   OH244860   5.276   4.492  11.493  0.8362 -0.4222 -0.2451
 7790TIP3    H144861   5.194   4.470  11.536  1.0649 -0.4147  0.2011
 7790TIP3    H244862   5.279   4.435  11.416  0.3331 -0.2948 -0.3644
 7791TIP3   OH244863   0.931   1.069  12.745 -0.2747  0.0714  0.2021
 7791TIP3    H144864   0.862   1.003  12.749 -1.2480  1.0779  0.5033
 7791TIP3    H244865   0.945   1.094  12.837  1.2537 -0.8645  0.2550
 7792TIP3   OH244866   5.185   6.053   2.505 -0.4342  0.1168 -0.0604
 7792TIP3    H144867   5.251   5.992   2.537 -2.2390 -1.5052  0.7747
 7792TIP3    H244868   5.166   6.109   2.580 -1.4321 -0.7566  0.3643
 7793TIP3   OH244869   5.342   4.781   6.333 -0.4138  1.0930 -0.1383
 7793TIP3    H144870   5.283   4.825   6.272 -0.6515 -0.1042 -0.7963
 7793TIP3    H244871   5.295   4.702   6.360  0.6605  0.3891 -0.2720
 7794TIP3   OH244872   0.878   2.495   3.994  0.2773 -0.5025 -0.4290
 7794TIP3    H144873   0.940   2.496   3.921  2.8998  1.2712  1.6494
 7794TIP3    H244874   0.909   2.563   4.054 -3.6913  0.5053  0.8371
 7795TIP3   OH244875   6.393   5.733  12.925 -0.9730  0.3888  0.1661
 7795TIP3    H144876   6.343   5.715  12.845 -0.2537  0.0810 -0.2158
 7795TIP3    H244877   6.400   5.829  12.927 -1.5493  0.4367  0.2115
 7796TIP3   OH244878   3.908   4.774   5.672 -0.0774  0.1139 -0.1524
 7796TIP3    H144879   3.847   4.759   5.599 -0.2678 -0.5937  0.1456
 7796TIP3    H244880   3.994   4.754   5.636  0.0236  1.3577 -0.6481
 7797TIP3   OH244881   5.177   5.682   4.027 -0.5285  0.0592  0.2976
 7797TIP3    H144882   5.086   5.706   4.008 -0.4061 -0.6661 -1.3651
 7797TIP3    H244883   5.228   5.760   4.003 -0.6598  0.3853  1.0228
 7798TIP3   OH244884   0.128   4.977  16.726 -0.1819  0.9065  0.5974
 7798TIP3    H144885   0.052   5.018  16.683 -0.9320  0.0340  1.0642
 7798TIP3    H244886   0.159   4.913  16.662 -0.2243  0.8301  0.6530
 7799TIP3   OH244887   1.435   1.276  14.943  0.0090 -0.1196 -0.2600
 7799TIP3    H144888   1.346   1.307  14.961  0.3513  1.3873 -0.9584
 7799TIP3    H244889   1.432   1.250  14.851 -0.1163 -1.6723  0.1630
 7800TIP3   OH244890   3.811   5.044  17.171 -0.4986 -0.0952 -0.2244
 7800TIP3    H144891   3.797   4.991  17.249  0.2688  1.9698  1.4219
 7800TIP3    H244892   3.851   5.125  17.204 -1.5690  1.5103 -2.5654
 7801TIP3   OH244893   0.111   1.099  16.526 -0.1879 -0.0367 -0.0540
 7801TIP3    H144894   0.095   1.084  16.620 -0.0041  0.5958  0.0759
 7801TIP3    H244895   0.183   1.161  16.523  0.1474 -0.4466 -0.6275
 7802TIP3   OH244896   1.213   6.483   6.381  0.1058  0.2380 -0.1791
 7802TIP3    H144897   1.243   6.449   6.296  1.8746 -0.7544  0.7862
 7802TIP3    H244898   1.288   6.532   6.414 -0.5376  0.5335  0.8591
 7803TIP3   OH244899   6.256   2.318   5.675  0.3337 -0.1190 -0.4610
 7803TIP3    H144900   6.342   2.293   5.709 -0.5305 -2.5989  0.1159
 7803TIP3    H244901   6.266   2.317   5.580  1.5770  2.3200 -0.4344
 7804TIP3   OH244902   0.778   0.280   1.196 -0.8512  0.2412  0.8449
 7804TIP3    H144903   0.724   0.302   1.272  1.1750  0.5303  2.2864
 7804TIP3    H244904   0.834   0.357   1.184 -0.6093 -0.1191 -0.4775
 7805TIP3   OH244905   2.940   2.714   5.026 -0.7752  0.2844  0.3594
 7805TIP3    H144906   2.992   2.770   5.083 -1.0773  0.5552  0.3753
 7805TIP3    H244907   2.890   2.658   5.086 -0.5904  0.1015  0.3453
 7806TIP3   OH244908   6.124   4.718  15.100 -0.9703 -0.1016  0.1195
 7806TIP3    H144909   6.166   4.654  15.158 -2.0659  0.6858  1.8733
 7806TIP3    H244910   6.057   4.668  15.052  1.2178 -1.1703 -2.0243
 7807TIP3   OH244911   4.284   1.734   1.939  0.9516  0.2570  0.4715
 7807TIP3    H144912   4.322   1.725   1.851  0.2588 -0.3028  0.2185
 7807TIP3    H244913   4.326   1.664   1.990  1.8777  1.0231  0.7876
 7808TIP3   OH244914   1.721   0.002   2.292 -0.5540 -0.0199 -0.0061
 7808TIP3    H144915   1.636  -0.038   2.275 -1.4912  2.3912 -1.3913
 7808TIP3    H244916   1.772  -0.014   2.212 -0.2233 -0.1456  0.2259
 7809TIP3   OH244917   0.984   0.383   0.289  0.9293 -0.1861 -0.1246
 7809TIP3    H144918   0.890   0.366   0.293  0.9112 -0.2387 -0.8102
 7809TIP3    H244919   1.019   0.341   0.368  0.0846  1.7609  1.3533
 7810TIP3   OH244920   4.769   1.596   4.947 -0.2018  0.0493 -0.2271
 7810TIP3    H144921   4.819   1.540   5.007  0.7551  0.9400 -0.1613
 7810TIP3    H244922   4.792   1.685   4.974 -1.8926  0.5030 -0.1567
 7811TIP3   OH244923   1.301   6.510  14.507 -0.1796 -0.3515  0.0902
 7811TIP3    H144924   1.374   6.461  14.546  0.1844 -1.2962 -1.6930
 7811TIP3    H244925   1.223   6.469  14.543  0.1358 -0.2196  0.9660
 7812TIP3   OH244926   5.547   5.973  11.495 -0.2971 -0.1542 -0.5419
 7812TIP3    H144927   5.496   6.043  11.453  1.6027  2.0159  0.5618
 7812TIP3    H244928   5.616   6.019  11.543  0.1555 -2.7434  1.5061
 7813TIP3   OH244929   5.459   6.623  15.416 -0.1677 -0.3378  0.5163
 7813TIP3    H144930   5.376   6.663  15.392  0.9487  2.2737  0.6314
 7813TIP3    H244931   5.518   6.644  15.344  0.4872 -1.9899  0.5147
 7814TIP3   OH244932   3.443   1.381  11.656 -0.3286  0.3252  0.5158
 7814TIP3    H144933   3.516   1.321  11.667  0.6092  0.8262 -2.2292
 7814TIP3    H244934   3.481   1.458  11.615 -1.7772  2.2670  2.5500
 7815TIP3   OH244935   0.176   0.701  17.097  0.0977  0.2543  0.2395
 7815TIP3    H144936   0.171   0.712  17.192 -0.2186 -2.3606  0.5892
 7815TIP3    H244937   0.134   0.780  17.061  1.5691  2.0261  2.1843
 7816TIP3   OH244938   4.850   0.907  12.628  0.0125  0.4721  0.2280
 7816TIP3    H144939   4.904   0.961  12.570 -0.3264 -0.4057 -0.9523
 7816TIP3    H244940   4.808   0.844  12.569 -2.4846  1.2686  1.0652
 7817TIP3   OH244941   5.768   6.415  10.648 -0.1965  0.5193  0.2846
 7817TIP3    H144942   5.758   6.417  10.743  0.6116  2.3616  0.3636
 7817TIP3    H244943   5.855   6.379  10.633  0.5911  2.3170  0.3607
 7818TIP3   OH244944   6.061   5.997  11.331 -0.3948 -0.1675  0.0575
 7818TIP3    H144945   6.017   5.948  11.400 -0.0375  0.7330  0.9507
 7818TIP3    H244946   6.107   6.067  11.377 -0.3847  0.6340 -1.1261
 7819TIP3   OH244947   2.285   3.300   5.349  0.7298  0.4913  0.0966
 7819TIP3    H144948   2.243   3.230   5.300  0.5301  2.0492 -2.0867
 7819TIP3    H244949   2.378   3.292   5.328  0.8479  0.3000  0.6592
 7820TIP3   OH244950   5.813   2.724  15.712  0.0388 -0.0032 -0.1201
 7820TIP3    H144951   5.901   2.702  15.741 -0.0000  1.4639  1.2181
 7820TIP3    H244952   5.824   2.805  15.662 -0.5328  0.1227 -0.0518
 7821TIP3   OH244953   0.862   0.409  16.119  0.1067 -0.7859 -0.2037
 7821TIP3    H144954   0.953   0.409  16.088 -0.0151  2.0743 -0.7875
 7821TIP3    H244955   0.814   0.362  16.051  0.7136  0.4869 -1.5612
 7822TIP3   OH244956   4.612   4.792  14.849 -0.0846  0.0380 -0.1123
 7822TIP3    H144957   4.562   4.784  14.931  0.2856 -3.6241 -0.0518
 7822TIP3    H244958   4.572   4.727  14.791  1.6537  0.3484 -1.7334
 7823TIP3   OH244959   3.940   3.104   0.733  0.4980 -0.0911 -0.1158
 7823TIP3    H144960   3.962   3.128   0.823 -0.3975  1.6026 -0.3055
 7823TIP3    H244961   4.002   3.152   0.678 -1.2215  1.8917 -0.4924
 7824TIP3   OH244962   1.966   4.413   4.966  0.1354 -0.4103  0.3511
 7824TIP3    H144963   2.007   4.361   5.035 -0.1985 -0.4647  0.5128
 7824TIP3    H244964   1.872   4.401   4.981  0.0503 -1.3079 -0.7658
 7825TIP3   OH244965   3.962   3.459   3.173  0.1578 -0.4859  0.7572
 7825TIP3    H144966   3.935   3.367   3.162 -0.3666 -0.1005 -2.1433
 7825TIP3    H244967   4.057   3.457   3.162  0.2593 -0.7901  1.6689
 7826TIP3   OH244968   1.137   0.671  12.051 -0.1318 -1.1937  0.7275
 7826TIP3    H144969   1.126   0.610  11.979  2.9874 -0.6476 -0.3568
 7826TIP3    H244970   1.140   0.616  12.129 -4.1430 -1.7544  0.6933
 7827TIP3   OH244971   6.638   5.273   0.992  0.5256  0.7220 -0.5064
 7827TIP3    H144972   6.565   5.212   1.005  0.8481  0.0608 -1.7268
 7827TIP3    H244973   6.608   5.354   1.034 -0.8654  0.4244 -0.8545
 7828TIP3   OH244974   1.347   1.884   1.162 -0.3004  0.3710  0.5604
 7828TIP3    H144975   1.440   1.881   1.184 -0.7753  0.2167  2.7952
 7828TIP3    H244976   1.307   1.820   1.221 -1.7424 -0.2204 -0.9746
 7829TIP3   OH244977   3.773   4.944  12.278 -0.2709  0.4686 -0.2767
 7829TIP3    H144978   3.841   4.925  12.214  0.8359  0.8565  0.7500
 7829TIP3    H244979   3.821   4.960  12.360 -1.5480  1.4895  0.2989
 7830TIP3   OH244980   1.730   5.672   2.381  0.5414 -0.1607  0.5323
 7830TIP3    H144981   1.673   5.665   2.457  0.8123 -0.2086  0.7309
 7830TIP3    H244982   1.819   5.660   2.415  0.7081  0.3412  0.2916
 7831TIP3   OH244983   0.367   0.049  15.791  0.0754 -0.2428  0.0693
 7831TIP3    H144984   0.304   0.016  15.854  0.6364 -1.1843  0.1558
 7831TIP3    H244985   0.315   0.103  15.731 -0.8898 -1.2910 -0.0775
 7832TIP3   OH244986   4.296   1.851   6.172 -0.3908  0.0493  0.2969
 7832TIP3    H144987   4.351   1.794   6.119 -1.4332  0.0533 -0.8196
 7832TIP3    H244988   4.211   1.808   6.174 -0.4662  0.2169  1.7196
 7833TIP3   OH244989   1.515   3.485  11.101 -0.3138 -0.5420 -0.0757
 7833TIP3    H144990   1.507   3.541  11.178 -0.2141  0.3728 -0.7208
 7833TIP3    H244991   1.443   3.510  11.044  3.2879  3.8803 -3.4349
 7834TIP3   OH244992   4.419   6.541   0.175 -0.1354 -0.0906  0.2001
 7834TIP3    H144993   4.406   6.539   0.270 -0.2564  1.6861  0.2661
 7834TIP3    H244994   4.341   6.586   0.142  0.1339 -0.2653 -0.6910
 7835TIP3   OH244995   0.658   5.021   4.812  0.8377 -0.2618  0.7117
 7835TIP3    H144996   0.729   5.080   4.786  1.2143 -0.4657  1.2653
 7835TIP3    H244997   0.600   5.076   4.865  0.3720  0.0038 -0.0492
 7836TIP3   OH244998   5.057   4.716  15.352  0.3888  0.2904 -0.6507
 7836TIP3    H144999   5.125   4.745  15.413  1.3896 -0.0447 -1.5850
 7836TIP3    H245000   5.096   4.641  15.307 -0.6943 -0.0547 -1.0368
 7837TIP3   OH245001   1.486   2.983   1.390 -0.1177 -0.3390  0.3259
 7837TIP3    H145002   1.505   3.063   1.342 -2.2555  0.5875  0.8928
 7837TIP3    H245003   1.474   3.011   1.481 -0.3224 -1.3729  0.6347
 7838TIP3   OH245004   5.715   1.675   0.120 -0.3271 -0.8091 -0.0749
 7838TIP3    H145005   5.795   1.673   0.067 -0.8567 -1.0316 -0.8949
 7838TIP3    H245006   5.658   1.737   0.074 -0.2618  0.1337  1.0693
 7839TIP3   OH245007   6.023   3.655  12.692 -0.2245  0.2377  0.3321
 7839TIP3    H145008   5.967   3.730  12.670  2.4835  2.3718  0.1545
 7839TIP3    H245009   6.038   3.612  12.608 -2.8512 -1.4739  0.6039
 7840TIP3   OH245010   4.588   3.777   3.342 -0.0405 -0.4027  0.1305
 7840TIP3    H145011   4.604   3.742   3.430 -2.3416  0.8435  1.1405
 7840TIP3    H245012   4.507   3.734   3.313 -0.0008  0.1322 -0.8262
 7841TIP3   OH245013   2.399   3.498  14.276 -0.2625  0.0401 -0.1330
 7841TIP3    H145014   2.382   3.419  14.328  0.8965  0.7863  1.4532
 7841TIP3    H245015   2.459   3.469  14.208 -0.7491 -0.6751 -0.2762
 7842TIP3   OH245016   4.240   2.694  12.474  0.0778  0.0309 -0.0915
 7842TIP3    H145017   4.207   2.783  12.481 -0.5769 -0.1886 -0.3058
 7842TIP3    H245018   4.172   2.647  12.425  0.2468 -0.6646  0.3204
 7843TIP3   OH245019   5.555   4.299   3.510  0.5803 -0.1911 -0.4709
 7843TIP3    H145020   5.584   4.209   3.523 -2.2881 -1.1759 -0.1954
 7843TIP3    H245021   5.603   4.350   3.575 -0.8805 -2.2862  2.4603
 7844TIP3   OH245022   2.282   1.498  10.748 -0.6145 -0.7176 -0.5655
 7844TIP3    H145023   2.241   1.559  10.686 -1.1658  1.0591  1.4102
 7844TIP3    H245024   2.257   1.411  10.717 -1.8163  0.1420 -2.1548
 7845TIP3   OH245025   6.437   4.492   0.412 -0.3267 -0.3079 -0.0359
 7845TIP3    H145026   6.488   4.551   0.357 -0.1310 -1.5848 -1.2526
 7845TIP3    H245027   6.346   4.506   0.384 -0.3910  0.0911  0.3488
 7846TIP3   OH245028   1.335   4.602  11.360  0.6488  0.1818 -0.5189
 7846TIP3    H145029   1.373   4.659  11.427 -0.7870  3.4686 -2.2817
 7846TIP3    H245030   1.380   4.626  11.279 -0.6444 -0.5068 -1.4887
 7847TIP3   OH245031   0.205   4.425   3.999 -0.2030 -0.1043 -0.2245
 7847TIP3    H145032   0.241   4.353   4.053 -0.0766  0.8159  0.9645
 7847TIP3    H245033   0.121   4.446   4.040 -0.0213  0.7348 -0.2681
 7848TIP3   OH245034   3.364   1.326   3.415  0.1251 -0.5308  0.0652
 7848TIP3    H145035   3.296   1.361   3.474 -0.9020 -0.8354 -0.9013
 7848TIP3    H245036   3.338   1.236   3.399  1.6517 -1.1569  0.9180
 7849TIP3   OH245037   5.945   0.322  13.685  0.2400 -0.5499 -0.0357
 7849TIP3    H145038   5.876   0.312  13.751 -0.7243  1.2069 -0.7125
 7849TIP3    H245039   6.026   0.330  13.736 -0.3672 -0.1709  0.8871
 7850TIP3   OH245040   1.155   1.721   0.003  0.8195  0.0189  0.4911
 7850TIP3    H145041   1.222   1.675   0.054  2.1258  0.5740 -0.6685
 7850TIP3    H245042   1.161   1.684  -0.085 -0.1906  0.3079  0.2886
 7851TIP3   OH245043   6.293   3.456  13.272  0.1680  0.6294 -0.5067
 7851TIP3    H145044   6.345   3.534  13.288 -1.0435  1.4498 -0.4740
 7851TIP3    H245045   6.318   3.396  13.343  0.4993  1.2935 -0.0565
 7852TIP3   OH245046   3.787   4.915   6.111  0.3417 -0.4769 -0.3280
 7852TIP3    H145047   3.780   4.838   6.168 -1.0379 -0.2543 -0.1608
 7852TIP3    H245048   3.858   4.894   6.051  0.2244 -1.7426 -0.0560
 7853TIP3   OH245049   4.829   3.611   3.603 -0.3489  0.6467  0.2299
 7853TIP3    H145050   4.855   3.570   3.685 -0.4658 -1.2175 -0.6262
 7853TIP3    H245051   4.911   3.617   3.552 -0.9128 -2.1476 -1.1491
 7854TIP3   OH245052   1.104   5.612  15.941 -0.2388 -0.0997 -0.1785
 7854TIP3    H145053   1.087   5.518  15.952  0.8071 -0.3806 -0.7872
 7854TIP3    H245054   1.026   5.645  15.897 -0.7858 -0.6067  0.3924
 7855TIP3   OH245055   0.155   5.500   3.777  0.2895 -0.2307  0.4596
 7855TIP3    H145056   0.164   5.563   3.848  3.3654 -0.1790  0.1457
 7855TIP3    H245057   0.165   5.415   3.820  2.9732 -0.1796  0.1388
 7856TIP3   OH245058   3.503   0.177  15.822  0.5668 -0.2397 -0.5557
 7856TIP3    H145059   3.567   0.174  15.752 -0.6170 -1.8862 -1.6453
 7856TIP3    H245060   3.429   0.127  15.789 -0.2273 -0.6694  1.7020
 7857TIP3   OH245061   3.961   0.728   4.275 -0.0613 -0.3836 -0.1558
 7857TIP3    H145062   3.941   0.815   4.241 -0.5331 -1.3346 -2.5927
 7857TIP3    H245063   3.876   0.690   4.296  0.0351 -0.6470 -0.2289
 7858TIP3   OH245064   3.353   6.421  14.757 -0.0184 -0.1077  0.2955
 7858TIP3    H145065   3.365   6.395  14.848 -1.4365 -0.5582  0.3762
 7858TIP3    H245066   3.407   6.500  14.748  2.2915 -1.5307  0.7493
 7859TIP3   OH245067   3.159   0.077  13.235  0.2938  0.2438  0.0692
 7859TIP3    H145068   3.229   0.114  13.181  0.3518 -0.7104 -0.5429
 7859TIP3    H245069   3.196   0.074  13.323  0.0065  2.3246  0.3138
 7860TIP3   OH245070   5.824   4.717   4.442  0.5794 -0.5234 -0.0121
 7860TIP3    H145071   5.729   4.724   4.430  0.1572 -2.1490  1.8386
 7860TIP3    H245072   5.852   4.806   4.466 -0.4444 -0.0100 -0.6470
 7861TIP3   OH245073   0.520   1.821   4.472  0.0554 -0.2829 -0.5488
 7861TIP3    H145074   0.598   1.816   4.418 -1.0572 -4.5456 -2.2033
 7861TIP3    H245075   0.453   1.858   4.414  0.3443  1.4905  0.2117
 7862TIP3   OH245076   6.081   6.108   0.201 -0.0505  0.6710 -0.3508
 7862TIP3    H145077   5.987   6.116   0.182 -0.4973  1.0089  1.7997
 7862TIP3    H245078   6.123   6.152   0.127 -1.5296 -0.0222 -1.6801
 7863TIP3   OH245079   4.051   5.743  16.524  0.1874 -0.3800  0.2836
 7863TIP3    H145080   4.080   5.653  16.509 -1.1710 -0.9139  0.7077
 7863TIP3    H245081   4.017   5.772  16.439  0.0854 -0.4834  0.2898
 7864TIP3   OH245082   5.387   1.459   4.311 -0.1639 -0.5919  0.4489
 7864TIP3    H145083   5.478   1.476   4.335  0.0095 -1.2184  0.2679
 7864TIP3    H245084   5.378   1.364   4.322 -0.6377 -0.6080 -0.0678
 7865TIP3   OH245085   2.142   3.398  14.848  0.6218 -0.1106 -0.0751
 7865TIP3    H145086   2.207   3.456  14.886  0.5616  0.2058 -0.4496
 7865TIP3    H245087   2.143   3.417  14.754 -2.1123  2.0871  0.2036
 7866TIP3   OH245088   3.047   1.585   0.672 -0.0542  0.4368  0.5641
 7866TIP3    H145089   3.044   1.577   0.768  0.0258  0.4006  0.5637
 7866TIP3    H245090   2.966   1.630   0.649 -1.6576 -2.3584  0.3711
 7867TIP3   OH245091   4.358   2.749  15.939  0.5325 -0.8642 -0.1442
 7867TIP3    H145092   4.337   2.836  15.906 -0.5281 -0.7126  0.8365
 7867TIP3    H245093   4.453   2.748  15.947  0.5066  0.5719  0.7607
 7868TIP3   OH245094   0.453   6.494  16.782  0.3726  0.6347  0.3696
 7868TIP3    H145095   0.378   6.472  16.838  0.3452 -1.4052 -0.3813
 7868TIP3    H245096   0.528   6.493  16.841 -0.0047  1.4266  0.8877
 7869TIP3   OH245097   4.141   5.308  15.182 -0.2727 -0.2522 -0.1336
 7869TIP3    H145098   4.228   5.345  15.164 -0.4760  0.1604 -0.2808
 7869TIP3    H245099   4.145   5.220  15.144 -0.6101  0.5102 -2.0840
 7870TIP3   OH245100   1.930   2.306   0.987  0.0545  0.0022 -0.3756
 7870TIP3    H145101   1.940   2.211   0.985  1.6609  0.1609 -1.5534
 7870TIP3    H245102   2.017   2.338   1.010 -0.4168  1.2094 -0.2234
 7871TIP3   OH245103   1.619   4.396   1.428  0.0756 -0.2863  0.3992
 7871TIP3    H145104   1.555   4.410   1.358 -0.1998 -0.4835  0.6108
 7871TIP3    H245105   1.567   4.392   1.508  0.2153 -1.7478  0.4332
 7872TIP3   OH245106   4.975   3.373  14.953  0.6561 -0.5024  0.5685
 7872TIP3    H145107   5.057   3.373  15.003  0.5585 -1.0111  0.7465
 7872TIP3    H245108   4.927   3.298  14.989  0.3546 -0.5461  0.0774
 7873TIP3   OH245109   4.561   0.917  12.677  0.3959  0.1307  0.0502
 7873TIP3    H145110   4.621   0.991  12.677 -1.3920  1.6395  0.9881
 7873TIP3    H245111   4.514   0.923  12.760  0.1183 -2.0254  0.1272
 7874TIP3   OH245112   2.300   1.088  12.781 -0.7607 -0.1121  0.0359
 7874TIP3    H145113   2.227   1.149  12.783 -2.2262 -1.7497  2.4462
 7874TIP3    H245114   2.303   1.057  12.690 -2.7786  0.3598 -0.2389
 7875TIP3   OH245115   5.920   2.834   0.471 -0.3980  0.5439 -0.2822
 7875TIP3    H145116   5.870   2.914   0.486 -0.6041  0.5377 -0.8898
 7875TIP3    H245117   5.932   2.830   0.376  0.1742  0.1914 -0.2067
 7876TIP3   OH245118   1.779   4.366  14.966  0.6742  0.1833  0.1080
 7876TIP3    H145119   1.774   4.306  15.040 -0.5596 -0.1339 -0.2037
 7876TIP3    H245120   1.691   4.404  14.960  1.1009  1.1070 -0.4433
 7877TIP3   OH245121   1.665   5.246  12.977  0.2726  0.5314  0.4749
 7877TIP3    H145122   1.712   5.252  12.894  0.5916  1.3859  0.6975
 7877TIP3    H245123   1.735   5.243  13.043  0.0842 -2.1363  0.6592
 7878TIP3   OH245124   5.867   0.384   6.106 -0.5065  0.6701 -0.0676
 7878TIP3    H145125   5.853   0.469   6.065 -4.1074 -0.4712 -1.5153
 7878TIP3    H245126   5.798   0.377   6.172  0.3811 -0.7308  0.7612
 7879TIP3   OH245127   1.204   2.883  12.097  0.2629  0.1833  0.0467
 7879TIP3    H145128   1.199   2.807  12.155 -0.0647  0.0161 -0.1932
 7879TIP3    H245129   1.118   2.887  12.055 -1.1499  2.9498  2.8388
 7880TIP3   OH245130   5.304   1.140   5.886 -0.2384 -0.0560 -0.1659
 7880TIP3    H145131   5.233   1.196   5.854 -0.9866 -0.4426  0.7438
 7880TIP3    H245132   5.261   1.083   5.951  1.3736  1.5611  2.5091
 7881TIP3   OH245133   0.292   3.980  16.802 -0.1809 -0.4145  0.7282
 7881TIP3    H145134   0.245   3.934  16.732  0.0473  0.1777  0.1751
 7881TIP3    H245135   0.380   3.943  16.801  0.8733  1.8494 -1.5662
 7882TIP3   OH245136   3.134   4.163  11.177 -0.0108 -0.0564  0.2820
 7882TIP3    H145137   3.134   4.204  11.264 -0.2557 -1.7515  1.1231
 7882TIP3    H245138   3.227   4.150  11.158  0.2351  2.7796 -1.0051
 7883TIP3   OH245139   4.312   3.255   1.205  0.1291  0.9679 -0.1430
 7883TIP3    H145140   4.362   3.324   1.248  1.7503  0.7268 -1.5583
 7883TIP3    H245141   4.371   3.180   1.201 -0.8902  0.1485 -0.4614
 7884TIP3   OH245142   1.160   5.027   6.563 -0.1805  0.4570  0.1661
 7884TIP3    H145143   1.255   5.015   6.566 -0.1668  0.7179  0.8682
 7884TIP3    H245144   1.142   5.097   6.625 -0.6606  1.5836 -1.1884
 7885TIP3   OH245145   4.863   1.114   0.545 -0.0642  0.8598 -0.1303
 7885TIP3    H145146   4.777   1.078   0.522  0.0199  1.0773 -0.8084
 7885TIP3    H245147   4.844   1.181   0.611 -0.3231  0.3149  0.3591
 7886TIP3   OH245148   0.679   3.640  14.101  0.1602 -0.5034 -0.2726
 7886TIP3    H145149   0.687   3.732  14.128  0.2575  0.0315 -2.0408
 7886TIP3    H245150   0.722   3.591  14.171 -0.1508  0.7612  0.8511
 7887TIP3   OH245151   1.816   4.864   3.518  0.5503 -0.0744  0.0009
 7887TIP3    H145152   1.862   4.946   3.537  3.0048 -0.9327 -1.7356
 7887TIP3    H245153   1.863   4.827   3.443 -1.0828 -2.6114  0.1159
 7888TIP3   OH245154   2.333   1.346   2.225  0.4095  0.1352 -0.7167
 7888TIP3    H145155   2.240   1.337   2.246  0.3818 -0.7198 -1.1501
 7888TIP3    H245156   2.367   1.406   2.291 -0.4495  0.4742 -0.5645
 7889TIP3   OH245157   6.816   2.451   2.041  0.8015  0.3291  0.6555
 7889TIP3    H145158   6.861   2.502   2.108  1.2148  0.0366  0.5977
 7889TIP3    H245159   6.787   2.517   1.977 -0.4354  0.7305  1.5737
 7890TIP3   OH245160   6.709   0.345  12.721 -0.6696 -0.0218 -0.4497
 7890TIP3    H145161   6.717   0.412  12.788  0.3781  0.8425 -1.3805
 7890TIP3    H245162   6.637   0.290  12.750 -0.4428  0.4948  1.2144
 7891TIP3   OH245163   3.292   1.771   2.745 -0.7426  0.4752  0.3654
 7891TIP3    H145164   3.320   1.680   2.742 -1.7470  0.1694 -0.3823
 7891TIP3    H245165   3.350   1.816   2.684  0.4218  0.5545  1.4892
 7892TIP3   OH245166   4.597   5.690   3.824  0.3290 -0.6432  0.2386
 7892TIP3    H145167   4.651   5.754   3.779 -1.3712  0.8467  0.2007
 7892TIP3    H245168   4.507   5.722   3.814 -0.5065 -2.5210  1.0653
 7893TIP3   OH245169   1.911   0.408   3.249  0.2486  0.5704 -0.3686
 7893TIP3    H145170   1.875   0.345   3.312 -0.3660  0.0049 -1.2591
 7893TIP3    H245171   1.923   0.488   3.299 -2.3463  0.8259 -0.0157
 7894TIP3   OH245172   4.275   3.472   5.471  0.1219 -0.3219  0.5488
 7894TIP3    H145173   4.365   3.495   5.497  0.5550  2.2372 -2.5060
 7894TIP3    H245174   4.220   3.508   5.540  1.3506  1.1660  0.8065
 7895TIP3   OH245175   1.077   1.753   2.911 -0.5612  0.2878  0.3487
 7895TIP3    H145176   1.030   1.757   2.994 -0.7127 -2.3000  0.4606
 7895TIP3    H245177   1.027   1.691   2.858  1.2401 -0.4892 -0.5068
 7896TIP3   OH245178   0.915   4.993  10.476  0.2996  0.7652  0.0697
 7896TIP3    H145179   0.826   5.027  10.485 -0.0834  1.2500 -3.9559
 7896TIP3    H245180   0.970   5.070  10.467  0.8129  0.4241  0.2362
 7897TIP3   OH245181   3.740   5.146  13.393 -0.0969 -0.1824 -0.4577
 7897TIP3    H145182   3.661   5.114  13.349 -1.6117  1.1682  1.1699
 7897TIP3    H245183   3.765   5.076  13.453 -0.8475 -0.0812 -0.0250
 7898TIP3   OH245184   5.919   3.027  12.402  0.4178 -0.2860 -0.1417
 7898TIP3    H145185   5.876   2.963  12.458  0.2256 -0.8186 -0.8869
 7898TIP3    H245186   5.901   2.998  12.313 -1.9756  2.2454 -0.6453
 7899TIP3   OH245187   1.204   4.188  12.081 -0.4639 -0.2098  0.3378
 7899TIP3    H145188   1.261   4.184  12.005 -1.3915 -0.2128 -0.3721
 7899TIP3    H245189   1.193   4.096  12.108 -1.1282 -0.3289 -0.2968
 7900TIP3   OH245190   0.087   1.707  14.871 -0.0870  0.0505 -0.3575
 7900TIP3    H145191   0.136   1.642  14.820  0.1905  0.2943 -0.4068
 7900TIP3    H245192   0.107   1.686  14.962  0.9080  0.7384 -0.3924
 7901TIP3   OH245193   0.059   1.200   2.886 -0.1513 -0.3405  0.0189
 7901TIP3    H145194   0.148   1.184   2.916 -0.1494 -0.3322  0.0176
 7901TIP3    H245195   0.068   1.220   2.793 -0.4270 -3.1441 -0.7107
 7902TIP3   OH245196   3.754   2.645  11.378  0.0487  0.1206 -0.2392
 7902TIP3    H145197   3.763   2.550  11.373  0.7127  0.1915 -0.5277
 7902TIP3    H245198   3.705   2.670  11.300  0.7965  0.1131 -0.7236
 7903TIP3   OH245199   0.817   1.615  10.809 -0.3182  0.0611 -0.5843
 7903TIP3    H145200   0.795   1.529  10.773  0.1426 -0.1917 -0.2730
 7903TIP3    H245201   0.742   1.670  10.787 -0.7413 -0.4927 -0.5505
 7904TIP3   OH245202   2.514   1.437   4.040 -0.0056  0.5576 -0.0056
 7904TIP3    H145203   2.531   1.379   3.966  0.9777 -0.1073  0.7034
 7904TIP3    H245204   2.586   1.418   4.101 -1.3066  0.3735  1.5361
 7905TIP3   OH245205   3.545   5.287  13.525 -0.9156 -0.2380  0.1542
 7905TIP3    H145206   3.544   5.241  13.609  0.7518 -2.1988 -0.7814
 7905TIP3    H245207   3.613   5.242  13.475 -0.7848  1.8772 -1.7036
 7906TIP3   OH245208   2.109   6.287  11.810  0.3852 -0.0761  0.4125
 7906TIP3    H145209   2.184   6.299  11.753 -0.6067 -2.2185 -1.4880
 7906TIP3    H245210   2.039   6.338  11.770  0.3328  0.4897  1.1897
 7907TIP3   OH245211   2.126   1.366  13.952 -0.9888 -0.0237  0.1927
 7907TIP3    H145212   2.112   1.272  13.958  0.0049 -0.4044 -2.1797
 7907TIP3    H245213   2.206   1.375  13.899 -1.1034  2.1402  0.2955
 7908TIP3   OH245214   5.306   1.359   0.146  0.4477 -0.1938  0.0347
 7908TIP3    H145215   5.389   1.395   0.114  1.0757 -0.9416  0.7899
 7908TIP3    H245216   5.263   1.434   0.188  0.8742  0.1294 -0.0923
 7909TIP3   OH245217   1.597   6.710   4.037  0.0624  0.0967  0.8260
 7909TIP3    H145218   1.675   6.715   3.982  1.0285  2.6671  2.2597
 7909TIP3    H245219   1.533   6.662   3.984  1.9392 -0.3311 -1.1956
 7910TIP3   OH245220   2.815   2.294  12.942 -0.5961 -0.1834  0.2187
 7910TIP3    H145221   2.788   2.386  12.942 -0.9936 -0.2992  0.1668
 7910TIP3    H245222   2.734   2.245  12.929 -0.1801 -0.4691 -1.5959
 7911TIP3   OH245223   3.622   6.417  14.618  0.2845  0.4717 -0.3245
 7911TIP3    H145224   3.683   6.383  14.553 -1.2534 -2.0447 -0.5583
 7911TIP3    H245225   3.544   6.442  14.568 -0.0684  0.6908  0.3213
 7912TIP3   OH245226   0.525   3.756  12.275 -0.0596  0.4248  0.6371
 7912TIP3    H145227   0.599   3.810  12.303 -0.1740 -0.2742  2.4212
 7912TIP3    H245228   0.458   3.771  12.341 -1.2816  0.5123 -0.5819
 7913TIP3   OH245229   3.098   0.877   2.779  0.3484  0.1371 -0.0227
 7913TIP3    H145230   3.071   0.808   2.719  1.7358  1.0677 -1.8164
 7913TIP3    H245231   3.184   0.849   2.810  0.1302  0.2062  0.6526
 7914TIP3   OH245232   6.740   2.353   3.951 -0.3399  0.3371 -0.5852
 7914TIP3    H145233   6.734   2.338   4.045  0.1356  1.1362 -0.4210
 7914TIP3    H245234   6.830   2.382   3.936 -0.8399  1.7125 -1.0627
 7915TIP3   OH245235   3.570   1.073  16.232 -0.0954  0.2695  0.5655
 7915TIP3    H145236   3.641   1.037  16.178 -1.3055 -1.2991 -0.0701
 7915TIP3    H245237   3.495   1.078  16.173 -0.4442  2.3080  1.1117
 7916TIP3   OH245238   2.265   3.837  14.790 -0.3826 -0.1963  0.1253
 7916TIP3    H145239   2.258   3.917  14.843 -1.1603  1.1668 -1.9290
 7916TIP3    H245240   2.330   3.858  14.723 -2.7374 -0.1404 -2.2751
 7917TIP3   OH245241   6.820   0.051  11.944 -0.1297 -0.1000 -0.5465
 7917TIP3    H145242   6.838  -0.035  11.983  0.2686 -0.6472 -1.8531
 7917TIP3    H245243   6.774   0.099  12.012 -0.9803 -1.5971 -0.0011
 7918TIP3   OH245244   3.211   2.927   0.202  0.3859 -0.3096 -0.4003
 7918TIP3    H145245   3.157   2.851   0.178  0.1639 -0.5690  0.8775
 7918TIP3    H245246   3.205   2.984   0.125 -0.8896 -0.7898 -0.6980
 7919TIP3   OH245247   4.663   4.151   2.711  0.1109  0.0348  0.2422
 7919TIP3    H145248   4.694   4.086   2.648  1.7028  0.7162  0.2840
 7919TIP3    H245249   4.718   4.139   2.788 -0.5253  0.5007  0.7842
 7920TIP3   OH245250   6.029   5.458  11.914  0.3186  0.0443  0.2931
 7920TIP3    H145251   6.122   5.438  11.926 -0.1939 -1.1239  3.1441
 7920TIP3    H245252   5.985   5.405  11.980 -2.2650  1.5578 -0.0948
 7921TIP3   OH245253   4.740   1.670   1.536  0.7528 -0.1616 -0.0206
 7921TIP3    H145254   4.751   1.640   1.626  0.7432  1.4110  0.5360
 7921TIP3    H245255   4.828   1.666   1.498  0.6468 -1.4558 -0.1753
 7922TIP3   OH245256   6.440   3.807   1.248  0.1471  0.1098  0.9805
 7922TIP3    H145257   6.524   3.768   1.228 -0.1090 -1.0257  2.0052
 7922TIP3    H245258   6.398   3.821   1.163  1.5109  1.0833  0.4314
 7923TIP3   OH245259   2.417   3.169   2.810  0.3155  0.2136 -0.1492
 7923TIP3    H145260   2.462   3.154   2.893 -0.7493 -0.9232  0.2526
 7923TIP3    H245261   2.339   3.218   2.834 -0.0163 -0.1497 -0.4756
 7924TIP3   OH245262   4.916   2.498  13.699  0.8497  0.1422 -0.3553
 7924TIP3    H145263   4.877   2.584  13.688  0.5000 -0.2207 -2.3290
 7924TIP3    H245264   4.935   2.469  13.610  0.3657 -2.0844  0.2061
 7925TIP3   OH245265   1.729   1.495  15.790  0.1949 -0.6167 -0.0538
 7925TIP3    H145266   1.723   1.410  15.745  0.4852  0.3749 -2.0790
 7925TIP3    H245267   1.656   1.546  15.757  0.3942  0.1571  0.6546
 7926TIP3   OH245268   2.587   6.408   5.701  0.5382 -0.2405 -0.6050
 7926TIP3    H145269   2.513   6.411   5.761  0.4010 -0.2284 -0.7721
 7926TIP3    H245270   2.615   6.499   5.692  1.0544 -0.3227  0.0411
 7927TIP3   OH245271   6.787   5.994  14.390  0.1091 -0.4715  0.2712
 7927TIP3    H145272   6.749   5.957  14.310 -2.0904  0.6008  0.7250
 7927TIP3    H245273   6.855   5.933  14.415 -0.5528 -1.9397 -1.2899
 7928TIP3   OH245274   4.474   2.749   2.575 -0.1986  0.1276  0.4154
 7928TIP3    H145275   4.556   2.744   2.623 -0.4059  2.2191  1.1001
 7928TIP3    H245276   4.497   2.790   2.492 -0.5925  1.1596  0.8008
 7929TIP3   OH245277   5.625   0.662  12.557  0.2561 -0.5288  0.2214
 7929TIP3    H145278   5.541   0.673  12.602 -0.0103 -1.1160 -0.1267
 7929TIP3    H245279   5.614   0.584  12.504  0.8739 -0.3503 -0.1806
 7930TIP3   OH245280   4.967   0.545  13.563 -0.0275  0.0340  0.3692
 7930TIP3    H145281   4.980   0.450  13.557 -0.7593 -0.2988  3.0438
 7930TIP3    H245282   5.051   0.578  13.597  1.0445  0.7289 -2.6571
 7931TIP3   OH245283   0.240   4.891  15.841  0.5539  0.4822  0.2500
 7931TIP3    H145284   0.270   4.854  15.758 -0.4755  1.6597 -0.6965
 7931TIP3    H245285   0.214   4.815  15.893  0.3838 -0.2507 -0.8620
 7932TIP3   OH245286   2.859   2.553   0.947  0.1493 -0.2914  0.0288
 7932TIP3    H145287   2.923   2.544   1.017  2.1639 -3.3537 -1.9411
 7932TIP3    H245288   2.778   2.519   0.984  0.5814  0.2048  1.5011
 7933TIP3   OH245289   6.373   1.537   1.380 -0.0616  0.6405 -0.1504
 7933TIP3    H145290   6.437   1.466   1.380  0.8724  1.4589 -0.6422
 7933TIP3    H245291   6.307   1.510   1.443  0.5865 -0.3896  0.1090
 7934TIP3   OH245292   5.676   3.801  10.716 -0.1267  0.3899 -0.2557
 7934TIP3    H145293   5.642   3.856  10.645 -1.9396  0.1556  0.3932
 7934TIP3    H245294   5.684   3.860  10.791  0.2727  0.2787 -0.2040
 7935TIP3   OH245295   5.498   0.562   5.721  0.3284 -0.0754 -0.0090
 7935TIP3    H145296   5.492   0.657   5.733  1.2000  0.1379 -1.0861
 7935TIP3    H245297   5.479   0.525   5.808 -0.7312  1.0406  0.2580
 7936TIP3   OH245298   3.311   6.099  14.416 -0.1578 -0.1501  0.3149
 7936TIP3    H145299   3.311   6.035  14.345  0.8434  2.0596 -1.7816
 7936TIP3    H245300   3.403   6.123  14.427 -0.3170 -0.2724  2.2721
 7937TIP3   OH245301   0.354   2.728   0.937  0.5641  0.0728 -0.4755
 7937TIP3    H145302   0.349   2.765   1.025  2.3720  1.7948 -1.0206
 7937TIP3    H245303   0.264   2.733   0.904 -0.1201 -0.4993  1.1927
 7938TIP3   OH245304   1.819   5.917  15.824  0.0460  0.2557 -0.2720
 7938TIP3    H145305   1.803   5.871  15.742 -1.5961  0.3277 -0.0244
 7938TIP3    H245306   1.749   5.888  15.882  0.5381  1.0416  0.7415
 7939TIP3   OH245307   6.509   2.234   3.336 -0.0136 -0.1965 -0.3995
 7939TIP3    H145308   6.450   2.201   3.268  1.4962  0.1737 -1.9480
 7939TIP3    H245309   6.461   2.306   3.376 -2.0918 -2.1600  0.9439
 7940TIP3   OH245310   0.713   4.153   3.213  0.0760 -0.2423 -0.3415
 7940TIP3    H145311   0.733   4.069   3.255 -0.5438  0.0046  0.4808
 7940TIP3    H245312   0.668   4.129   3.132  1.6392 -0.7403 -1.1155
 7941TIP3   OH245313   6.507   2.894  11.134  0.4056  0.3337 -0.3273
 7941TIP3    H145314   6.521   2.916  11.226 -0.8413 -1.6279  0.3915
 7941TIP3    H245315   6.595   2.887  11.097  0.9199  1.1582  0.6985
 7942TIP3   OH245316   4.764   1.554   2.154  0.1068 -0.2166  0.0258
 7942TIP3    H145317   4.695   1.570   2.219 -0.5106  0.1253 -0.6922
 7942TIP3    H245318   4.796   1.641   2.132  1.2268 -0.4062  0.8073
 7943TIP3   OH245319   4.985   2.056  13.279 -0.1956  0.1040  0.3390
 7943TIP3    H145320   4.910   2.047  13.221 -1.3409  1.0516  1.6107
 7943TIP3    H245321   5.036   2.128  13.243  0.3201 -0.7585 -0.7158
 7944TIP3   OH245322   3.985   6.497  14.872 -0.1457  0.2673 -1.1332
 7944TIP3    H145323   4.001   6.498  14.778  1.2446 -1.8159 -1.0029
 7944TIP3    H245324   4.068   6.527  14.911 -0.6738  1.0198 -0.5566
 7945TIP3   OH245325   2.539   4.160  12.451 -0.2848 -0.1468 -0.0593
 7945TIP3    H145326   2.510   4.238  12.498 -1.6693 -0.7720  0.1667
 7945TIP3    H245327   2.501   4.168  12.364 -1.2169 -0.9952  0.2537
 7946TIP3   OH245328   6.291   6.744   3.575  0.1958 -0.0333 -0.0356
 7946TIP3    H145329   6.297   6.685   3.650  1.2929  1.8442  1.4358
 7946TIP3    H245330   6.333   6.696   3.504  0.5322 -1.2558  0.9495
 7947TIP3   OH245331   2.080   3.459   5.764  0.6006  0.0802  0.6807
 7947TIP3    H145332   2.059   3.403   5.839  0.6372 -0.3211  0.3949
 7947TIP3    H245333   2.066   3.403   5.688  3.2085 -0.3947  0.4864
 7948TIP3   OH245334   2.112   6.347   0.678 -0.0044  0.4357  0.1444
 7948TIP3    H145335   2.194   6.368   0.723  0.6520  0.1969 -0.8958
 7948TIP3    H245336   2.050   6.328   0.748  1.2921 -1.0532  0.9426
 7949TIP3   OH245337   5.156   4.141   0.456  0.2536  0.3070 -0.2170
 7949TIP3    H145338   5.166   4.155   0.550 -0.6087 -1.4490  0.1909
 7949TIP3    H245339   5.123   4.224   0.422  1.3469  1.2265  0.8772
 7950TIP3   OH245340   1.162   2.902  13.133 -0.1365 -0.0975  0.4262
 7950TIP3    H145341   1.250   2.876  13.107  0.5330 -0.2240  2.6622
 7950TIP3    H245342   1.106   2.829  13.107  0.5617 -0.4281 -0.1452
 7951TIP3   OH245343   6.184   5.121   0.023  0.1836  0.0533  0.1587
 7951TIP3    H145344   6.163   5.126   0.116  1.8219 -1.4088  0.6699
 7951TIP3    H245345   6.275   5.153   0.018 -0.4291  1.7781 -1.2355
 7952TIP3   OH245346   0.138   2.681   5.639 -0.3466  0.5784  0.4451
 7952TIP3    H145347   0.210   2.742   5.621  0.2974  0.3437  2.0849
 7952TIP3    H245348   0.125   2.686   5.734 -0.4133 -1.6805  0.6071
 7953TIP3   OH245349   0.885   5.848  15.573 -0.0004  0.3694 -0.4043
 7953TIP3    H145350   0.867   5.817  15.662  0.7115 -0.0123 -0.3871
 7953TIP3    H245351   0.841   5.784  15.516 -1.3610  1.1979 -0.3290
 7954TIP3   OH245352   5.842   3.234  14.622 -0.3170 -0.7201  0.2533
 7954TIP3    H145353   5.802   3.175  14.685 -0.3027 -2.8613 -1.5997
 7954TIP3    H245354   5.935   3.230  14.641 -0.4821  0.1785  1.2968
 7955TIP3   OH245355   2.647   3.800  13.173 -0.5384  0.5114  0.4337
 7955TIP3    H145356   2.704   3.870  13.140  1.0066 -1.9136 -2.5447
 7955TIP3    H245357   2.591   3.779  13.099 -0.8485 -1.4864  1.1859
 7956TIP3   OH245358   1.189   3.695  15.777  0.7398 -0.3098  0.4107
 7956TIP3    H145359   1.270   3.651  15.801  1.0660  0.0982  0.0774
 7956TIP3    H245360   1.125   3.664  15.840  1.4419  0.3204  1.4654
 7957TIP3   OH245361   4.847   5.624   5.593  0.0653 -0.8037 -0.1195
 7957TIP3    H145362   4.782   5.569   5.550 -0.9891  0.7565 -0.6193
 7957TIP3    H245363   4.843   5.598   5.685 -1.9779 -0.1434  0.0336
 7958TIP3   OH245364   4.480   0.900  16.087 -0.0187 -0.5523  0.0714
 7958TIP3    H145365   4.424   0.831  16.121  1.3023 -0.8932  1.6889
 7958TIP3    H245366   4.461   0.976  16.143 -0.5790  0.0676 -0.9194
 7959TIP3   OH245367   5.413   0.290  11.571  0.1740 -0.8968  0.1315
 7959TIP3    H145368   5.344   0.355  11.557  0.9744  0.0783  0.5557
 7959TIP3    H245369   5.380   0.211  11.528 -0.7153 -0.1493 -0.6322
 7960TIP3   OH245370   3.184   1.132   3.510 -0.0509 -0.1764  0.0290
 7960TIP3    H145371   3.093   1.103   3.521  0.2508 -0.8584  0.8954
 7960TIP3    H245372   3.221   1.128   3.598  0.9843 -0.4970 -0.3998
 7961TIP3   OH245373   1.654   6.636  17.112  0.9017  0.1569  0.2085
 7961TIP3    H145374   1.675   6.610  17.202  0.8074 -0.6575  0.0051
 7961TIP3    H245375   1.725   6.601  17.059  1.2494  1.1121  0.0146
 7962TIP3   OH245376   5.016   4.007   2.369  0.0721 -0.0016  0.3125
 7962TIP3    H145377   4.994   3.958   2.290  1.5275 -1.2936  0.6527
 7962TIP3    H245378   5.112   4.007   2.371  0.0767 -0.5228  2.3640
 7963TIP3   OH245379   3.136   4.942  17.075  0.3654 -0.7896  0.4507
 7963TIP3    H145380   3.179   4.922  17.158  0.2182 -0.4968  0.5983
 7963TIP3    H245381   3.106   4.857  17.043 -0.8004 -0.7504  1.3788
 7964TIP3   OH245382   4.053   1.595   5.635 -0.3544  0.3515 -0.0944
 7964TIP3    H145383   4.128   1.594   5.695  0.2115 -1.1711 -0.7699
 7964TIP3    H245384   4.041   1.687   5.614  0.0493  0.8252  1.5915
 7965TIP3   OH245385   0.802   3.189  15.890 -0.1493 -0.2795 -0.0121
 7965TIP3    H145386   0.851   3.269  15.871 -0.4663  0.1913  1.0888
 7965TIP3    H245387   0.716   3.204  15.851 -0.2197 -0.0794  0.2245
 7966TIP3   OH245388   2.287   1.936  13.731 -0.1225  0.0585 -0.1257
 7966TIP3    H145389   2.337   1.883  13.793  1.3237  1.5061  0.0254
 7966TIP3    H245390   2.278   1.881  13.653 -1.8886 -1.7673  1.2378
 7967TIP3   OH245391   0.489   5.577   2.567  0.2025 -0.4171 -0.2961
 7967TIP3    H145392   0.407   5.622   2.589  0.6200 -0.2604  1.0172
 7967TIP3    H245393   0.510   5.525   2.645  0.5482 -1.6888 -1.2096
 7968TIP3   OH245394   1.327   2.769  16.149  0.0120 -0.2050 -0.5221
 7968TIP3    H145395   1.248   2.715  16.157  0.2789 -0.5486 -0.1033
 7968TIP3    H245396   1.397   2.714  16.186 -0.0009  1.0890  1.5761
 7969TIP3   OH245397   1.750   2.327   4.540 -0.0577  0.5438  0.0391
 7969TIP3    H145398   1.654   2.329   4.542 -0.1129 -1.1228  1.2084
 7969TIP3    H245399   1.777   2.391   4.606 -0.4139  0.0585  0.6686
 7970TIP3   OH245400   5.542   0.669   6.626  0.3050  0.5598 -0.0330
 7970TIP3    H145401   5.546   0.698   6.535 -0.0091 -1.3459 -0.6947
 7970TIP3    H245402   5.500   0.741   6.673 -1.3603  0.7747 -1.7511
 7971TIP3   OH245403   0.559   6.143   6.406  0.5120  0.1212  0.1909
 7971TIP3    H145404   0.467   6.125   6.385  0.8867  0.3166 -1.7959
 7971TIP3    H245405   0.590   6.063   6.448 -0.4588 -0.0902  0.5311
 7972TIP3   OH245406   5.283   4.467  15.104  0.0817 -0.0362 -0.5521
 7972TIP3    H145407   5.253   4.452  15.193  1.3012 -2.2789 -0.4591
 7972TIP3    H245408   5.316   4.557  15.105  0.5931 -0.1975  1.4414
 7973TIP3   OH245409   5.970   6.424   1.737  0.0040 -0.4608  0.0351
 7973TIP3    H145410   6.051   6.428   1.788 -1.4055  2.8164  2.3568
 7973TIP3    H245411   5.988   6.476   1.659  0.5022 -0.8157 -0.0923
 7974TIP3   OH245412   6.278   5.758   4.782  0.1027 -0.4380 -0.1921
 7974TIP3    H145413   6.349   5.706   4.819 -0.7392 -0.3938  1.5851
 7974TIP3    H245414   6.216   5.770   4.854 -0.5276  1.6342 -0.9979
 7975TIP3   OH245415   5.458   2.177   1.107 -0.0858  0.0078 -0.2778
 7975TIP3    H145416   5.459   2.141   1.018 -1.5602  2.0075 -1.1609
 7975TIP3    H245417   5.550   2.200   1.123  0.2970 -0.8806 -1.0441
 7976TIP3   OH245418   4.999   2.082  10.490 -0.3346  0.2962 -0.7279
 7976TIP3    H145419   4.984   2.044  10.576  1.8716 -0.0179 -0.4248
 7976TIP3    H245420   4.937   2.036  10.432  1.2433 -2.8651 -0.1312
 7977TIP3   OH245421   0.805   5.657   3.282  0.2704  0.2614 -0.4345
 7977TIP3    H145422   0.857   5.737   3.278 -0.3330  0.6747 -0.1813
 7977TIP3    H245423   0.790   5.644   3.376 -1.1341  0.8501 -0.5562
 7978TIP3   OH245424   4.248   6.234  15.683  0.1810 -0.0102 -0.2456
 7978TIP3    H145425   4.284   6.146  15.686  0.3735 -0.0731 -2.6722
 7978TIP3    H245426   4.294   6.277  15.611 -0.5186  1.8019  0.3203
 7979TIP3   OH245427   2.014   1.199  12.011 -0.0027 -0.7574 -0.2850
 7979TIP3    H145428   1.972   1.250  11.942 -0.3098 -2.3926 -1.3816
 7979TIP3    H245429   2.105   1.193  11.984  0.6396  1.3784  1.2243
 7980TIP3   OH245430   0.574   4.647   1.912  0.1953 -1.0719  0.3351
 7980TIP3    H145431   0.656   4.609   1.944  0.9732 -0.1403 -0.4590
 7980TIP3    H245432   0.602   4.713   1.848 -1.0510  0.8909  1.6853
 7981TIP3   OH245433   1.810   3.703  12.863 -0.1138  0.5676 -0.8017
 7981TIP3    H145434   1.792   3.689  12.956 -3.0961 -0.0098 -1.3537
 7981TIP3    H245435   1.790   3.796  12.848 -0.5515  0.4378 -1.0320
 7982TIP3   OH245436   4.943   1.623   5.561 -0.3128 -0.3506 -0.0291
 7982TIP3    H145437   4.887   1.678   5.506  0.7768 -0.6193 -1.4624
 7982TIP3    H245438   4.912   1.640   5.650 -2.5693 -0.3827 -0.7236
 7983TIP3   OH245439   4.988   5.291   0.434  0.0462  0.1488 -0.2055
 7983TIP3    H145440   5.042   5.216   0.409 -0.0418 -1.2377  3.2267
 7983TIP3    H245441   5.042   5.340   0.497 -1.3763  0.7407  0.5948
 7984TIP3   OH245442   0.471   1.782  15.019 -0.1611  0.1483  0.3220
 7984TIP3    H145443   0.471   1.861  15.073  1.5472  1.2524 -1.1638
 7984TIP3    H245444   0.553   1.737  15.042 -0.5287 -0.5684  0.2714
 7985TIP3   OH245445   0.388   4.527   3.102  0.4178 -0.2939  0.0075
 7985TIP3    H145446   0.396   4.555   3.193 -1.5939 -0.1511  0.1738
 7985TIP3    H245447   0.411   4.605   3.051 -0.9838  0.4475  0.4460
 7986TIP3   OH245448   3.090   3.146  11.400  0.3570 -0.1464  0.2360
 7986TIP3    H145449   3.162   3.157  11.462  0.2378 -1.1187  0.5600
 7986TIP3    H245450   3.132   3.114  11.320  0.1195 -2.9022  1.0896
 7987TIP3   OH245451   3.130   6.316   1.812  0.2428 -0.4083 -0.0784
 7987TIP3    H145452   3.111   6.275   1.727  1.0133  0.0074 -0.4619
 7987TIP3    H245453   3.113   6.409   1.798 -0.7065 -0.4764  0.5563
 7988TIP3   OH245454   5.181   3.666  12.082  0.1795  0.5131 -0.4992
 7988TIP3    H145455   5.221   3.730  12.023 -0.5152 -0.4940 -2.1211
 7988TIP3    H245456   5.090   3.660  12.053  0.1563 -0.9831 -0.2015
 7989TIP3   OH245457   2.176   5.303  15.928 -0.5312 -0.0964  0.0471
 7989TIP3    H145458   2.155   5.358  16.004  0.4085 -0.9285  0.9371
 7989TIP3    H245459   2.129   5.221  15.943  3.2297 -2.1124  2.2285
 7990TIP3   OH245460   6.494   2.859   5.082  0.8225  0.3497  0.4110
 7990TIP3    H145461   6.502   2.786   5.144  1.4795  1.7775  2.0865
 7990TIP3    H245462   6.578   2.861   5.036  1.2853  0.7842  1.2483
 7991TIP3   OH245463   4.703   2.650  14.646 -0.3679 -0.3119  0.6712
 7991TIP3    H145464   4.759   2.615  14.577  0.8529 -0.0043  1.4650
 7991TIP3    H245465   4.760   2.712  14.693 -1.2979 -0.1978  1.6773
 7992TIP3   OH245466   1.191   5.707   0.581 -0.4290 -0.1432 -0.0587
 7992TIP3    H145467   1.217   5.781   0.637  2.5321 -0.2643 -1.1080
 7992TIP3    H245468   1.136   5.746   0.514  0.6701  1.0682 -0.2994
 7993TIP3   OH245469   2.974   5.675  13.224 -0.4876 -0.2480  0.0713
 7993TIP3    H145470   3.006   5.601  13.276 -0.1677 -0.8141 -0.9095
 7993TIP3    H245471   2.984   5.750  13.282 -1.8958 -1.1112  1.5041
 7994TIP3   OH245472   0.532   1.173  15.093 -0.5925  0.5597  0.3058
 7994TIP3    H145473   0.534   1.256  15.044 -0.9038 -0.1417 -0.9529
 7994TIP3    H245474   0.584   1.113  15.039 -2.4351 -0.7347 -0.1435
 7995TIP3   OH245475   5.114   0.504  16.963  0.5852 -0.2583  0.0993
 7995TIP3    H145476   5.033   0.513  16.913 -0.4759  0.4280  1.8179
 7995TIP3    H245477   5.156   0.590  16.957  0.8802 -0.4269 -0.2843
 7996TIP3   OH245478   4.727   1.987  13.133  0.3260  0.3346 -0.1517
 7996TIP3    H145479   4.728   2.012  13.041  1.0472  1.5606  0.1661
 7996TIP3    H245480   4.669   1.910  13.136  0.0270  0.4705 -1.5618
 7997TIP3   OH245481   3.990   6.540  14.599 -0.0841 -0.2143 -0.1413
 7997TIP3    H145482   3.910   6.530  14.548 -0.4601  0.1714  0.3708
 7997TIP3    H245483   4.029   6.622  14.568  0.0718 -0.3543 -0.3242
 7998TIP3   OH245484   2.372   5.799  11.935  0.6058 -0.2839  0.3076
 7998TIP3    H145485   2.455   5.836  11.905  0.2853  0.6956  0.5680
 7998TIP3    H245486   2.306   5.846  11.885  0.2063 -1.0157  0.1473
 7999TIP3   OH245487   3.012   1.245   6.078  0.3502 -0.1916 -0.2734
 7999TIP3    H145488   3.071   1.270   6.149  0.2312 -0.1397 -0.1922
 7999TIP3    H245489   2.986   1.155   6.099 -0.3125  0.0975  0.1787
 8000TIP3   OH245490   0.452   3.426  15.361 -0.6609  0.5855  0.2566
 8000TIP3    H145491   0.463   3.331  15.372  1.2608  0.7321 -0.0584
 8000TIP3    H245492   0.358   3.437  15.343 -0.5457 -1.5343 -2.3307
 8001TIP3   OH245493   2.999   6.486   3.100  0.3555 -0.3503 -0.1852
 8001TIP3    H145494   3.013   6.391   3.105 -0.3010 -0.4071  0.8792
 8001TIP3    H245495   2.945   6.498   3.022  1.3871 -0.7113 -0.9907
 8002TIP3   OH245496   3.489   2.264   4.320 -0.5651  0.2732  0.2994
 8002TIP3    H145497   3.398   2.290   4.307 -1.4361 -1.9205  1.5688
 8002TIP3    H245498   3.522   2.324   4.387 -0.5086  2.0990 -1.2498
 8003TIP3   OH245499   5.528   2.550  11.134  0.5973 -0.2522 -0.1241
 8003TIP3    H145500   5.469   2.624  11.152  1.1574  0.3376 -0.6302
 8003TIP3    H245501   5.506   2.524  11.045 -0.8155 -1.8737  0.6534
 8004TIP3   OH245502   0.680   5.791   4.502  0.6325 -0.1423 -0.4711
 8004TIP3    H145503   0.611   5.727   4.484  0.6436  0.0550 -1.2476
 8004TIP3    H245504   0.642   5.850   4.567  1.7250 -2.7977  2.8958
 8005TIP3   OH245505   1.389   1.203  12.045 -0.3793 -0.2805 -0.0979
 8005TIP3    H145506   1.415   1.251  12.123  2.4712 -1.3026 -0.3180
 8005TIP3    H245507   1.343   1.126  12.078 -1.4705  0.5685  0.4124
 8006TIP3   OH245508   4.876   3.708   4.492  0.6334 -0.3367  0.1241
 8006TIP3    H145509   4.823   3.680   4.567 -0.5196 -0.5825 -0.7642
 8006TIP3    H245510   4.813   3.738   4.427  1.4688 -1.8553 -1.4780
 8007TIP3   OH245511   5.514   5.402   4.324  0.0620 -0.1609 -0.3713
 8007TIP3    H145512   5.521   5.307   4.328  1.2274 -0.0623  0.5360
 8007TIP3    H245513   5.427   5.418   4.288  0.0719 -1.5630 -1.0961
 8008TIP3   OH245514   5.522   1.323  12.603  0.4374  0.1323  0.1402
 8008TIP3    H145515   5.452   1.271  12.642 -0.4329 -0.0087 -1.5306
 8008TIP3    H245516   5.573   1.261  12.552  0.4480  0.6146 -0.4472
 8009TIP3   OH245517   4.852   2.633   3.348  0.1726  0.2607 -0.1930
 8009TIP3    H145518   4.796   2.686   3.405  3.9035  1.8308  2.4616
 8009TIP3    H245519   4.904   2.697   3.299  0.5079 -1.0891 -1.6996
 8010TIP3   OH245520   6.223   0.933  12.088 -0.4310  0.0805 -0.8046
 8010TIP3    H145521   6.151   0.875  12.113 -0.0081  0.0103  0.3603
 8010TIP3    H245522   6.210   1.012  12.141 -0.1954  0.4552 -1.3025
 8011TIP3   OH245523   2.791   1.715   1.143  0.4770  0.5912 -0.6617
 8011TIP3    H145524   2.708   1.756   1.119 -1.4365 -2.6816 -0.1601
 8011TIP3    H245525   2.837   1.782   1.194 -3.6179  1.3546  2.5599
 8012TIP3   OH245526   3.707   0.615  16.364  0.6201  0.0650 -0.0145
 8012TIP3    H145527   3.671   0.550  16.304 -0.4454  1.3347 -0.8038
 8012TIP3    H245528   3.643   0.686  16.364  1.7481  1.1272  0.7987
 8013TIP3   OH245529   3.385   2.219   0.101  0.2154  0.9265  0.0865
 8013TIP3    H145530   3.372   2.311   0.079 -0.6184  0.7189 -0.3510
 8013TIP3    H245531   3.307   2.196   0.152  1.3375  0.9589  1.8957
 8014TIP3   OH245532   2.488   6.370  17.125  0.3910 -0.2075 -0.4812
 8014TIP3    H145533   2.475   6.357  17.031 -1.1857  0.3923 -0.3790
 8014TIP3    H245534   2.581   6.354  17.138  0.2569 -2.6295 -1.7560
 8015TIP3   OH245535   1.324   1.983  15.953 -0.4443  0.1608 -0.4870
 8015TIP3    H145536   1.296   2.074  15.939  1.1102  0.6011 -1.0217
 8015TIP3    H245537   1.369   1.985  16.038  2.8053  0.8028 -2.0574
 8016TIP3   OH245538   5.067   2.488   5.114 -0.3772  0.4044  0.2736
 8016TIP3    H145539   4.995   2.537   5.153 -1.1762 -0.1144 -0.5102
 8016TIP3    H245540   5.108   2.443   5.188 -0.3118  1.3717  0.8425
 8017TIP3   OH245541   2.651   6.671   2.240  0.4698  0.9182 -0.1971
 8017TIP3    H145542   2.739   6.694   2.211 -0.3667  3.0280 -1.3137
 8017TIP3    H245543   2.599   6.750   2.222 -1.9933 -0.8071 -1.1510
 8018TIP3   OH245544   3.823   6.237   6.477  0.3117  0.1950 -0.1087
 8018TIP3    H145545   3.817   6.155   6.428 -1.5901 -0.3101  0.8632
 8018TIP3    H245546   3.795   6.213   6.565 -2.1053  2.2018 -0.2281
 8019TIP3   OH245547   4.132   1.364  14.515 -0.2266 -0.2448  0.5495
 8019TIP3    H145548   4.107   1.377  14.424  0.6843 -1.0271  0.1713
 8019TIP3    H245549   4.087   1.284  14.542  0.9324 -1.0411  0.2036
 8020TIP3   OH245550   4.708   5.599   0.964 -0.2312 -0.5675  0.2259
 8020TIP3    H145551   4.694   5.645   0.882  2.8940 -0.4812 -0.3578
 8020TIP3    H245552   4.711   5.668   1.030  0.8406 -0.2647 -0.1277
 8021TIP3   OH245553   0.344   2.093   4.875  0.3492 -0.1482  0.3160
 8021TIP3    H145554   0.426   2.129   4.909  0.6462  0.4130 -0.9236
 8021TIP3    H245555   0.312   2.160   4.814 -0.3333 -0.9470 -0.2228
 8022TIP3   OH245556   2.458   1.415   3.320 -0.4202  0.5667  0.1074
 8022TIP3    H145557   2.411   1.331   3.323  0.0106  0.3366  0.4927
 8022TIP3    H245558   2.489   1.422   3.230  1.6190 -0.8523  0.6262
 8023TIP3   OH245559   4.567   1.086   3.954  0.0251  0.1209  0.3804
 8023TIP3    H145560   4.619   1.096   3.874 -0.7183 -0.3538 -0.1714
 8023TIP3    H245561   4.598   1.004   3.992  0.9514  0.7484  1.0275
 8024TIP3   OH245562   2.817   3.640  11.604 -0.0645 -0.3736 -0.4725
 8024TIP3    H145563   2.774   3.725  11.615  0.6669 -0.1864  1.4250
 8024TIP3    H245564   2.907   3.661  11.577  1.2915 -0.1801  3.4888
 8025TIP3   OH245565   3.832   0.331   4.883 -0.4949 -0.0949  0.6252
 8025TIP3    H145566   3.778   0.350   4.960  0.3230 -1.9055  1.7041
 8025TIP3    H245567   3.902   0.274   4.916  1.1123  0.7966 -1.0648
 8026TIP3   OH245568   6.101   6.271   3.387  0.6556 -0.0548 -0.1196
 8026TIP3    H145569   6.164   6.207   3.420 -0.7998 -1.9984 -0.9749
 8026TIP3    H245570   6.018   6.248   3.427 -0.0801  0.7843 -1.0887
 8027TIP3   OH245571   6.588   2.282  15.144 -0.4249  0.1856  0.2898
 8027TIP3    H145572   6.596   2.377  15.147  1.1102  0.0727  0.6233
 8027TIP3    H245573   6.512   2.266  15.088 -1.4071  1.6091  1.1427
 8028TIP3   OH245574   1.883   3.187   6.494 -0.5281  0.0773 -0.2793
 8028TIP3    H145575   1.819   3.128   6.534 -0.9718  0.1673 -0.8380
 8028TIP3    H245576   1.922   3.233   6.568 -0.0779 -1.0051  0.1706
 8029TIP3   OH245577   1.528   2.178   0.617 -0.0797 -0.1012 -0.7719
 8029TIP3    H145578   1.592   2.235   0.659 -0.4122 -1.1843  1.3370
 8029TIP3    H245579   1.456   2.236   0.592 -0.5639  0.4223  1.6119
 8030TIP3   OH245580   1.484   2.820  13.930 -0.1237  0.2500 -0.2538
 8030TIP3    H145581   1.432   2.740  13.917 -0.6742  0.4092  0.9018
 8030TIP3    H245582   1.438   2.887  13.879  0.3563 -0.1508 -1.2525
 8031TIP3   OH245583   1.446   4.284   3.068  0.6001 -0.5166 -0.3195
 8031TIP3    H145584   1.494   4.361   3.038  0.5603  1.3713  3.7004
 8031TIP3    H245585   1.514   4.220   3.089  1.3053  0.8706  2.0928
 8032TIP3   OH245586   0.261   3.938   5.652 -0.3535 -0.3561 -0.0371
 8032TIP3    H145587   0.245   4.032   5.664  0.0246 -0.3519  0.4757
 8032TIP3    H245588   0.204   3.896   5.717 -1.0817 -0.5291 -0.7637
 8033TIP3   OH245589   0.262   4.880  12.099 -0.2652  0.6644 -0.3135
 8033TIP3    H145590   0.245   4.851  12.009  0.3068  1.8168 -0.8176
 8033TIP3    H245591   0.182   4.858  12.147 -0.6287  0.1474 -1.1289
 8034TIP3   OH245592   5.418   3.751  12.771 -0.0606 -0.5077  0.1292
 8034TIP3    H145593   5.336   3.791  12.797  0.7488  1.7637 -0.5934
 8034TIP3    H245594   5.393   3.667  12.732 -2.0092  0.0958  0.0156
 8035TIP3   OH245595   1.469   6.820  15.599  0.0943  0.2476 -0.1962
 8035TIP3    H145596   1.389   6.857  15.561 -1.7693 -2.1090  1.0660
 8035TIP3    H245597   1.514   6.779  15.526  0.2164  1.6623 -0.9430
 8036TIP3   OH245598   3.087   6.318  13.775  0.2647 -0.0122  0.0309
 8036TIP3    H145599   2.997   6.291  13.757  0.6777 -2.7893  1.6172
 8036TIP3    H245600   3.127   6.242  13.816  2.7192  1.8902  1.4264
 8037TIP3   OH245601   2.694   5.003  12.399  0.1678 -0.2029  0.2055
 8037TIP3    H145602   2.664   4.984  12.310 -1.1482  1.1048  0.3434
 8037TIP3    H245603   2.775   5.052  12.387 -0.2277  0.3387 -0.2870
 8038TIP3   OH245604   6.415   4.334   5.670 -0.2323 -0.1854  0.2051
 8038TIP3    H145605   6.338   4.324   5.614  0.1537 -2.1359 -0.0299
 8038TIP3    H245606   6.461   4.251   5.662  2.1541  1.0855 -0.0027
 8039TIP3   OH245607   5.617   2.657  15.871 -0.2286  0.4390 -0.6038
 8039TIP3    H145608   5.678   2.699  15.811 -0.1893  2.2858  0.6193
 8039TIP3    H245609   5.604   2.722  15.940 -3.5997  0.1504 -0.8128
 8040TIP3   OH245610   5.611   1.082  11.866  0.2216 -0.0785  0.4306
 8040TIP3    H145611   5.539   1.144  11.856 -0.6700 -0.9017  1.5244
 8040TIP3    H245612   5.673   1.125  11.924  0.1557  0.2314  0.2749
 8041TIP3   OH245613   2.328   3.169  15.934  0.1663  0.0495  0.4447
 8041TIP3    H145614   2.327   3.259  15.902 -1.5663 -0.0913 -0.0030
 8041TIP3    H245615   2.353   3.117  15.858  0.7054  0.0980  0.5828
 8042TIP3   OH245616   4.230   5.338   4.483  0.1242  0.3257 -0.6011
 8042TIP3    H145617   4.298   5.404   4.467  1.0052  0.5736  3.2068
 8042TIP3    H245618   4.234   5.323   4.577 -1.2586 -3.9487 -1.0514
 8043TIP3   OH245619   6.675   2.076   3.973 -0.0594 -0.1973  0.0838
 8043TIP3    H145620   6.608   2.110   4.032  1.5890  0.7385  1.4998
 8043TIP3    H245621   6.704   2.152   3.923  1.2431 -0.1602  0.8380
 8044TIP3   OH245622   6.421   1.189  11.491  0.0260  0.2186  0.1034
 8044TIP3    H145623   6.434   1.218  11.581 -0.8501  3.1387 -0.5867
 8044TIP3    H245624   6.497   1.222  11.443 -0.5522  0.6489 -0.5601
 8045TIP3   OH245625   3.294   3.498   4.326 -0.3554 -0.2064 -0.4903
 8045TIP3    H145626   3.308   3.512   4.419  0.5254 -1.5899 -0.3970
 8045TIP3    H245627   3.330   3.577   4.284 -0.8518  0.4705  0.3225
 8046TIP3   OH245628   0.372   6.044   1.602  0.6475  0.3183 -0.3943
 8046TIP3    H145629   0.315   6.100   1.654 -0.0115  0.0736 -0.8461
 8046TIP3    H245630   0.351   5.955   1.631  2.1655  0.3023  0.8140
 8047TIP3   OH245631   0.906   5.307  14.134 -0.1998 -0.3226 -0.3066
 8047TIP3    H145632   0.956   5.304  14.053  1.9628 -1.2364  0.9827
 8047TIP3    H245633   0.940   5.383  14.181  0.9271 -1.6520  1.1182
 8048TIP3   OH245634   5.945   6.092  12.404  0.0785  0.1492  0.0455
 8048TIP3    H145635   5.957   6.137  12.487 -0.2423  0.6171 -0.1588
 8048TIP3    H245636   6.034   6.081  12.370  0.2320 -0.3140  0.5865
 8049TIP3   OH245637   3.113   1.592  14.912  0.3541 -0.2029  0.1224
 8049TIP3    H145638   3.185   1.650  14.934 -0.3791  1.5319 -1.7661
 8049TIP3    H245639   3.082   1.623  14.827 -2.6163 -0.8541  0.8418
 8050TIP3   OH245640   4.681   2.198   1.699  0.3397 -0.3019  0.6642
 8050TIP3    H145641   4.684   2.293   1.710 -0.0829 -0.1535 -0.3179
 8050TIP3    H245642   4.610   2.169   1.756 -0.7781  0.2232 -0.4097
 8051TIP3   OH245643   5.766   4.913   3.796 -0.2410  0.4221 -0.2028
 8051TIP3    H145644   5.697   4.909   3.862 -0.8015  0.8496 -0.7565
 8051TIP3    H245645   5.831   4.973   3.833 -0.8363  1.1302 -0.2997
 8052TIP3   OH245646   4.826   0.914  11.022  0.0573 -0.3448  0.2431
 8052TIP3    H145647   4.823   0.862  10.942 -0.5845 -0.5192  0.3789
 8052TIP3    H245648   4.835   0.850  11.093  2.5163 -0.1243  0.2241
 8053TIP3   OH245649   3.077   6.728   0.241 -0.0302 -0.2769  0.3559
 8053TIP3    H145650   3.124   6.648   0.264 -0.9148 -1.0861 -0.5580
 8053TIP3    H245651   2.987   6.712   0.267 -0.2755  0.3074 -0.1091
 8054TIP3   OH245652   5.084   6.158  14.264  0.5455  0.4242  0.1220
 8054TIP3    H145653   5.048   6.078  14.301  1.9727 -0.4192 -0.2431
 8054TIP3    H245654   5.170   6.133  14.231  1.0916  2.1482  0.1327
 8055TIP3   OH245655   0.060   4.653  13.933  0.0631 -0.1091  0.0812
 8055TIP3    H145656   0.097   4.705  13.862  1.1904 -2.3817 -1.0812
 8055TIP3    H245657   0.099   4.690  14.012  2.2956 -0.3030 -0.8620
 8056TIP3   OH245658   6.797   0.159  10.895 -0.0397  0.4126 -0.2407
 8056TIP3    H145659   6.831   0.243  10.866 -1.5945  0.8000 -1.0717
 8056TIP3    H245660   6.725   0.140  10.835  0.3877 -1.6162 -0.1852
 8057TIP3   OH245661   6.474   6.647   2.780  0.0995 -0.6975 -0.9167
 8057TIP3    H145662   6.503   6.694   2.701  1.8621  1.3257  0.8037
 8057TIP3    H245663   6.510   6.559   2.770  0.5557 -0.3829 -2.2322
 8058TIP3   OH245664   1.007   3.972   0.620 -0.2404  0.3639  0.3596
 8058TIP3    H145665   1.027   3.879   0.612 -2.9490 -0.5151  2.5167
 8058TIP3    H245666   0.991   4.001   0.530 -2.2033 -1.9984 -0.1231
 8059TIP3   OH245667   5.366   1.960  14.797  0.2711 -0.4356 -0.1212
 8059TIP3    H145668   5.302   1.924  14.735 -0.4892 -1.7493  1.3368
 8059TIP3    H245669   5.381   1.889  14.860  1.1006  0.7876  1.1345
 8060TIP3   OH245670   5.512   5.380  11.974 -0.4313 -0.0903 -0.0548
 8060TIP3    H145671   5.458   5.371  12.053  0.4826  0.4481  0.6385
 8060TIP3    H245672   5.553   5.465  11.983  0.0413 -0.2248 -0.8989
 8061TIP3   OH245673   3.991   3.079  15.760 -0.4753 -0.5724 -0.4835
 8061TIP3    H145674   3.990   3.097  15.854  1.2608  0.0924 -0.5549
 8061TIP3    H245675   3.939   3.150  15.721  0.7217  0.5020 -0.1887
 8062TIP3   OH245676   6.309   2.488   2.321 -0.2584 -0.1111 -0.8154
 8062TIP3    H145677   6.394   2.458   2.289  0.0931 -2.0674  1.6060
 8062TIP3    H245678   6.330   2.555   2.387 -0.6294 -0.1132 -0.6922
 8063TIP3   OH245679   6.283   1.409  14.324 -0.1080 -0.2381 -0.0843
 8063TIP3    H145680   6.192   1.440  14.325  0.3351  1.1736 -0.6959
 8063TIP3    H245681   6.297   1.378  14.234 -0.0305 -0.6181  0.0573
 8064TIP3   OH245682   3.269   2.576  11.538 -0.8168  0.3153 -0.3016
 8064TIP3    H145683   3.329   2.536  11.600  1.3774  1.2424 -1.7086
 8064TIP3    H245684   3.183   2.571  11.581  0.4607  0.2924  2.4603
 8065TIP3   OH245685   3.774   0.256   0.065 -0.2407  0.2508 -0.6448
 8065TIP3    H145686   3.821   0.191   0.118 -1.4062 -0.4944 -0.5053
 8065TIP3    H245687   3.682   0.237   0.080 -0.7353  3.5010  1.3852
 8066TIP3   OH245688   0.656   5.190  12.393  0.0582 -0.2016 -0.1678
 8066TIP3    H145689   0.590   5.260  12.388  0.7096  0.4747  0.4183
 8066TIP3    H245690   0.626   5.125  12.329 -1.1680  0.0877  0.0786
 8067TIP3   OH245691   0.559   0.895   5.978 -0.9025  0.1722  0.3238
 8067TIP3    H145692   0.531   0.808   6.006 -1.0767 -0.4509 -1.6287
 8067TIP3    H245693   0.479   0.947   5.979 -0.6401  0.6318  2.4091
 8068TIP3   OH245694   6.042   1.363   4.776 -0.6774  0.2186 -0.2422
 8068TIP3    H145695   5.967   1.309   4.800 -1.4356  0.4008 -2.0422
 8068TIP3    H245696   6.015   1.408   4.696  0.2923  2.5299  0.6531
 8069TIP3   OH245697   1.926   1.748  15.179 -0.6650 -0.2984 -0.3271
 8069TIP3    H145698   1.993   1.689  15.144  0.8697  0.0018  1.8487
 8069TIP3    H245699   1.849   1.692  15.192  0.0444 -1.3050 -0.3418
 8070TIP3   OH245700   2.913   6.769   1.367 -0.4827 -0.2684  0.4458
 8070TIP3    H145701   2.863   6.725   1.298  0.1640 -0.1093 -0.1317
 8070TIP3    H245702   3.005   6.758   1.341 -0.2687  0.5001  0.8533
 8071TIP3   OH245703   5.483   4.511  14.843  0.8326  0.2555 -0.2765
 8071TIP3    H145704   5.550   4.578  14.827 -0.9016  1.8125 -1.4266
 8071TIP3    H245705   5.461   4.478  14.756  0.7378 -0.8855  0.1700
 8072TIP3   OH245706   3.389   1.598   5.344 -0.6063  0.4498 -0.0623
 8072TIP3    H145707   3.316   1.555   5.388 -0.2370  0.4441  0.5537
 8072TIP3    H245708   3.449   1.621   5.414 -0.4716  1.3536 -0.4659
 8073TIP3   OH245709   6.022   6.686   3.085  0.5229 -0.0352  0.1761
 8073TIP3    H145710   6.053   6.598   3.105 -0.0594 -0.0975  0.8431
 8073TIP3    H245711   5.984   6.679   2.998 -0.2281 -0.6367  0.5442
 8074TIP3   OH245712   2.984   1.681   0.934 -0.1553 -0.4011  0.0688
 8074TIP3    H145713   2.984   1.771   0.901 -0.9709 -0.0273  1.0140
 8074TIP3    H245714   2.900   1.673   0.979 -0.0733 -1.6338  0.0209
 8075TIP3   OH245715   1.656   0.437   1.447 -0.1751  0.2959  0.5412
 8075TIP3    H145716   1.671   0.394   1.531 -0.2057  0.5214  0.6614
 8075TIP3    H245717   1.581   0.494   1.462 -0.9509 -0.5612  0.0417
 8076TIP3   OH245718   3.170   5.673  17.119 -0.0814  0.2070 -0.4201
 8076TIP3    H145719   3.185   5.726  17.040  0.5255 -0.0329 -0.4684
 8076TIP3    H245720   3.106   5.607  17.092  1.1534 -0.7503 -1.1256
 8077TIP3   OH245721   6.554   5.445   4.675  0.4067 -0.5963  0.5470
 8077TIP3    H145722   6.513   5.503   4.738 -1.1144 -0.9160 -0.0948
 8077TIP3    H245723   6.498   5.451   4.597 -0.2821 -3.4666  0.7173
 8078TIP3   OH245724   6.731   4.568  14.526  0.1734 -0.3398  0.0863
 8078TIP3    H145725   6.644   4.608  14.525  0.4277  0.2163 -0.0025
 8078TIP3    H245726   6.719   4.487  14.576 -0.1817  0.2217  0.9381
 8079TIP3   OH245727   1.709   6.818  15.984 -0.6153  0.0421  0.0796
 8079TIP3    H145728   1.770   6.864  16.041  0.7281 -0.2832 -1.0627
 8079TIP3    H245729   1.745   6.828  15.896 -1.5645 -1.1972 -0.4812
 8080TIP3   OH245730   0.849   5.450   4.387  0.4076  0.0375  0.2401
 8080TIP3    H145731   0.877   5.499   4.464  0.9604  0.6913 -0.3489
 8080TIP3    H245732   0.835   5.517   4.320  0.2281 -0.5356 -0.3114
 8081TIP3   OH245733   3.531   0.751  13.455  0.1449 -0.4815 -0.2518
 8081TIP3    H145734   3.524   0.763  13.550  0.2361 -1.9237 -0.0390
 8081TIP3    H245735   3.623   0.766  13.436  0.1729 -0.4264 -0.0804
 8082TIP3   OH245736   3.424   6.737   5.761 -0.0080  0.0976  0.1778
 8082TIP3    H145737   3.427   6.689   5.678 -2.3214  0.5536 -0.2574
 8082TIP3    H245738   3.368   6.683   5.817  0.0974  0.6595  0.8318
 8083TIP3   OH245739   3.064   2.509  15.963 -0.2187  0.0221  0.0102
 8083TIP3    H145740   3.047   2.590  16.011 -0.0042 -0.1004  0.2950
 8083TIP3    H245741   2.977   2.475  15.943 -0.3132  0.0326  0.3871
 8084TIP3   OH245742   2.478   6.384  13.154  0.3059  0.0523 -0.1044
 8084TIP3    H145743   2.423   6.320  13.198 -0.0645  0.9891  0.8295
 8084TIP3    H245744   2.442   6.391  13.065 -0.1438 -0.4284  0.0400
 8085TIP3   OH245745   3.633   0.295  13.617 -0.0711 -0.0207 -0.3756
 8085TIP3    H145746   3.712   0.303  13.669 -0.7247 -0.3145  0.7032
 8085TIP3    H245747   3.639   0.364  13.551  1.4870 -0.6048 -0.8888
 8086TIP3   OH245748   3.881   2.507  12.590 -0.0577  0.8004  0.9272
 8086TIP3    H145749   3.831   2.557  12.655 -1.0165  0.3541  0.5595
 8086TIP3    H245750   3.965   2.490  12.632  0.5036  3.1089  0.8828
 8087TIP3   OH245751   4.231   2.340   2.013 -0.0162  0.3606  0.1033
 8087TIP3    H145752   4.178   2.279   1.961  1.0129  0.4469 -1.0897
 8087TIP3    H245753   4.175   2.417   2.024 -0.3597  0.2322 -0.6541
 8088TIP3   OH245754   0.897   1.790   0.051  0.1350 -0.4599 -0.3275
 8088TIP3    H145755   0.874   1.750   0.135 -1.0102  1.1289  0.1614
 8088TIP3    H245756   0.988   1.766   0.037 -0.2508 -2.4859  0.3420
 8089TIP3   OH245757   5.331   1.756  13.632  0.1419 -0.2815  0.2643
 8089TIP3    H145758   5.251   1.705  13.618 -0.0959  0.5164 -1.5498
 8089TIP3    H245759   5.321   1.833  13.576  1.6174  0.4997  1.0007
 8090TIP3   OH245760   3.860   1.170   4.515  0.0784  0.1316 -0.5730
 8090TIP3    H145761   3.777   1.124   4.524  1.4889 -2.5795 -0.1965
 8090TIP3    H245762   3.863   1.230   4.590 -1.2002 -0.2595 -0.1973
 8091TIP3   OH245763   4.512   4.420   4.130  0.1495  1.4475  0.2569
 8091TIP3    H145764   4.579   4.385   4.072  0.3451  1.7599  0.2869
 8091TIP3    H245765   4.464   4.344   4.161 -0.3081  1.3188 -0.7391
 8092TIP3   OH245766   1.517   5.390   1.448  0.1007 -0.4046 -0.1160
 8092TIP3    H145767   1.592   5.417   1.394 -1.4358  1.1344 -1.6130
 8092TIP3    H245768   1.447   5.449   1.422 -1.3478 -1.0488  2.0769
 8093TIP3   OH245769   3.193   0.388  15.717 -0.2865 -0.1438 -0.6108
 8093TIP3    H145770   3.165   0.316  15.661 -1.3082  0.3927 -0.8208
 8093TIP3    H245771   3.284   0.404  15.693 -0.2504 -0.9151 -1.0310
 8094TIP3   OH245772   4.769   6.371  14.208  0.5958  0.5333  0.0240
 8094TIP3    H145773   4.772   6.450  14.262 -0.2885  0.3278  0.3856
 8094TIP3    H245774   4.766   6.299  14.271 -2.3165  0.3481 -0.2229
 8095TIP3   OH245775   3.778   2.929  16.055 -0.1426 -0.0396 -0.1045
 8095TIP3    H145776   3.729   2.977  16.122 -1.6305 -0.0915 -1.1024
 8095TIP3    H245777   3.840   2.993  16.020  0.3840  0.0952  1.0254
 8096TIP3   OH245778   4.880   0.764  13.394  0.1254  0.2244  0.4439
 8096TIP3    H145779   4.900   0.714  13.472  0.0923  0.5428  0.6597
 8096TIP3    H245780   4.952   0.828  13.388  0.0481  0.2978  0.3016
 8097TIP3   OH245781   3.366   1.609  15.232  0.1364  0.3868 -0.5746
 8097TIP3    H145782   3.280   1.580  15.263  0.2093 -0.4065 -1.0721
 8097TIP3    H245783   3.347   1.680  15.171 -0.2150 -0.1128 -1.0644
 8098TIP3   OH245784   6.431   1.873  14.484  0.1374  0.1775 -0.6849
 8098TIP3    H145785   6.420   1.967  14.476  0.7696  0.1454 -2.4285
 8098TIP3    H245786   6.355   1.836  14.438 -0.1824 -0.1718  0.1096
 8099TIP3   OH245787   0.800   5.207   2.696  0.3422 -0.2998  0.3788
 8099TIP3    H145788   0.763   5.121   2.679  0.6106 -0.1525 -1.1980
 8099TIP3    H245789   0.838   5.201   2.783 -1.3647 -1.1519  1.0977
 8100TIP3   OH245790   0.174   4.366   0.758 -0.0387  0.1244  0.0159
 8100TIP3    H145791   0.100   4.306   0.767 -0.7724  0.8965 -0.7171
 8100TIP3    H245792   0.223   4.332   0.683 -0.2098  0.1844 -0.1240
 8101TIP3   OH245793   4.160   0.624  11.050  0.1327  0.0648  0.3151
 8101TIP3    H145794   4.206   0.707  11.065 -0.3634  0.6026 -0.9430
 8101TIP3    H245795   4.078   0.650  11.007 -0.6447 -0.9855  1.1163
 8102TIP3   OH245796   5.446   0.367   4.529 -0.0088  0.3097  0.4450
 8102TIP3    H145797   5.367   0.314   4.521 -0.1724  0.8060 -1.5314
 8102TIP3    H245798   5.416   0.457   4.517  0.8713  0.4780 -0.6444
 8103TIP3   OH245799   6.754   4.319  11.282 -0.3070 -0.3104 -0.2594
 8103TIP3    H145800   6.757   4.274  11.367  1.3250  1.6374  0.8122
 8103TIP3    H245801   6.846   4.323  11.255 -0.6286  0.6267 -1.2602
 8104TIP3   OH245802   1.843   1.193  14.500 -0.1743  0.1643  0.3997
 8104TIP3    H145803   1.812   1.177  14.411 -0.3195 -1.1341  0.6615
 8104TIP3    H245804   1.811   1.280  14.521 -0.9177  0.1262 -0.4938
 8105TIP3   OH245805   3.509   3.014  13.346  0.0111 -0.3006  0.0718
 8105TIP3    H145806   3.577   3.001  13.412  1.1939  1.1379 -0.7895
 8105TIP3    H245807   3.545   2.974  13.267 -1.5977 -2.4480  0.3424
 8106TIP3   OH245808   3.933   3.033  13.976 -0.3601  0.5331 -0.3036
 8106TIP3    H145809   4.018   3.005  13.943 -1.3572 -1.0807 -1.6397
 8106TIP3    H245810   3.874   2.962  13.954 -2.4825  2.4327 -1.1771
 8107TIP3   OH245811   3.514   4.025  12.242  0.0903  0.2421 -0.1861
 8107TIP3    H145812   3.466   3.944  12.224 -2.8724  1.9004 -0.5473
 8107TIP3    H245813   3.592   4.020  12.187 -1.2854 -1.2914 -2.1431
 8108TIP3   OH245814   0.749   4.547  15.413  0.5110  0.0591  0.1994
 8108TIP3    H145815   0.811   4.479  15.442 -0.7816 -1.6054 -0.7272
 8108TIP3    H245816   0.668   4.527  15.459  0.5553  2.1372  1.2998
 8109TIP3   OH245817   5.348   1.870   3.774 -0.8247 -0.2396 -0.1165
 8109TIP3    H145818   5.365   1.889   3.866  0.6194 -0.7965 -0.2451
 8109TIP3    H245819   5.346   1.956   3.731  1.8199 -0.0773 -0.0765
 8110TIP3   OH245820   5.125   1.258   2.480 -0.0241 -0.1040 -0.2043
 8110TIP3    H145821   5.173   1.340   2.466  1.6488 -0.4421  2.7557
 8110TIP3    H245822   5.061   1.279   2.548 -2.3438 -0.3733 -2.1764
 8111TIP3   OH245823   5.294   4.456   3.060 -0.3850  0.6251  0.1046
 8111TIP3    H145824   5.353   4.500   3.121 -0.9258  1.1958  0.2246
 8111TIP3    H245825   5.246   4.527   3.017 -0.2404  0.2155 -0.7491
 8112TIP3   OH245826   1.236   0.594   2.048 -0.0561 -0.0787 -0.2272
 8112TIP3    H145827   1.253   0.530   1.979 -2.3171 -2.2098  1.0524
 8112TIP3    H245828   1.186   0.546   2.114  1.4721  1.9887  2.6765
 8113TIP3   OH245829   2.514   3.701   2.175 -0.1441 -0.1576 -0.2705
 8113TIP3    H145830   2.496   3.699   2.081  2.0866  1.3109 -0.7990
 8113TIP3    H245831   2.603   3.668   2.183 -0.7347 -1.5273  1.5305
 8114TIP3   OH245832   5.910   0.554   3.460 -0.3329 -0.1087 -0.0412
 8114TIP3    H145833   5.896   0.489   3.391 -1.9181  0.0620  0.0725
 8114TIP3    H245834   5.934   0.634   3.413  3.1179 -1.0590 -0.1107
 8115TIP3   OH245835   0.461   6.828   4.710  0.4591  0.4142 -0.4995
 8115TIP3    H145836   0.539   6.821   4.764  0.0913  0.8087  0.1016
 8115TIP3    H245837   0.461   6.749   4.656  1.2550  0.4052 -0.4900
 8116TIP3   OH245838   4.299   3.851   2.667  0.1723  0.3294 -0.0853
 8116TIP3    H145839   4.204   3.839   2.671  0.4069 -1.5853  0.4916
 8116TIP3    H245840   4.335   3.762   2.662  1.8542  1.0409 -2.8743
 8117TIP3   OH245841   6.384   5.372  16.702  0.2021  0.3669 -0.1399
 8117TIP3    H145842   6.378   5.369  16.607  0.0315 -2.3826 -0.1081
 8117TIP3    H245843   6.478   5.368  16.721  0.2355  0.8998 -0.1615
 8118TIP3   OH245844   6.066   1.979   4.783  0.1970  0.3621 -0.1892
 8118TIP3    H145845   5.989   1.968   4.839  1.2220  1.2334  1.4501
 8118TIP3    H245846   6.100   1.890   4.771  0.8653  0.2861  1.9317
 8119TIP3   OH245847   6.085   4.196  13.777 -0.4040  0.1357  0.1773
 8119TIP3    H145848   5.990   4.200  13.767 -0.3576  0.5559 -0.1351
 8119TIP3    H245849   6.101   4.231  13.865 -0.4232  1.7146 -0.4163
 8120TIP3   OH245850   4.429   0.502   4.299  0.9053 -0.5558  0.3221
 8120TIP3    H145851   4.433   0.524   4.392  1.4442  1.6638 -0.1727
 8120TIP3    H245852   4.345   0.536   4.270  0.0654 -2.5645  0.2589
 8121TIP3   OH245853   6.564   6.382  13.469 -0.0336  0.2290 -0.5710
 8121TIP3    H145854   6.622   6.434  13.414  0.5992  0.8958  0.6816
 8121TIP3    H245855   6.528   6.316  13.410  0.4118  1.0756 -1.8296
 8122TIP3   OH245856   4.607   1.499   6.143  0.2536  0.2774 -0.2170
 8122TIP3    H145857   4.668   1.426   6.158  0.3954  0.6450  1.0755
 8122TIP3    H245858   4.543   1.492   6.214  0.7105  1.8546  0.4029
 8123TIP3   OH245859   3.930   2.894  16.745  0.0474 -0.2340  0.4072
 8123TIP3    H145860   4.006   2.838  16.764  0.1720  0.3514  1.7154
 8123TIP3    H245861   3.928   2.900  16.649  2.6297  1.0203  0.3454
 8124TIP3   OH245862   3.282   6.572   1.253  0.4265 -0.1139 -0.3048
 8124TIP3    H145863   3.375   6.585   1.276  1.0914 -2.1866 -1.5983
 8124TIP3    H245864   3.283   6.559   1.159 -1.5284  2.1783 -0.7307
 8125TIP3   OH245865   6.795   0.443  10.969 -0.5951  0.2682  0.4194
 8125TIP3    H145866   6.738   0.506  10.925 -1.4589 -0.9189 -0.2034
 8125TIP3    H245867   6.737   0.393  11.025  0.4166  1.4760  2.6906
 8126TIP3   OH245868   4.003   1.535   2.044 -0.1230 -0.1285 -0.3631
 8126TIP3    H145869   3.990   1.535   1.950  0.4784 -0.4060 -0.4509
 8126TIP3    H245870   4.032   1.446   2.065 -1.5680 -0.4723  0.2800
 8127TIP3   OH245871   1.408   1.492  12.576  0.1084  0.1014 -0.0734
 8127TIP3    H145872   1.477   1.557  12.565  0.3446 -0.2596 -0.8339
 8127TIP3    H245873   1.454   1.413  12.604 -0.2364  0.3876  1.3577
 8128TIP3   OH245874   1.640   5.408  16.900 -0.2019 -0.0136 -0.3056
 8128TIP3    H145875   1.718   5.428  16.847 -0.3612 -2.3059 -1.5764
 8128TIP3    H245876   1.567   5.413  16.838 -0.6076 -1.1253  0.0490
 8129TIP3   OH245877   4.519   6.005   4.497 -0.1427  0.3580  0.5180
 8129TIP3    H145878   4.610   6.008   4.527 -0.3509 -3.5356  2.0651
 8129TIP3    H245879   4.468   6.035   4.572 -0.2470  1.9092 -0.1309
 8130TIP3   OH245880   4.667   0.148  14.349 -0.0442 -0.5779 -0.0269
 8130TIP3    H145881   4.715   0.107  14.278 -1.3773 -0.4876 -1.0342
 8130TIP3    H245882   4.634   0.230  14.311  1.1633  0.6352  1.4292
 8131TIP3   OH245883   5.865   3.914  12.339  0.1340 -1.1011 -0.0589
 8131TIP3    H145884   5.896   3.931  12.428  0.5293 -0.4993 -0.3078
 8131TIP3    H245885   5.865   3.999  12.297  1.7081 -1.6371 -1.2025
 8132TIP3   OH245886   4.699   6.726  11.578 -0.2260  0.2871 -0.0926
 8132TIP3    H145887   4.784   6.683  11.580  0.4121  1.4561 -0.9291
 8132TIP3    H245888   4.715   6.812  11.618 -1.6983 -0.5528  2.5502
 8133TIP3   OH245889   1.096   0.924  14.549  0.3353  0.2972  0.1876
 8133TIP3    H145890   1.016   0.951  14.595 -0.0454 -0.7001  0.1340
 8133TIP3    H245891   1.165   0.929  14.615  0.0388  0.1684  0.5070
 8134TIP3   OH245892   4.172   4.688   5.612 -0.0699  0.0293 -0.3223
 8134TIP3    H145893   4.156   4.640   5.530 -1.1387 -1.6584  0.7958
 8134TIP3    H245894   4.266   4.680   5.627 -0.1136 -1.1055 -0.5568
 8135TIP3   OH245895   4.730   3.376   6.009  0.2760  0.0700  0.1364
 8135TIP3    H145896   4.721   3.334   5.924 -0.9712 -1.3284  0.9047
 8135TIP3    H245897   4.824   3.377   6.026  0.7349  2.0744 -2.0184
 8136TIP3   OH245898   2.743   2.786   3.980 -0.4834 -0.2406  0.3627
 8136TIP3    H145899   2.838   2.780   3.972 -0.4283 -0.0234  0.8325
 8136TIP3    H245900   2.718   2.707   4.029 -0.5896 -0.5003 -0.1072
 8137TIP3   OH245901   4.554   0.302  13.869  0.1743  0.8359 -0.2804
 8137TIP3    H145902   4.596   0.371  13.818  0.1058  1.5591  0.6037
 8137TIP3    H245903   4.616   0.283  13.939  0.3076 -0.2105 -0.6674
 8138TIP3   OH245904   4.751   0.951   4.896  0.3377 -0.2988 -0.3188
 8138TIP3    H145905   4.657   0.938   4.901  0.2715  0.5789  2.3199
 8138TIP3    H245906   4.767   0.985   4.808 -1.8516 -0.0686 -0.6607
 8139TIP3   OH245907   2.407   3.696  11.948  0.4913  0.3570 -0.1862
 8139TIP3    H145908   2.429   3.780  11.987  3.4028 -0.3767 -0.0494
 8139TIP3    H245909   2.406   3.635  12.022  0.8171 -0.1518 -0.5969
 8140TIP3   OH245910   3.832   5.727   4.652  0.0760  0.5894  0.2716
 8140TIP3    H145911   3.798   5.816   4.647  0.3074  0.6759  0.2327
 8140TIP3    H245912   3.848   5.702   4.560 -0.7124  0.2260  0.2268
 8141TIP3   OH245913   6.004   4.986   3.942 -0.1171  0.1110 -0.3915
 8141TIP3    H145914   6.044   4.899   3.934 -2.8446 -1.0893 -2.9650
 8141TIP3    H245915   5.961   4.985   4.027  0.0261 -0.9855 -0.3116
 8142TIP3   OH245916   6.405   6.361  14.250  0.7898  0.0500 -0.1642
 8142TIP3    H145917   6.316   6.330  14.266  0.3121  1.6007  0.4112
 8142TIP3    H245918   6.460   6.310  14.309  0.0052  0.4800  0.9599
 8143TIP3   OH245919   0.926   6.316  14.541  0.0652  0.7245  0.6766
 8143TIP3    H145920   0.914   6.315  14.636 -2.2909  0.1701  0.4283
 8143TIP3    H245921   0.843   6.348  14.506  0.5650  0.0875 -1.2322
 8144TIP3   OH245922   5.348   3.182   5.465 -0.1412  0.6557  0.0432
 8144TIP3    H145923   5.383   3.196   5.377  2.5543 -0.9558  0.7517
 8144TIP3    H245924   5.333   3.087   5.470 -3.4667  1.0609  0.3111
 8145TIP3   OH245925   0.087   0.838   6.137 -0.6819  0.1820 -0.3895
 8145TIP3    H145926   0.006   0.853   6.186 -0.5755 -1.1528  0.2379
 8145TIP3    H245927   0.156   0.874   6.193 -0.7309  0.3274 -0.4218
 8146TIP3   OH245928   4.477   6.079  12.972  0.0134  0.5297 -0.6174
 8146TIP3    H145929   4.382   6.076  12.957  0.1360  1.2264 -1.6468
 8146TIP3    H245930   4.486   6.122  13.057 -0.6674 -2.2682  1.0005
 8147TIP3   OH245931   5.917   2.846   5.601 -0.2144 -0.0510  0.2900
 8147TIP3    H145932   5.937   2.883   5.515 -0.0174  0.6825  0.6439
 8147TIP3    H245933   5.897   2.922   5.656  2.6586 -0.1618  1.6953
 8148TIP3   OH245934   2.567   1.380   4.911 -0.4607 -0.4952 -0.1717
 8148TIP3    H145935   2.567   1.386   5.006  1.2441 -1.7032 -0.0478
 8148TIP3    H245936   2.535   1.291   4.893 -2.2191  0.2142 -0.8347
 8149TIP3   OH245937   4.962   3.407   0.134  0.2970  0.1574  0.0588
 8149TIP3    H145938   4.951   3.341   0.202  0.4369  0.2244  0.1475
 8149TIP3    H245939   5.020   3.473   0.173  0.9000 -0.1217 -0.3469
 8150TIP3   OH245940   5.041   6.625   1.743 -0.1254 -0.4817  0.1203
 8150TIP3    H145941   4.947   6.609   1.740 -0.2273  0.1532 -1.6130
 8150TIP3    H245942   5.073   6.574   1.817 -1.3498 -3.2966 -1.1455
 8151TIP3   OH245943   0.831   1.757  15.267 -0.2849 -0.7475  0.2736
 8151TIP3    H145944   0.792   1.844  15.266 -0.5356 -0.8584  0.0790
 8151TIP3    H245945   0.846   1.738  15.359 -3.5053 -1.9266  0.7032
 8152TIP3   OH245946   1.962   5.994   3.577 -0.6660 -0.3265 -0.0219
 8152TIP3    H145947   1.923   5.907   3.573 -0.9186 -0.2067 -0.1666
 8152TIP3    H245948   2.004   6.005   3.491 -1.1157 -0.0840 -0.2179
 8153TIP3   OH245949   6.662   1.420  13.593  0.0555  0.7583  0.0588
 8153TIP3    H145950   6.739   1.364  13.608 -0.9211 -0.8939 -0.8076
 8153TIP3    H245951   6.647   1.415  13.499 -1.4963  0.5005  0.2993
 8154TIP3   OH245952   6.788   0.174  15.347  0.3239  0.1434  0.0769
 8154TIP3    H145953   6.837   0.142  15.272  3.0369 -0.3598  1.8923
 8154TIP3    H245954   6.803   0.108  15.415 -1.2901  0.9970  1.3274
 8155TIP3   OH245955   6.003   3.806   3.240  0.3086  0.0478 -0.1053
 8155TIP3    H145956   6.093   3.818   3.209 -0.1112  1.6649 -0.7791
 8155TIP3    H245957   5.998   3.857   3.320  0.1312 -0.4861  0.2284
 8156TIP3   OH245958   4.342   5.500  17.032  0.3021 -0.1541  0.4090
 8156TIP3    H145959   4.352   5.406  17.018  0.2716 -0.1786  0.5452
 8156TIP3    H245960   4.365   5.540  16.949 -0.9479 -0.3573 -0.0595
 8157TIP3   OH245961   3.061   0.629  17.035 -0.4202  0.5152 -0.4537
 8157TIP3    H145962   3.117   0.696  17.075  0.2656 -0.5298  0.3963
 8157TIP3    H245963   3.035   0.574  17.108 -1.5497  0.2519 -1.0412
 8158TIP3   OH245964   0.994   5.815  12.886 -0.3309 -0.1790 -0.0308
 8158TIP3    H145965   1.017   5.826  12.978 -1.1067  1.3737  0.0236
 8158TIP3    H245966   0.930   5.744  12.885 -1.9660  1.2044  0.9627
 8159TIP3   OH245967   3.141   0.569  14.769 -0.1895  0.3184  0.3863
 8159TIP3    H145968   3.103   0.633  14.829 -2.4427 -1.6784  1.2614
 8159TIP3    H245969   3.083   0.571  14.692  0.1314 -0.1335  0.1248
 8160TIP3   OH245970   0.790   4.067   2.455  0.6290 -0.2996  0.1002
 8160TIP3    H145971   0.794   3.975   2.429  1.7974 -0.5274  0.9929
 8160TIP3    H245972   0.728   4.106   2.394  2.5245 -0.9867 -2.4477
 8161TIP3   OH245973   0.781   4.432  11.656 -0.1411 -0.1103 -0.1044
 8161TIP3    H145974   0.720   4.401  11.589  0.5544 -2.7211  0.3862
 8161TIP3    H245975   0.738   4.413  11.739  0.2642  0.4241  0.2361
 8162TIP3   OH245976   1.126   5.490  15.651  0.1235 -0.0091 -0.3107
 8162TIP3    H145977   1.145   5.582  15.633 -2.0919  0.5497 -0.0563
 8162TIP3    H245978   1.206   5.456  15.692  0.5489  2.1358  0.7600
 8163TIP3   OH245979   1.215   3.740  13.210 -0.5851 -0.0537 -0.2821
 8163TIP3    H145980   1.173   3.665  13.167 -0.7878  0.1490 -0.4339
 8163TIP3    H245981   1.225   3.712  13.301 -1.8794  0.2447 -0.0352
 8164TIP3   OH245982   0.756   4.453  14.987 -0.1664  0.0111  0.0333
 8164TIP3    H145983   0.778   4.535  15.031 -1.5770 -0.1642  1.1092
 8164TIP3    H245984   0.706   4.480  14.910  2.4830  0.3309 -1.7440
 8165TIP3   OH245985   1.372   4.043   4.483  0.1592  0.0022 -0.6387
 8165TIP3    H145986   1.423   4.121   4.462  0.9950 -0.1602  0.6889
 8165TIP3    H245987   1.421   4.001   4.553 -1.1871 -0.7993 -0.1550
 8166TIP3   OH245988   5.072   0.429  14.908  0.3313  0.6531  0.3065
 8166TIP3    H145989   4.988   0.475  14.907  0.8645  1.6584  0.7562
 8166TIP3    H245990   5.066   0.372  14.985 -0.5691 -0.5234 -0.6005
 8167TIP3   OH245991   5.576   3.172   5.252  0.4558  0.1046  0.1930
 8167TIP3    H145992   5.636   3.162   5.179  2.4249  1.7608  1.4462
 8167TIP3    H245993   5.616   3.123   5.324  0.4702  1.3617  1.0991
 8168TIP3   OH245994   0.972   5.047  13.521 -0.3069  0.3893  0.0656
 8168TIP3    H145995   1.063   5.031  13.545  0.6010  0.6285 -2.8521
 8168TIP3    H245996   0.923   4.981  13.569  1.4133 -0.0271  1.3731
 8169TIP3   OH245997   2.616   4.005   0.761  0.4691 -0.1080  0.5511
 8169TIP3    H145998   2.566   3.948   0.819  0.2476 -0.4866  0.0042
 8169TIP3    H245999   2.568   4.001   0.678  0.1436  1.3054  0.6449
 8170TIP3   OH246000   4.717   3.999   0.935 -0.1910  0.0885 -0.4723
 8170TIP3    H146001   4.669   3.920   0.910  1.1815 -1.2869  1.0243
 8170TIP3    H246002   4.766   3.974   1.013 -0.5900  2.7723  0.7518
 8171TIP3   OH246003   5.369   1.191   0.959 -0.0411 -0.0598  0.3711
 8171TIP3    H146004   5.322   1.111   0.979  2.7179 -1.1840  3.2310
 8171TIP3    H246005   5.338   1.216   0.873 -0.8580 -4.3513 -0.8186
 8172TIP3   OH246006   0.074   5.720  13.450 -0.4079  0.4326  0.0431
 8172TIP3    H146007   0.135   5.664  13.402 -1.0580 -0.9275  0.7381
 8172TIP3    H246008   0.122   5.745  13.529 -0.8518 -0.9928  0.8016
 8173TIP3   OH246009   1.705   0.456  15.866 -0.1533  0.2331  0.3319
 8173TIP3    H146010   1.685   0.387  15.804  1.7540  0.9294 -1.1795
 8173TIP3    H246011   1.620   0.496  15.886 -1.0804 -1.4838 -0.0070
 8174TIP3   OH246012   4.401   4.815  12.218  0.1805  0.2164  0.1157
 8174TIP3    H146013   4.310   4.845  12.211 -0.7327 -2.5131 -1.1374
 8174TIP3    H246014   4.435   4.821  12.128  0.8867  0.1745  0.3733
 8175TIP3   OH246015   6.301   1.409  12.222  0.7777 -0.1555  0.2667
 8175TIP3    H146016   6.315   1.441  12.133  1.8206  0.3828  0.6026
 8175TIP3    H246017   6.273   1.486  12.272  0.4780 -0.3919  0.4762
 8176TIP3   OH246018   4.265   0.931   3.282 -0.3998 -0.3412 -0.1576
 8176TIP3    H146019   4.343   0.935   3.227  0.4721 -1.3065  0.9487
 8176TIP3    H246020   4.200   0.884   3.230 -0.3171  0.6344 -1.1627
 8177TIP3   OH246021   2.776   0.343   5.843 -0.4953  0.2800 -0.5820
 8177TIP3    H146022   2.856   0.331   5.791 -0.1130 -1.3653  0.3283
 8177TIP3    H246023   2.800   0.408   5.909 -0.0210  0.0842 -0.5547
 8178TIP3   OH246024   0.220   3.008  14.300 -0.3372 -0.0860  0.2570
 8178TIP3    H146025   0.163   3.011  14.223 -0.8840  0.0490  0.6649
 8178TIP3    H246026   0.178   2.946  14.359  0.4828 -0.7797  0.1366
 8179TIP3   OH246027   1.030   4.167  16.310 -0.6807  0.2340 -0.2633
 8179TIP3    H146028   1.059   4.098  16.370 -2.0302 -0.0403  0.0886
 8179TIP3    H246029   1.073   4.246  16.342 -1.1087  0.0279  0.8665
 8180TIP3   OH246030   2.479   2.259  16.658 -0.1876 -1.0093  0.7303
 8180TIP3    H146031   2.462   2.353  16.659  0.1853 -0.8865 -0.9709
 8180TIP3    H246032   2.572   2.252  16.681 -0.0746 -0.9008  0.3274
 8181TIP3   OH246033   2.917   2.917  13.503  0.2927  0.4479  0.0009
 8181TIP3    H146034   2.854   2.856  13.544  0.8387 -0.4019 -0.4022
 8181TIP3    H246035   2.864   2.970  13.444 -0.0160 -0.5217 -0.6267
 8182TIP3   OH246036   1.345   5.966   0.135  0.0269  0.3477  0.2162
 8182TIP3    H146037   1.305   5.906   0.072 -0.9943  0.9113  0.3046
 8182TIP3    H246038   1.405   6.019   0.084  2.1075 -1.7000  0.3678
 8183TIP3   OH246039   5.379   5.512  13.337 -0.1319  0.3497 -0.4149
 8183TIP3    H146040   5.317   5.440  13.349  0.7570 -0.5317 -0.8983
 8183TIP3    H246041   5.326   5.591  13.339 -1.2129 -0.3592 -0.4694
 8184TIP3   OH246042   1.401   1.673  16.099 -1.0618 -0.3856  0.3297
 8184TIP3    H146043   1.467   1.624  16.147 -1.3185 -0.5867  0.4834
 8184TIP3    H246044   1.431   1.764  16.101 -1.6065 -0.2036  1.8217
 8185TIP3   OH246045   4.195   1.033   6.302  0.3276  0.1559 -0.2864
 8185TIP3    H146046   4.167   1.080   6.381 -1.9647  0.0023 -0.9423
 8185TIP3    H246047   4.124   0.971   6.284 -0.2124  1.5131 -3.5569
 8186TIP3   OH246048   2.717   3.585   0.720 -0.0583 -0.4056 -0.1720
 8186TIP3    H146049   2.715   3.491   0.735  2.2602 -0.4868 -0.0517
 8186TIP3    H246050   2.793   3.616   0.770 -1.0469  1.6187  0.1965
 8187TIP3   OH246051   5.680   6.187   3.605 -0.4835 -0.2384 -0.1936
 8187TIP3    H146052   5.608   6.136   3.567 -0.4347 -0.8832  0.5584
 8187TIP3    H246053   5.734   6.211   3.530 -0.2123 -1.7685 -0.5389
 8188TIP3   OH246054   5.674   5.700   4.720  0.2053 -0.0210  0.0240
 8188TIP3    H146055   5.608   5.760   4.756  0.9791  0.9606 -0.1797
 8188TIP3    H246056   5.630   5.615   4.720 -0.7966  0.4730  0.6262
 8189TIP3   OH246057   6.767   2.034  15.755  0.1919 -0.0339 -0.9777
 8189TIP3    H146058   6.779   2.051  15.849  1.4961 -0.8574 -0.9713
 8189TIP3    H246059   6.836   2.085  15.713  0.7686 -1.0782 -1.3384
 8190TIP3   OH246060   5.997   5.441   3.260 -1.2362 -0.0224 -0.3483
 8190TIP3    H146061   6.005   5.530   3.225  1.5383  1.3156  3.1392
 8190TIP3    H246062   6.081   5.400   3.240 -0.4139  0.0688  2.5869
 8191TIP3   OH246063   1.252   6.752  13.493 -0.7283  0.0022 -0.9588
 8191TIP3    H146064   1.169   6.782  13.532  0.3973 -0.5016  2.1465
 8191TIP3    H246065   1.316   6.818  13.520  0.5132 -1.5275  0.0530
 8192TIP3   OH246066   6.377   0.346   1.159 -0.3202 -1.0551  0.1390
 8192TIP3    H146067   6.290   0.324   1.191 -0.0130 -0.9668  1.0502
 8192TIP3    H246068   6.375   0.441   1.148 -0.5745 -1.1344 -0.5858
 8193TIP3   OH246069   4.336   4.371  15.467 -0.0846  0.5808  0.0685
 8193TIP3    H146070   4.303   4.461  15.460 -2.2952 -0.2031 -0.5051
 8193TIP3    H246071   4.425   4.375  15.431  0.3528  2.7406  1.1900
 8194TIP3   OH246072   0.903   6.687   3.367  0.0353  0.2078 -0.2821
 8194TIP3    H146073   0.812   6.678   3.398  0.6732  1.3645  2.1028
 8194TIP3    H246074   0.953   6.627   3.422  0.9757  0.9072 -0.3593
 8195TIP3   OH246075   4.049   5.150  13.469 -0.4241 -0.2875  0.0432
 8195TIP3    H146076   3.986   5.171  13.400  2.4923  0.8337 -2.5036
 8195TIP3    H246077   4.042   5.224  13.530  0.1590  1.2139 -1.6006
 8196TIP3   OH246078   2.613   6.250  12.353 -0.1045 -0.4716 -0.6837
 8196TIP3    H146079   2.704   6.220  12.358 -0.0424 -0.0515  1.9045
 8196TIP3    H246080   2.619   6.340  12.321  0.4713 -0.2221  0.1008
 8197TIP3   OH246081   0.549   5.000  15.529 -0.1707  0.0810 -0.1657
 8197TIP3    H146082   0.621   4.947  15.563  1.1220  1.0132 -1.3464
 8197TIP3    H246083   0.493   5.016  15.605  0.1108 -1.8089  0.4957
 8198TIP3   OH246084   5.135   4.597   2.025 -0.2095  0.3519  0.3682
 8198TIP3    H146085   5.057   4.651   2.043 -1.1184 -1.1098  0.9901
 8198TIP3    H246086   5.164   4.625   1.938 -0.6161  1.8589  0.6802
 8199TIP3   OH246087   6.118   2.796  16.805  0.5474 -0.4869 -0.6155
 8199TIP3    H146088   6.050   2.819  16.741  0.5457  1.8464  0.1332
 8199TIP3    H246089   6.074   2.805  16.890  1.1414 -1.4345 -0.1887
 8200TIP3   OH246090   6.632   6.720  12.298  0.0147 -0.1000  0.1076
 8200TIP3    H146091   6.704   6.703  12.237 -0.1862  1.6764 -0.6800
 8200TIP3    H246092   6.554   6.723  12.243 -0.4542 -0.3864  0.7367
 8201TIP3   OH246093   3.337   5.290   6.436 -0.1757  0.2539 -0.1354
 8201TIP3    H146094   3.246   5.264   6.451 -0.2844  0.5164 -0.3320
 8201TIP3    H246095   3.349   5.367   6.491  0.8086 -1.4441  2.2060
 8202TIP3   OH246096   0.551   4.261   0.310 -0.4935  0.1189  0.0003
 8202TIP3    H146097   0.543   4.183   0.365 -1.5534  0.0335 -0.2564
 8202TIP3    H246098   0.517   4.234   0.224 -0.0249  0.6092 -0.3474
 8203TIP3   OH246099   2.296   1.214  14.217  0.4328 -0.0806  0.1535
 8203TIP3    H146100   2.203   1.228  14.236  0.5799 -0.0100  0.8774
 8203TIP3    H246101   2.308   1.119  14.224  0.9104  0.0867  2.6645
 8204TIP3   OH246102   4.981   2.537  14.559  0.2784 -0.1482 -0.4970
 8204TIP3    H146103   4.988   2.457  14.611  1.3944  0.6677  0.6801
 8204TIP3    H246104   5.010   2.511  14.471  0.2564 -1.1220 -0.2298
 8205TIP3   OH246105   4.652   3.231   1.881 -0.2903  0.2702  0.3171
 8205TIP3    H146106   4.696   3.252   1.963 -0.3113  1.7283 -0.0276
 8205TIP3    H246107   4.561   3.215   1.906 -0.0984 -0.2764  0.6954
 8206TIP3   OH246108   3.116   5.632   3.441  0.2160 -0.4676 -0.0049
 8206TIP3    H146109   3.163   5.710   3.471 -0.9895 -0.5458  2.2868
 8206TIP3    H246110   3.177   5.559   3.457  0.2312 -0.3117  0.6622
 8207TIP3   OH246111   0.106   0.625   1.241 -0.2725  0.2293  0.1661
 8207TIP3    H146112   0.142   0.680   1.171 -1.1538 -0.9120 -1.2454
 8207TIP3    H246113   0.012   0.642   1.239 -0.3923 -0.3339  0.5987
 8208TIP3   OH246114   2.456   0.663  16.629 -0.4427 -0.1363 -0.0069
 8208TIP3    H146115   2.408   0.733  16.673 -0.8168 -1.0890  1.1663
 8208TIP3    H246116   2.419   0.660  16.541 -0.7314  0.8390  0.0691
 8209TIP3   OH246117   3.962   2.142  12.309  0.4219  0.1071 -0.2191
 8209TIP3    H146118   4.053   2.167  12.293  1.0100 -0.4342  1.8541
 8209TIP3    H246119   3.965   2.095  12.393 -2.1633  2.7070  1.5544
 8210TIP3   OH246120   1.288   1.400  14.048  0.0837 -0.3767 -0.0811
 8210TIP3    H146121   1.319   1.489  14.062 -0.2102 -0.3715  0.6098
 8210TIP3    H246122   1.278   1.392  13.953 -0.9346  0.6974 -0.0887
 8211TIP3   OH246123   2.375   5.226  10.558 -0.0380 -0.1413  0.3316
 8211TIP3    H146124   2.356   5.136  10.533  0.2291 -0.7307  2.1513
 8211TIP3    H246125   2.299   5.275  10.527  1.0557 -0.4187 -3.2629
 8212TIP3   OH246126   1.545   1.435  13.744  0.2857  0.0858 -0.0809
 8212TIP3    H146127   1.584   1.458  13.828  0.4760 -0.8504  0.1068
 8212TIP3    H246128   1.617   1.401  13.692  0.0447  0.0110 -0.3704
 8213TIP3   OH246129   2.976   3.733  12.279 -0.6276 -0.2253 -0.4717
 8213TIP3    H146130   2.883   3.737  12.258 -0.5745  0.0478 -0.6618
 8213TIP3    H246131   2.999   3.823  12.305 -1.0007 -0.8197  2.1264
 8214TIP3   OH246132   1.654   5.986  11.992  0.5597  0.4028  0.2032
 8214TIP3    H146133   1.743   6.021  11.995 -0.0353  1.9293  0.8591
 8214TIP3    H246134   1.648   5.930  12.069  1.4826 -1.1639 -0.7947
 8215TIP3   OH246135   3.947   6.438   0.742 -0.0876 -0.0149 -0.5685
 8215TIP3    H146136   3.858   6.421   0.772  0.2817  0.8430  1.1358
 8215TIP3    H246137   3.989   6.352   0.741 -0.3921 -0.1958  0.5591
 8216TIP3   OH246138   2.917   3.117  13.711  0.4615  0.8998 -0.7088
 8216TIP3    H146139   2.935   3.108  13.804 -2.8807  0.9528  0.0796
 8216TIP3    H246140   2.910   3.027  13.679 -2.0645  0.7275  0.0598
 8217TIP3   OH246141   3.423   2.621  13.365 -0.1403 -0.7376 -0.2543
 8217TIP3    H146142   3.428   2.609  13.460 -3.1364 -2.7403 -0.1846
 8217TIP3    H246143   3.385   2.708  13.354 -0.4142 -0.7591  0.4464
 8218TIP3   OH246144   3.666   5.879  14.328  0.3798  0.0198 -0.4724
 8218TIP3    H146145   3.645   5.884  14.422  0.2895  0.2183 -0.5020
 8218TIP3    H246146   3.718   5.799  14.319 -0.6077 -0.6473 -0.4413
 8219TIP3   OH246147   4.727   3.082   4.669 -0.5074 -0.6827  0.0620
 8219TIP3    H146148   4.671   3.007   4.687 -1.2570  0.0557  0.9007
 8219TIP3    H246149   4.728   3.088   4.573 -2.5046 -0.2659  0.0228
 8220TIP3   OH246150   2.463   2.803   4.518 -0.2940 -0.0052 -0.1983
 8220TIP3    H146151   2.496   2.846   4.597 -1.9552 -0.3991  0.7560
 8220TIP3    H246152   2.536   2.750   4.487 -0.1625 -1.4092  2.2180
 8221TIP3   OH246153   6.800   0.017  15.595  0.0492 -0.0918  0.1777
 8221TIP3    H146154   6.820  -0.057  15.538  2.4552 -0.7817  1.7871
 8221TIP3    H246155   6.836  -0.008  15.681 -2.3134  1.4138  1.7409
 8222TIP3   OH246156   4.632   6.779  17.129 -0.2352 -0.2590 -0.1205
 8222TIP3    H146157   4.602   6.851  17.073 -0.4754 -0.8811 -0.8146
 8222TIP3    H246158   4.714   6.751  17.089  1.4965  1.5847  1.8966
 8223TIP3   OH246159   3.550   0.035   1.982 -0.0964  0.8619  0.0922
 8223TIP3    H146160   3.576  -0.014   2.060  2.4956  2.4762  0.3464
 8223TIP3    H246161   3.465   0.074   2.005 -0.7152 -0.9019  1.0069
 8224TIP3   OH246162   3.559   6.187  12.275  0.0765  0.3261  0.2018
 8224TIP3    H146163   3.611   6.257  12.234  1.9487 -1.4709 -0.6985
 8224TIP3    H246164   3.617   6.150  12.341  0.3249 -2.2318 -1.3365
 8225TIP3   OH246165   5.731   1.532  16.130 -0.1120  0.5074 -0.2919
 8225TIP3    H146166   5.741   1.465  16.063 -0.2254  0.9946 -0.8043
 8225TIP3    H246167   5.643   1.567  16.117  0.5627  1.9539 -1.1750
 8226TIP3   OH246168   2.497   0.299  13.144  0.5103  0.3784  0.4483
 8226TIP3    H146169   2.489   0.291  13.239  1.6427  2.2120  0.7506
 8226TIP3    H246170   2.588   0.327  13.130  0.5574 -0.4689 -1.2440
 8227TIP3   OH246171   4.034   0.756  15.649 -0.3141 -0.0508  0.1317
 8227TIP3    H146172   4.092   0.710  15.710  0.1445  0.0388 -0.2340
 8227TIP3    H246173   4.091   0.783  15.578 -1.3038 -2.8171 -1.9131
 8228TIP3   OH246174   0.926   4.133   0.403 -0.5201 -0.1608 -0.5425
 8228TIP3    H146175   0.970   4.215   0.426 -1.5079  0.0117  0.8150
 8228TIP3    H246176   0.921   4.136   0.307  0.1991  0.9681 -0.5737
 8229TIP3   OH246177   3.875   1.177  12.287 -0.0306  0.2128  0.3675
 8229TIP3    H146178   3.861   1.091  12.329 -2.1133  0.5313  0.4362
 8229TIP3    H246179   3.806   1.183  12.221  0.6117  1.4922 -0.2166
 8230TIP3   OH246180   2.847   3.933   1.971 -0.0845 -0.1636 -0.1229
 8230TIP3    H146181   2.892   3.880   1.905 -3.8239 -3.1112 -0.6249
 8230TIP3    H246182   2.873   3.892   2.054 -0.0873 -0.3626 -0.2195
 8231TIP3   OH246183   1.624   5.142  11.190 -0.3101 -0.7856 -0.0019
 8231TIP3    H146184   1.646   5.219  11.136  1.0107 -2.0947 -1.4242
 8231TIP3    H246185   1.633   5.173  11.280 -0.7070  0.9666 -0.5227
 8232TIP3   OH246186   1.665   0.377   5.492 -0.2128 -0.0051  0.2916
 8232TIP3    H146187   1.712   0.366   5.409 -0.3044 -0.2494  0.2725
 8232TIP3    H246188   1.642   0.469   5.494  1.4699  0.4460  0.9289
 8233TIP3   OH246189   6.406   6.140  12.164  0.0485  0.8563  0.1222
 8233TIP3    H146190   6.454   6.099  12.092  0.3668  2.1562 -0.4399
 8233TIP3    H246191   6.378   6.225  12.129  1.3541  2.1123  1.9241
 8234TIP3   OH246192   0.820   3.139   5.528 -0.8652  0.2484  0.2057
 8234TIP3    H146193   0.891   3.095   5.480 -1.1551 -0.9515  0.8275
 8234TIP3    H246194   0.741   3.113   5.481 -0.8998  1.9130 -0.7329
 8235TIP3   OH246195   0.445   0.291   4.195 -1.1954  0.7061 -0.2247
 8235TIP3    H146196   0.418   0.344   4.270  3.8363  1.5497  1.3400
 8235TIP3    H246197   0.465   0.205   4.232  1.6675  1.2284 -0.3093
 8236TIP3   OH246198   5.735   5.059  12.043  0.3372  0.3442  0.2937
 8236TIP3    H146199   5.681   5.107  11.980  1.2614  2.0214  0.7266
 8236TIP3    H246200   5.749   4.974  12.002 -0.1450  0.9341 -1.1742
 8237TIP3   OH246201   5.329   6.102   6.392  0.5256 -0.5165  0.4271
 8237TIP3    H146202   5.336   6.197   6.392 -1.5980 -0.2989 -0.2311
 8237TIP3    H246203   5.322   6.079   6.299 -2.2137 -0.9483  0.6756
 8238TIP3   OH246204   3.962   4.917  16.943 -0.8285  0.5671  0.2811
 8238TIP3    H146205   3.927   4.944  17.028 -2.7778  1.1891 -0.6521
 8238TIP3    H246206   3.934   4.985  16.883  1.9912  1.0514 -0.6377
 8239TIP3   OH246207   0.314   6.316  15.423 -0.0564  0.1899  0.5019
 8239TIP3    H146208   0.407   6.318  15.398 -0.2083  1.0759 -0.0108
 8239TIP3    H246209   0.315   6.321  15.519  0.3819  2.3039  0.4186
 8240TIP3   OH246210   0.502   6.644   4.940  0.1531  0.1405 -0.4381
 8240TIP3    H146211   0.513   6.735   4.967  0.4259 -0.0804  0.2173
 8240TIP3    H246212   0.472   6.649   4.849  0.4303  0.8792 -0.4949
 8241TIP3   OH246213   3.548   2.122  12.175 -0.1705  0.0039 -0.0962
 8241TIP3    H146214   3.466   2.113  12.127  0.0837  0.7047 -0.6865
 8241TIP3    H246215   3.528   2.182  12.247 -0.4698 -0.7870  0.4886
 8242TIP3   OH246216   5.558   0.837   5.781  0.0353  0.4383  0.1323
 8242TIP3    H146217   5.575   0.905   5.846 -1.3078  0.8963  0.0390
 8242TIP3    H246218   5.487   0.872   5.728 -2.5698 -2.0275  1.6847
 8243TIP3   OH246219   5.874   0.931   5.873 -0.1166 -0.1144 -0.3951
 8243TIP3    H146220   5.819   0.854   5.871 -0.2645  0.0028 -0.7676
 8243TIP3    H246221   5.870   0.967   5.785  0.7772 -0.2634 -0.5048
 8244TIP3   OH246222   1.316   1.923  14.375  0.0612 -0.1620 -0.6185
 8244TIP3    H146223   1.296   2.003  14.424 -0.3813 -0.3385 -0.5102
 8244TIP3    H246224   1.409   1.932  14.352  0.1368  0.1616 -0.2013
 8245TIP3   OH246225   4.013   3.084   4.773  0.1778  0.0878 -0.5521
 8245TIP3    H146226   3.993   3.058   4.863 -1.3240  1.6271 -0.4065
 8245TIP3    H246227   3.986   3.009   4.720  2.3147 -1.3996  0.3021
 8246TIP3   OH246228   2.563   5.915   5.966  0.2295 -0.5886  0.0454
 8246TIP3    H146229   2.628   5.979   5.936  0.1671 -0.6207 -0.1617
 8246TIP3    H246230   2.492   5.969   6.001 -0.7881 -0.4403 -2.0666
 8247TIP3   OH246231   3.945   3.600   0.029  0.4045  0.5057 -0.1359
 8247TIP3    H146232   3.886   3.653   0.081  1.6192  2.0452 -0.2776
 8247TIP3    H246233   3.971   3.656  -0.044  1.2982 -0.4645 -0.6019
 8248TIP3   OH246234   3.836   2.092  15.961  0.4509 -0.4561 -0.3132
 8248TIP3    H146235   3.774   2.080  16.034  1.7788 -0.1208  0.9218
 8248TIP3    H246236   3.918   2.055  15.994  1.9334  2.4965 -0.3682
 8249TIP3   OH246237   2.801   2.278  13.657 -0.2040 -0.3308  0.2886
 8249TIP3    H146238   2.750   2.203  13.689 -1.7875  0.5676 -0.0319
 8249TIP3    H246239   2.867   2.293  13.725 -0.5226 -1.3579  0.8540
 8250TIP3   OH246240   1.137   5.147  11.515  0.0146 -0.2505  0.2351
 8250TIP3    H146241   1.203   5.078  11.512  1.1373  0.8029 -0.4643
 8250TIP3    H246242   1.187   5.228  11.525 -1.2713  0.4684  1.1583
 8251TIP3   OH246243   1.568   6.679  16.635  0.5678 -0.4728  0.1895
 8251TIP3    H146244   1.577   6.605  16.695  0.7403  0.2966  1.1448
 8251TIP3    H246245   1.474   6.690  16.624  0.5411 -1.3973 -0.7082
 8252TIP3   OH246246   2.385   5.353  13.863  0.2758  0.0060  0.1606
 8252TIP3    H146247   2.364   5.311  13.779 -0.1252  0.9797 -0.2395
 8252TIP3    H246248   2.474   5.324  13.882 -1.0674 -3.6952  1.5606
 8253TIP3   OH246249   5.394   4.913   4.223 -0.4033 -0.8102  0.5162
 8253TIP3    H146250   5.316   4.965   4.245 -1.0870 -0.7840 -1.7092
 8253TIP3    H246251   5.467   4.964   4.259 -1.1238  1.2630 -0.7883
 8254TIP3   OH246252   5.524   6.342   3.854  0.0184 -0.3244  0.5556
 8254TIP3    H146253   5.434   6.310   3.852  0.2728 -1.0619  0.2039
 8254TIP3    H246254   5.574   6.270   3.893  0.7382 -0.7505 -1.0565
 8255TIP3   OH246255   2.907   5.322  15.825  0.5114 -0.0336  0.0488
 8255TIP3    H146256   2.994   5.350  15.799  0.5334 -0.4480 -0.3386
 8255TIP3    H246257   2.894   5.238  15.781 -1.1030  1.2048 -2.0658
 8256TIP3   OH246258   6.220   4.551  16.016  0.6996 -0.1329  0.5695
 8256TIP3    H146259   6.246   4.507  16.097 -0.5069 -0.4370  0.8041
 8256TIP3    H246260   6.274   4.510  15.948 -0.0488 -1.6475  0.8563
 8257TIP3   OH246261   6.310   0.436  12.075 -0.3970 -0.1477 -0.0441
 8257TIP3    H146262   6.384   0.380  12.049 -0.6963  0.3326 -2.1099
 8257TIP3    H246263   6.234   0.395  12.035 -0.8339  0.8894 -0.2974
 8258TIP3   OH246264   4.688   1.361   5.681 -0.3774 -0.0924  0.3729
 8258TIP3    H146265   4.725   1.279   5.715  0.3630 -0.0214 -0.2202
 8258TIP3    H246266   4.610   1.334   5.633 -0.4304 -0.3885  0.6217
 8259TIP3   OH246267   2.947   1.302  13.138  0.2460 -0.1723  0.2314
 8259TIP3    H146268   2.861   1.337  13.163 -0.1712 -1.2072  0.2862
 8259TIP3    H246269   2.938   1.283  13.044 -0.1232 -1.7381  0.5532
 8260TIP3   OH246270   0.490   0.479   3.145  0.0121 -0.9902 -0.1141
 8260TIP3    H146271   0.494   0.384   3.159  1.2465 -1.0897 -0.9580
 8260TIP3    H246272   0.516   0.517   3.229 -1.0406 -1.3634  0.4047
 8261TIP3   OH246273   6.605   6.090  13.130 -0.4763 -0.2438  0.6587
 8261TIP3    H146274   6.565   6.062  13.048  0.1041 -0.8358  0.5728
 8261TIP3    H246275   6.531   6.109  13.188 -0.8997  0.8081 -0.1989
 8262TIP3   OH246276   4.691   1.841   4.042  0.4353 -0.4522  0.5434
 8262TIP3    H146277   4.604   1.807   4.023  1.1613 -3.0451  1.5409
 8262TIP3    H246278   4.698   1.920   3.987 -2.6402  0.0768  0.7346
 8263TIP3   OH246279   0.417   3.657  14.076 -0.0267  0.9723 -0.1551
 8263TIP3    H146280   0.503   3.616  14.090  0.1700  0.5648 -2.2345
 8263TIP3    H246281   0.438   3.745  14.044 -0.4320  1.5748  1.1738
 8264TIP3   OH246282   6.623   3.737  10.333  1.4474 -0.4957  0.1154
 8264TIP3    H146283   6.580   3.786  10.403 -0.4514  0.0346 -1.3416
 8264TIP3    H246284   6.629   3.647  10.366 -0.7107 -0.5557  0.4427
 8265TIP3   OH246285   3.173   4.835  13.620 -0.3613 -0.1961 -0.6429
 8265TIP3    H146286   3.224   4.825  13.539 -0.8779 -1.2439 -0.8673
 8265TIP3    H246287   3.105   4.899  13.598 -1.1400 -1.2375 -1.3973
 8266TIP3   OH246288   1.363   2.904  15.552  0.0486  0.4249  0.4114
 8266TIP3    H146289   1.344   2.810  15.551 -1.0205  0.6238 -0.5198
 8266TIP3    H246290   1.350   2.930  15.643  0.7353 -0.3923  0.7570
 8267TIP3   OH246291   3.388   5.504  12.725 -0.6551 -0.3244  0.2761
 8267TIP3    H146292   3.315   5.459  12.767  0.1382 -1.6834  0.2479
 8267TIP3    H246293   3.464   5.482  12.778 -0.3460  1.7410  0.7857
 8268TIP3   OH246294   6.306   2.034  12.973  0.1099  0.1847  0.5751
 8268TIP3    H146295   6.363   2.072  13.041 -1.0345 -1.6483  2.6982
 8268TIP3    H246296   6.218   2.061  12.998 -0.3157 -0.2067 -0.4433
 8269TIP3   OH246297   4.351   0.639   5.972  0.2428 -0.2290 -0.0781
 8269TIP3    H146298   4.293   0.707   5.938  0.3957 -0.4089 -0.7117
 8269TIP3    H246299   4.294   0.584   6.027  0.1113  0.3789  0.4043
 8270TIP3   OH246300   4.383   2.246  16.650  0.3725 -0.1561 -0.1480
 8270TIP3    H146301   4.322   2.320  16.655  1.9179  1.2737 -1.5160
 8270TIP3    H246302   4.409   2.231  16.740 -0.2967  0.6733  0.2028
 8271TIP3   OH246303   6.295   3.562   2.461 -0.1449  0.5147  0.3413
 8271TIP3    H146304   6.263   3.484   2.417 -1.0864  0.4966  1.0248
 8271TIP3    H246305   6.375   3.585   2.414  0.4282 -1.1454  0.4469
 8272TIP3   OH246306   0.497   5.296   0.651 -0.1667  0.0472 -0.2193
 8272TIP3    H146307   0.552   5.306   0.729  0.2406  0.1493 -0.5135
 8272TIP3    H246308   0.486   5.385   0.618 -0.5111  0.0245 -0.1601
 8273TIP3   OH246309   1.635   1.152  14.742  0.7377  0.1542  0.7300
 8273TIP3    H146310   1.704   1.091  14.716  0.3822 -0.0982  0.3680
 8273TIP3    H246311   1.559   1.126  14.691  0.6355  1.0349  0.4185
 8274TIP3   OH246312   2.229   6.684  16.419  0.0138  0.3563 -0.4308
 8274TIP3    H146313   2.320   6.702  16.397  0.8284 -2.3132  0.3330
 8274TIP3    H246314   2.218   6.591  16.400 -1.6755 -0.1027  2.2239
 8275TIP3   OH246315   5.477   1.300  16.506  0.2628 -0.0348  0.4053
 8275TIP3    H146316   5.408   1.277  16.569  0.3053 -0.3613  0.3315
 8275TIP3    H246317   5.558   1.269  16.547  0.2069 -0.9788 -0.1685
 8276TIP3   OH246318   5.253   4.405  10.658 -0.1599  0.2286  0.4886
 8276TIP3    H146319   5.166   4.382  10.689 -0.3651  1.8279  1.1632
 8276TIP3    H246320   5.296   4.446  10.733  0.7857  0.4580 -0.1579
 8277TIP3   OH246321   2.743   0.123   3.079 -0.0608  0.2407  0.4429
 8277TIP3    H146322   2.833   0.123   3.111 -0.1247  0.6304  0.6319
 8277TIP3    H246323   2.737   0.046   3.023  0.0622 -0.4522  1.3463
 8278TIP3   OH246324   1.096   4.894   1.967 -0.8207  0.2083  0.4224
 8278TIP3    H146325   1.000   4.904   1.967 -0.8197  1.0352  3.3005
 8278TIP3    H246326   1.118   4.878   2.058  1.8084 -0.2858 -0.2340
 8279TIP3   OH246327   2.982   2.799   0.448 -0.3912  0.3286 -0.2625
 8279TIP3    H146328   3.053   2.853   0.484 -0.9694 -0.1124  1.6458
 8279TIP3    H246329   2.923   2.862   0.406  0.6799  0.7830 -1.1407
 8280TIP3   OH246330   1.279   3.512  10.922 -0.2016 -0.0701  0.1163
 8280TIP3    H146331   1.190   3.547  10.931  0.3217  1.6685 -0.9970
 8280TIP3    H246332   1.271   3.443  10.856 -0.9495 -0.9210  1.0655
 8281TIP3   OH246333   4.798   6.420   5.296  0.0168  0.5689  0.0259
 8281TIP3    H146334   4.764   6.331   5.306  0.7646 -0.1936 -3.1468
 8281TIP3    H246335   4.720   6.476   5.302 -0.8697 -0.5569 -0.5846
 8282TIP3   OH246336   2.885   5.956   4.338  0.1696  0.2903  0.8039
 8282TIP3    H146337   2.946   6.006   4.392  0.2512  0.0937  0.8925
 8282TIP3    H246338   2.923   5.958   4.250  0.5957 -0.3191  0.9751
 8283TIP3   OH246339   1.717   0.821  15.214 -0.1689 -0.5952 -0.1790
 8283TIP3    H146340   1.751   0.741  15.255 -0.2675 -0.0188  1.0783
 8283TIP3    H246341   1.708   0.883  15.287 -1.8198 -0.0184 -0.8427
 8284TIP3   OH246342   3.071   3.591   4.822  0.1004  0.2178 -0.4055
 8284TIP3    H146343   3.110   3.505   4.808 -0.0446  0.2349 -0.9699
 8284TIP3    H246344   3.016   3.581   4.899  1.3631  0.2509  0.5276
 8285TIP3   OH246345   0.958   0.905   5.750 -0.1155 -0.1885 -0.5646
 8285TIP3    H146346   0.959   0.811   5.729  0.7849 -0.4255  0.4234
 8285TIP3    H246347   1.017   0.913   5.825 -1.1345  0.9877  0.1539
 8286TIP3   OH246348   3.671   3.328   4.867 -0.0274  0.1449 -0.3605
 8286TIP3    H146349   3.669   3.320   4.962 -0.1227  0.8501 -0.3026
 8286TIP3    H246350   3.607   3.264   4.836 -1.6886  1.4995  0.1515
 8287TIP3   OH246351   3.212   5.733  14.050 -0.1292 -0.2665 -0.2729
 8287TIP3    H146352   3.187   5.642  14.066 -0.0485 -0.0623  1.1396
 8287TIP3    H246353   3.129   5.777  14.031 -0.0203 -0.8813 -2.5505
 8288TIP3   OH246354   2.147   1.041   0.187  0.3918 -0.0613  0.6303
 8288TIP3    H146355   2.229   1.070   0.226  0.7312  1.0904 -0.8534
 8288TIP3    H246356   2.078   1.081   0.240  0.8056 -0.0069  1.1251
 8289TIP3   OH246357   2.203   1.043  11.780 -0.7368  0.0219  0.1160
 8289TIP3    H146358   2.191   0.975  11.846 -1.1272  0.7025  0.7539
 8289TIP3    H246359   2.121   1.044  11.730 -0.7495  0.0593  0.1379
 8290TIP3   OH246360   4.204   2.119   0.590 -0.3763  0.3512 -0.3132
 8290TIP3    H146361   4.114   2.100   0.615 -0.0687 -0.7362  0.0107
 8290TIP3    H246362   4.248   2.140   0.673  0.2782 -1.7301 -0.0951
 8291TIP3   OH246363   5.360   2.005   6.025 -0.6133  0.4237  0.6599
 8291TIP3    H146364   5.270   1.979   6.007 -0.1936 -1.6614  1.2632
 8291TIP3    H246365   5.402   2.005   5.939 -0.9454  0.4313  0.4963
 8292TIP3   OH246366   5.611   5.987   3.436 -0.4098 -0.3748  0.8598
 8292TIP3    H146367   5.664   5.934   3.376  2.6507  1.5132  1.6735
 8292TIP3    H246368   5.522   5.955   3.424 -0.0890 -0.1300 -4.7549
 8293TIP3   OH246369   4.780   0.796   0.054  0.1892 -0.5603 -0.9625
 8293TIP3    H146370   4.739   0.710   0.043 -1.0659 -0.1206  0.1214
 8293TIP3    H246371   4.771   0.837  -0.032  0.0981 -1.1967 -1.2665
 8294TIP3   OH246372   1.404   6.131   2.796 -0.1576 -0.4537 -0.2688
 8294TIP3    H146373   1.338   6.199   2.782 -0.9073 -0.7527  1.5361
 8294TIP3    H246374   1.470   6.147   2.729  1.3415  3.9900  1.9347
 8295TIP3   OH246375   3.368   1.571   4.243  0.3797  0.1231  0.4823
 8295TIP3    H146376   3.450   1.525   4.259  0.7784  0.2323 -1.0630
 8295TIP3    H246377   3.317   1.559   4.323  0.7179 -2.4575  0.3802
 8296TIP3   OH246378   6.371   1.134   3.371  0.3798 -0.0052 -0.6364
 8296TIP3    H146379   6.351   1.179   3.289  0.1025  0.8916 -0.0964
 8296TIP3    H246380   6.436   1.190   3.414  1.3965 -1.0522 -0.7427
 8297TIP3   OH246381   6.320   2.982  13.741  0.5634 -0.2106  0.7212
 8297TIP3    H146382   6.347   2.900  13.780 -0.0597 -0.0725  1.4748
 8297TIP3    H246383   6.235   2.963  13.700  2.2930 -1.0434 -2.9605
 8298TIP3   OH246384   1.366   3.794  12.447 -0.6170 -0.0303  0.4896
 8298TIP3    H146385   1.370   3.710  12.401 -1.1630  0.6225 -0.7893
 8298TIP3    H246386   1.446   3.796  12.500 -0.7482 -1.4747  0.7778
 8299TIP3   OH246387   1.326   2.507   5.609  0.3244 -0.9951  0.1270
 8299TIP3    H146388   1.352   2.496   5.518 -0.4026 -1.2582 -0.0541
 8299TIP3    H246389   1.404   2.483   5.659  1.8389  2.1968 -0.4421
 8300TIP3   OH246390   1.502   6.244  12.421 -0.4523 -0.6680  0.0390
 8300TIP3    H146391   1.515   6.152  12.400  0.0987 -0.3508 -1.1335
 8300TIP3    H246392   1.584   6.270  12.464  0.1236 -0.3179 -1.2219
 8301TIP3   OH246393   2.552   0.956   6.098 -0.0912  0.3819 -0.2223
 8301TIP3    H146394   2.563   0.863   6.077  1.6818  0.2584  0.9847
 8301TIP3    H246395   2.476   0.983   6.047  0.0364 -1.4421 -1.5138
 8302TIP3   OH246396   1.625   3.959   1.121 -0.0461 -0.1016  0.0967
 8302TIP3    H146397   1.580   3.979   1.039  1.3988  0.0704 -0.6779
 8302TIP3    H246398   1.567   3.897   1.166 -0.6870 -0.4811 -1.2099
 8303TIP3   OH246399   1.131   6.499  16.251 -0.3024 -0.0911  0.2893
 8303TIP3    H146400   1.098   6.464  16.334 -0.3431  2.4875  1.4584
 8303TIP3    H246401   1.099   6.589  16.249  2.1744  0.8512 -1.1097
 8304TIP3   OH246402   0.770   6.509  10.799  0.3888  0.2226 -0.3643
 8304TIP3    H146403   0.779   6.430  10.746 -1.3244 -1.2861  1.4165
 8304TIP3    H246404   0.769   6.581  10.736  0.3213 -1.3146 -2.1914
 8305TIP3   OH246405   0.455   6.551  15.274  0.0977 -0.5225 -0.6383
 8305TIP3    H146406   0.409   6.473  15.241 -1.7968 -0.9983  2.6678
 8305TIP3    H246407   0.545   6.522  15.287 -0.8567 -2.8550  1.9615
 8306TIP3   OH246408   6.243   2.050  11.218  0.0763  0.0813 -0.3509
 8306TIP3    H146409   6.204   2.107  11.151 -1.4085 -0.3129  0.1335
 8306TIP3    H246410   6.192   1.969  11.213  0.6522 -0.3451  0.5272
 8307TIP3   OH246411   3.324   5.431  16.451 -0.2115  0.4406 -0.1578
 8307TIP3    H146412   3.261   5.494  16.415 -2.5062 -0.0884  2.5129
 8307TIP3    H246413   3.352   5.470  16.534 -0.9587 -1.5196  1.1002
 8308TIP3   OH246414   3.094   3.797  14.686 -0.3964  0.5558  0.1629
 8308TIP3    H146415   3.015   3.845  14.713 -0.6232  0.7979 -0.8871
 8308TIP3    H246416   3.165   3.839  14.734 -0.8858  0.4498  0.9897
 8309TIP3   OH246417   5.420   6.534  14.535  0.1267 -0.0680 -0.2770
 8309TIP3    H146418   5.368   6.465  14.577 -2.7214  2.4119  0.6495
 8309TIP3    H246419   5.506   6.495  14.523 -0.4807 -2.8180  2.7887
 8310TIP3   OH246420   1.282   3.438  11.527 -0.1525  0.0190  0.0377
 8310TIP3    H146421   1.285   3.369  11.460 -1.2405 -1.5155  1.4967
 8310TIP3    H246422   1.367   3.431  11.572 -1.0796 -1.9549  1.6258
 8311TIP3   OH246423   4.459   2.018   1.546 -0.0071  0.4789  0.1503
 8311TIP3    H146424   4.451   1.947   1.609 -0.9690  0.9625  0.6019
 8311TIP3    H246425   4.543   2.003   1.503 -0.8454 -1.7933 -0.8439
 8312TIP3   OH246426   5.078   3.840   4.933 -0.3196 -0.3145  0.4657
 8312TIP3    H146427   5.109   3.925   4.902 -0.1877  0.0352  1.4957
 8312TIP3    H246428   4.990   3.832   4.898 -0.7889  0.8055  1.3263
 8313TIP3   OH246429   0.093   1.036  15.421  0.5170  0.7001 -0.0392
 8313TIP3    H146430   0.024   1.101  15.433 -0.3299  0.3276 -2.3898
 8313TIP3    H246431   0.051   0.965  15.373  1.8411 -0.8673  1.0160
 8314TIP3   OH246432   2.348   1.803   2.416 -0.3719  0.7700  0.0197
 8314TIP3    H146433   2.390   1.717   2.417  0.2001  1.0412 -0.1396
 8314TIP3    H246434   2.348   1.831   2.507 -2.0958 -0.1143  0.3358
 8315TIP3   OH246435   3.792   6.556  16.799  0.1612 -0.1684  0.4065
 8315TIP3    H146436   3.880   6.582  16.824 -0.5512  3.0666  0.0228
 8315TIP3    H246437   3.797   6.461  16.788  4.0035  0.0502 -1.2868
 8316TIP3   OH246438   2.622   5.729  12.271 -0.0736  0.4803  0.8567
 8316TIP3    H146439   2.614   5.735  12.176  2.1586  1.4586  0.6448
 8316TIP3    H246440   2.540   5.763  12.305 -0.2667  1.7331 -0.7473
 8317TIP3   OH246441   0.768   1.520   2.232 -0.4884  0.0173 -0.3252
 8317TIP3    H146442   0.800   1.608   2.217 -1.8621  0.7997  1.0778
 8317TIP3    H246443   0.751   1.486   2.144 -0.6666  1.4177 -0.8585
 8318TIP3   OH246444   6.286   4.536  16.810  0.0958  0.1383 -0.6560
 8318TIP3    H146445   6.208   4.592  16.818  1.5391  2.1712  0.0428
 8318TIP3    H246446   6.301   4.503  16.898  0.5859  0.5510 -0.5839
 8319TIP3   OH246447   1.846   1.752  11.989  0.0237 -0.3537 -0.0918
 8319TIP3    H146448   1.916   1.813  11.967  0.3712 -0.2312  1.2419
 8319TIP3    H246449   1.802   1.793  12.064 -0.3976 -1.2375  0.1574
 8320TIP3   OH246450   3.686   6.396   3.057  0.0068 -0.3046  0.7698
 8320TIP3    H146451   3.604   6.351   3.034 -0.1250  1.1843 -2.2319
 8320TIP3    H246452   3.745   6.326   3.084 -1.3139 -1.8250 -0.1102
 8321TIP3   OH246453   0.738   2.045   3.011 -0.1268  0.1966 -0.1512
 8321TIP3    H146454   0.803   2.086   2.953 -0.4087 -0.1837 -0.7495
 8321TIP3    H246455   0.789   2.012   3.085  0.2848  0.4034 -0.3388
 8322TIP3   OH246456   1.987   4.292  13.461  0.0668  0.0007  0.5145
 8322TIP3    H146457   2.021   4.221  13.517  3.1031 -0.3200 -1.4921
 8322TIP3    H246458   2.040   4.368  13.485 -1.0851  0.8160  0.5265
 8323TIP3   OH246459   0.126   2.430   3.231 -0.6324  0.0558  0.7239
 8323TIP3    H146460   0.064   2.362   3.206 -0.2330 -0.2491  0.5552
 8323TIP3    H246461   0.136   2.483   3.152  1.0971 -1.2644 -0.0072
 8324TIP3   OH246462   4.427   2.993  12.228 -0.0041 -0.4177 -0.0678
 8324TIP3    H146463   4.473   2.912  12.204  0.5257 -0.9558  2.4221
 8324TIP3    H246464   4.467   3.061  12.174  1.3928 -1.4316 -0.3557
 8325TIP3   OH246465   2.481   1.761   0.671  0.1793  0.1953  0.4219
 8325TIP3    H146466   2.564   1.730   0.635  0.8326  0.0005  2.0087
 8325TIP3    H246467   2.448   1.688   0.724 -0.7663  0.4480  0.2018
 8326TIP3   OH246468   5.324   5.027  15.910  0.2912  0.6422  0.6041
 8326TIP3    H146469   5.382   5.004  15.983 -0.8666  1.1516  1.7441
 8326TIP3    H246470   5.382   5.055  15.840  1.4611 -0.1546  1.2201
 8327TIP3   OH246471   0.185   3.987   1.837  0.1267  0.1754 -0.3109
 8327TIP3    H146472   0.225   3.964   1.754  0.8995  1.0603 -0.2092
 8327TIP3    H246473   0.110   4.043   1.813 -1.2494 -1.6751 -0.5130
 8328TIP3   OH246474   3.772   1.439   6.310 -0.3083  0.0151 -0.3717
 8328TIP3    H146475   3.710   1.512   6.302 -0.7849 -0.3793 -0.3824
 8328TIP3    H246476   3.852   1.478   6.343 -0.3889  0.6292 -0.9026
 8329TIP3   OH246477   2.365   5.850   3.297 -0.4048 -0.2081 -0.2319
 8329TIP3    H146478   2.406   5.765   3.311  0.2683 -0.1402 -1.6412
 8329TIP3    H246479   2.295   5.832   3.233 -0.1547  0.3212 -0.6579
 8330TIP3   OH246480   2.810   2.209  16.496 -0.3952  0.5815  0.2632
 8330TIP3    H146481   2.883   2.147  16.496 -1.7838 -1.1527  1.0179
 8330TIP3    H246482   2.799   2.232  16.588 -1.1324  0.3988  0.2253
 8331TIP3   OH246483   0.140   5.997   3.662 -0.2217  0.3012  0.7029
 8331TIP3    H146484   0.100   5.911   3.649 -0.7994  0.3356  2.0749
 8331TIP3    H246485   0.092   6.054   3.602 -1.4114  0.0834  1.3995
 8332TIP3   OH246486   0.532   5.344   2.690 -0.6330 -0.9882  0.2677
 8332TIP3    H146487   0.590   5.343   2.766 -0.3385  0.2450  0.0972
 8332TIP3    H246488   0.564   5.274   2.634 -0.8652 -1.9166  1.2778
 8333TIP3   OH246489   4.052   6.242   4.261  0.3307 -0.1644  0.5026
 8333TIP3    H146490   4.086   6.220   4.348  0.3771  2.4777  1.2478
 8333TIP3    H246491   3.961   6.265   4.276 -0.3659 -2.0185 -0.6106
 8334TIP3   OH246492   1.567   4.453  11.092 -0.3942  0.4489 -0.3975
 8334TIP3    H146493   1.528   4.484  11.010 -1.3606 -0.7650 -0.4193
 8334TIP3    H246494   1.550   4.359  11.093 -0.3905  0.4373  1.1974
 8335TIP3   OH246495   3.559   5.986   5.191 -0.2437  0.6754  0.4759
 8335TIP3    H146496   3.532   5.905   5.148  1.6331 -0.7279  1.7783
 8335TIP3    H246497   3.479   6.022   5.228 -0.9960 -1.1014  0.6576
 8336TIP3   OH246498   4.050   0.198  16.424 -0.3643 -0.3241 -0.1424
 8336TIP3    H146499   4.120   0.223  16.485 -2.0275  0.6809  1.4414
 8336TIP3    H246500   4.015   0.282  16.392 -0.2870 -0.8286 -1.6186
 8337TIP3   OH246501   6.580   4.780  12.552  0.0078  0.3559 -0.2157
 8337TIP3    H146502   6.648   4.715  12.570  0.7458  1.4113  1.0158
 8337TIP3    H246503   6.627   4.863  12.543 -0.9530  0.8207 -1.2322
 8338TIP3   OH246504   2.707   4.178   6.152 -0.3052 -0.5625 -0.4677
 8338TIP3    H146505   2.742   4.089   6.153 -3.0994 -1.7826 -0.4945
 8338TIP3    H246506   2.714   4.208   6.242 -2.1170 -2.1063  0.2602
 8339TIP3   OH246507   0.935   3.806  11.922  0.1921  0.4163 -0.5540
 8339TIP3    H146508   0.994   3.765  11.858  2.1147  0.8924  0.8064
 8339TIP3    H246509   0.883   3.868  11.871  0.6908 -0.1971 -1.8534
 8340TIP3   OH246510   1.353   1.735   3.663 -0.3520 -0.2810  0.2966
 8340TIP3    H146511   1.428   1.756   3.720 -1.0800 -0.7116  1.4344
 8340TIP3    H246512   1.361   1.641   3.647  0.7589  0.0866 -1.6946
 8341TIP3   OH246513   3.885   6.389   4.873 -0.0586  0.0278  0.3372
 8341TIP3    H146514   3.800   6.431   4.891  0.1023  0.5122 -0.0258
 8341TIP3    H246515   3.935   6.403   4.953 -0.4063 -0.4892  0.6549
 8342TIP3   OH246516   0.531   2.658  16.943 -0.2158  0.2516  0.4585
 8342TIP3    H146517   0.594   2.636  17.012  0.8611  1.6718 -0.0168
 8342TIP3    H246518   0.584   2.698  16.874 -1.1283 -1.9127 -1.6320
 8343TIP3   OH246519   6.223   5.366   3.796  0.0725 -0.0476  0.0346
 8343TIP3    H146520   6.264   5.442   3.755 -1.8598 -0.6095 -3.2722
 8343TIP3    H246521   6.152   5.402   3.849  0.9210  0.5576  0.7847
 8344TIP3   OH246522   6.179   5.044  14.146  0.4258 -0.1989  0.5983
 8344TIP3    H146523   6.123   5.063  14.071  2.7987  2.2260 -0.7288
 8344TIP3    H246524   6.237   4.974  14.115 -0.3629 -1.1276  1.1799
 8345TIP3   OH246525   4.518   2.917   3.696  0.0106  0.1777 -0.2304
 8345TIP3    H146526   4.510   2.983   3.765 -0.8115  0.9377 -1.0231
 8345TIP3    H246527   4.447   2.937   3.635  1.8936  0.8327 -2.3487
 8346TIP3   OH246528   6.160   5.854  15.637 -0.0098 -0.6009 -0.3144
 8346TIP3    H146529   6.066   5.837  15.645 -0.2325  0.6898  0.0731
 8346TIP3    H246530   6.190   5.871  15.726  0.5503 -0.8162 -0.4585
 8347TIP3   OH246531   5.313   3.319  14.225  0.6571  0.1646 -0.3405
 8347TIP3    H146532   5.304   3.339  14.318  0.3086 -0.2986 -0.2730
 8347TIP3    H246533   5.315   3.405  14.183  1.3241  0.3900  0.1317
 8348TIP3   OH246534   4.293   4.134   3.422  0.1429 -0.3149  1.0755
 8348TIP3    H146535   4.292   4.076   3.345  1.9918  1.3500 -0.3004
 8348TIP3    H246536   4.201   4.150   3.441 -0.3735 -0.7287 -0.8624
 8349TIP3   OH246537   1.150   2.860   2.884  0.4033 -0.5177 -0.1584
 8349TIP3    H146538   1.246   2.853   2.890  0.5139 -0.9882 -1.8387
 8349TIP3    H246539   1.135   2.939   2.832 -0.1426 -0.1852  0.4990
 8350TIP3   OH246540   5.570   0.218   4.795  0.4605 -0.5324 -0.2684
 8350TIP3    H146541   5.518   0.272   4.736  0.7947  0.1960  0.0873
 8350TIP3    H246542   5.653   0.205   4.750  0.4086 -0.6855 -0.3203
 8351TIP3   OH246543   5.247   5.194  11.599 -0.0126  0.1281 -0.1264
 8351TIP3    H146544   5.302   5.156  11.531  0.5263  0.9145 -0.1459
 8351TIP3    H246545   5.300   5.265  11.636 -1.4371  1.7097 -0.9809
 8352TIP3   OH246546   6.049   5.057  13.576 -0.0466  0.1622 -0.0409
 8352TIP3    H146547   6.001   5.131  13.614  1.4495  0.6689  0.9571
 8352TIP3    H246548   6.000   5.035  13.497 -2.5585 -0.1237  1.5106
 8353TIP3   OH246549   1.344   6.450   2.674  0.3747 -0.2198  0.7693
 8353TIP3    H146550   1.322   6.462   2.766 -0.6785  2.9801  0.2426
 8353TIP3    H246551   1.346   6.539   2.638 -0.0252 -1.3829 -2.4749
 8354TIP3   OH246552   2.512   6.117   6.974  0.0136 -0.0066 -0.1201
 8354TIP3    H146553   2.556   6.055   6.916  0.4740 -0.6070  0.8554
 8354TIP3    H246554   2.573   6.190   6.981 -0.3248  0.3671 -0.8903
 8355TIP3   OH246555   1.067   4.326   2.460 -0.1389 -0.1563  0.3846
 8355TIP3    H146556   1.133   4.288   2.402  0.8256  0.0852  1.2818
 8355TIP3    H246557   1.033   4.402   2.412  0.5599 -0.0255  0.0799
 8356TIP3   OH246558   3.698   0.005  11.200  0.0206  0.3765 -0.1483
 8356TIP3    H146559   3.747  -0.053  11.142 -0.7143  0.5419 -0.9564
 8356TIP3    H246560   3.703  -0.036  11.286 -1.4495 -1.5138 -0.9032
 8357TIP3   OH246561   3.792   4.621  11.232 -0.8771 -0.4003 -0.0978
 8357TIP3    H146562   3.826   4.604  11.145 -1.7796  0.7097 -0.6949
 8357TIP3    H246563   3.716   4.678  11.218 -1.1372 -0.3255  1.3952
 8358TIP3   OH246564   2.285   3.758  16.120 -0.5256  0.6038 -0.0797
 8358TIP3    H146565   2.329   3.677  16.093 -0.1139  1.1760 -1.1906
 8358TIP3    H246566   2.208   3.762  16.063 -1.4768  0.1486  1.1357
 8359TIP3   OH246567   0.976   6.661  14.593 -0.3435 -0.0509  0.2389
 8359TIP3    H146568   0.932   6.737  14.632  0.0898  0.8673 -1.0250
 8359TIP3    H246569   0.995   6.604  14.668 -0.1584  1.3399  1.2947
 8360TIP3   OH246570   4.850   4.567  11.341  0.0052 -0.8270 -0.3411
 8360TIP3    H146571   4.901   4.550  11.262  2.3187 -0.4574  0.9893
 8360TIP3    H246572   4.766   4.524  11.324 -0.1691  0.4834 -3.5630
 8361TIP3   OH246573   6.628   6.050   5.173  0.3600  0.5481  0.1742
 8361TIP3    H146574   6.602   6.005   5.254  0.6628  0.7052  0.3586
 8361TIP3    H246575   6.593   6.138   5.183 -0.0126  0.4324 -0.0769
 8362TIP3   OH246576   1.141   0.700   5.989  0.2950 -0.7597 -0.5413
 8362TIP3    H146577   1.173   0.756   5.919  2.5896 -0.3282  0.7598
 8362TIP3    H246578   1.061   0.743   6.019  0.9460  0.7462 -0.8804
 8363TIP3   OH246579   4.030   3.149   4.464 -0.2916 -0.1393 -0.9270
 8363TIP3    H146580   4.105   3.200   4.495 -1.1947  0.6974 -0.0199
 8363TIP3    H246581   4.057   3.057   4.475 -0.7083  0.0483  3.0226
 8364TIP3   OH246582   5.485   1.306  13.850 -0.4051  0.1369 -0.8721
 8364TIP3    H146583   5.509   1.336  13.762  2.3093 -1.2690 -0.6896
 8364TIP3    H246584   5.480   1.387  13.902  2.1786  0.7372 -1.4254
 8365TIP3   OH246585   4.630   4.412  15.681  0.1922  0.2751 -0.0385
 8365TIP3    H146586   4.576   4.346  15.724  0.6839 -0.1495 -0.0626
 8365TIP3    H246587   4.579   4.493  15.689 -0.1976 -0.0044  0.4143
 8366TIP3   OH246588   3.623   0.031  17.019  0.1219  0.0638 -0.2329
 8366TIP3    H146589   3.565   0.017  16.944 -0.7529  1.3358  0.1762
 8366TIP3    H246590   3.629  -0.055  17.061 -1.4184 -0.1195 -0.3235
 8367TIP3   OH246591   4.022   5.445   3.327  0.6077  0.6933  0.2794
 8367TIP3    H146592   4.064   5.362   3.351  1.3142  1.4179  1.7171
 8367TIP3    H246593   3.932   5.422   3.307  1.6403 -0.9772 -3.1811
 8368TIP3   OH246594   4.507   0.863  13.460 -0.2451  0.3057  0.1743
 8368TIP3    H146595   4.519   0.796  13.392  1.2192 -0.5379  1.2220
 8368TIP3    H246596   4.580   0.923  13.447  0.4382 -0.2290  1.3872
 8369TIP3   OH246597   6.049   6.521   1.486 -0.0818 -0.1510 -0.0318
 8369TIP3    H146598   6.137   6.545   1.514 -0.1153  0.3317 -0.3327
 8369TIP3    H246599   6.022   6.591   1.426 -1.2353  0.4689  1.1669
 8370TIP3   OH246600   6.274   1.572   1.854 -0.7043  0.3382 -0.1523
 8370TIP3    H146601   6.232   1.521   1.923  2.5593  0.2462  2.0093
 8370TIP3    H246602   6.289   1.658   1.894 -0.0774  0.7764 -1.2848
 8371TIP3   OH246603   0.138   5.148   0.669  0.0987 -0.1176  0.5090
 8371TIP3    H146604   0.131   5.238   0.702 -2.0862  0.1045 -0.3370
 8371TIP3    H246605   0.095   5.095   0.735  1.5332 -0.5979  1.0847
 8372TIP3   OH246606   0.657   4.676  12.661  0.1744 -0.2463 -0.3136
 8372TIP3    H146607   0.751   4.688  12.675  0.0174 -0.8150  1.3783
 8372TIP3    H246608   0.651   4.592  12.615  0.4053 -1.4532  1.7361
 8373TIP3   OH246609   2.868   4.269   3.200 -0.1667 -0.0444 -0.2427
 8373TIP3    H146610   2.828   4.323   3.131  0.2923  1.7669  0.8300
 8373TIP3    H246611   2.911   4.198   3.153  1.4835  1.9845 -2.0240
 8374TIP3   OH246612   0.425   4.562  13.097 -0.8587 -0.5568 -0.0381
 8374TIP3    H146613   0.345   4.590  13.140 -1.2542 -1.5726 -0.0806
 8374TIP3    H246614   0.449   4.636  13.041 -1.4187  0.0005  0.4450
 8375TIP3   OH246615   6.224   2.291   5.402 -0.0909 -0.6026 -0.2094
 8375TIP3    H146616   6.233   2.239   5.322 -0.6906 -1.4168  0.2345
 8375TIP3    H246617   6.264   2.375   5.381  0.7735 -1.1933 -0.9994
 8376TIP3   OH246618   5.141   4.769  15.934  0.9102 -0.1229 -1.1127
 8376TIP3    H146619   5.233   4.762  15.960  0.6925  0.5472 -0.1064
 8376TIP3    H246620   5.138   4.843  15.874  1.0625 -0.2971 -1.3366
 8377TIP3   OH246621   1.424   1.922   4.240 -0.2865 -0.2253 -0.2222
 8377TIP3    H146622   1.337   1.913   4.278 -0.8296  0.8483 -1.1412
 8377TIP3    H246623   1.411   1.980   4.165  1.3521  0.6004  0.0904
 8378TIP3   OH246624   3.363   0.516  15.163 -0.4003  0.4528  0.2585
 8378TIP3    H146625   3.336   0.494  15.252  0.7916  0.4367  0.6375
 8378TIP3    H246626   3.402   0.603  15.170  2.2682 -0.6416  0.3457
 8379TIP3   OH246627   6.127   5.499   3.564 -0.0940  0.1656  0.2171
 8379TIP3    H146628   6.170   5.465   3.485 -0.6770  0.0652 -0.0637
 8379TIP3    H246629   6.059   5.435   3.583 -0.1212  0.3249  0.6549
 8380TIP3   OH246630   3.710   1.766  10.363  0.2446  0.2827 -0.2680
 8380TIP3    H146631   3.734   1.859  10.355 -1.0199  0.7913  1.2753
 8380TIP3    H246632   3.616   1.767  10.380 -0.1540 -1.4296 -2.0992
 8381TIP3   OH246633   1.272   2.524  14.246 -0.0586 -0.3606  0.1348
 8381TIP3    H146634   1.336   2.595  14.234  1.5993 -1.6505  1.0423
 8381TIP3    H246635   1.227   2.519  14.161  0.0775  1.4554 -0.0965
 8382TIP3   OH246636   1.412   0.815   3.199 -0.5284 -0.0196  0.4656
 8382TIP3    H146637   1.363   0.798   3.280  1.4030  0.8506  1.9020
 8382TIP3    H246638   1.442   0.905   3.208 -1.4736  0.6255 -1.9597
 8383TIP3   OH246639   3.476   1.988   4.379  0.1558  0.3037  0.1743
 8383TIP3    H146640   3.467   2.082   4.366 -0.1466  0.1726 -0.6171
 8383TIP3    H246641   3.563   1.967   4.347 -0.4967  0.0209 -1.5465
 8384TIP3   OH246642   5.678   3.931  12.129 -0.1199  0.0319 -0.2971
 8384TIP3    H146643   5.714   3.885  12.205  0.7399 -0.9900 -1.2885
 8384TIP3    H246644   5.608   3.873  12.098 -1.2587  1.0047  0.3780
 8385TIP3   OH246645   4.988   0.017  13.872 -0.1328  0.0768 -0.8029
 8385TIP3    H146646   5.072  -0.004  13.914 -0.3503  0.8082  0.0270
 8385TIP3    H246647   4.925   0.012  13.944 -0.5848  0.9372 -1.1397
 8386TIP3   OH246648   1.381   1.775   2.196 -0.1310  0.2796  0.3951
 8386TIP3    H146649   1.327   1.712   2.245  1.1957  0.8092  2.7007
 8386TIP3    H246650   1.379   1.743   2.106 -0.3033 -2.5148  1.2946
 8387TIP3   OH246651   3.134   4.087   2.573 -0.2692 -0.4789  0.0081
 8387TIP3    H146652   3.168   4.176   2.568  1.1016 -0.8400  1.7635
 8387TIP3    H246653   3.165   4.045   2.493  1.2426 -0.0519  0.3370
 8388TIP3   OH246654   1.900   2.074  14.490 -0.0975 -1.0346 -0.1215
 8388TIP3    H146655   1.865   2.119  14.413  0.4587 -1.0553 -0.3988
 8388TIP3    H246656   1.824   2.054  14.544 -0.2514  1.9369  0.9579
 8389TIP3   OH246657   2.776   3.240   5.418  0.5172  0.7660  0.0618
 8389TIP3    H146658   2.695   3.273   5.380  0.3075  1.5139  1.1029
 8389TIP3    H246659   2.831   3.218   5.343 -0.1565  1.4759 -0.6611
 8390TIP3   OH246660   3.226   0.201  12.242  0.1106 -0.2875  0.2065
 8390TIP3    H146661   3.135   0.186  12.267 -0.1675  1.6236  0.4329
 8390TIP3    H246662   3.276   0.188  12.322 -0.0951 -0.0818  0.3654
 8391TIP3   OH246663   3.242   5.227  12.474  0.3830  0.6212 -0.4461
 8391TIP3    H146664   3.316   5.196  12.525  0.0091 -1.7360 -1.2188
 8391TIP3    H246665   3.277   5.240  12.386  0.5198  2.4848 -0.1540
 8392TIP3   OH246666   5.608   1.752  11.161  0.0544  0.2244 -0.3675
 8392TIP3    H146667   5.671   1.762  11.233  0.0078 -2.6469  0.2099
 8392TIP3    H246668   5.652   1.790  11.085  1.8129 -0.1790  0.3900
 8393TIP3   OH246669   5.501   2.112   6.562  0.1367  0.3698 -0.7336
 8393TIP3    H146670   5.432   2.093   6.498 -0.3416  1.0670 -0.4427
 8393TIP3    H246671   5.488   2.205   6.583  0.3445  0.1685  0.3082
 8394TIP3   OH246672   5.325   1.402   3.019  0.1489 -0.5335  0.0593
 8394TIP3    H146673   5.406   1.451   3.006 -0.8081  1.6043  1.4962
 8394TIP3    H246674   5.287   1.393   2.931  0.6066  0.8916 -0.3008
 8395TIP3   OH246675   5.958   6.560  15.935 -0.3089  0.1387 -0.1687
 8395TIP3    H146676   5.942   6.654  15.931  3.4854  1.1138  1.9000
 8395TIP3    H246677   6.036   6.547  15.880 -0.4336 -1.6943  0.0342
 8396TIP3   OH246678   6.304   1.445  11.779  0.1020 -0.6497  0.0702
 8396TIP3    H146679   6.268   1.486  11.858  0.0206 -0.1148 -0.2447
 8396TIP3    H246680   6.288   1.508  11.709 -1.9988 -2.1218 -0.8627
 8397TIP3   OH246681   2.248   2.245  12.375 -0.1888  0.0185  0.3847
 8397TIP3    H146682   2.162   2.217  12.343 -0.5364  1.9162 -0.4817
 8397TIP3    H246683   2.278   2.173  12.430 -1.7328 -1.2706 -0.3850
 8398TIP3   OH246684   2.043   4.768  17.152 -0.2503 -0.3502 -0.2204
 8398TIP3    H146685   1.973   4.833  17.152  0.5438  0.5165 -0.6268
 8398TIP3    H246686   2.034   4.724  17.067  0.2010  0.3169 -0.6197
 8399TIP3   OH246687   1.052   4.421   0.117  0.1624  0.3483  0.7091
 8399TIP3    H146688   1.145   4.401   0.101 -0.1691 -0.7981  0.1325
 8399TIP3    H246689   1.017   4.441   0.030 -0.6916 -1.7648  0.5024
 8400TIP3   OH246690   1.864   5.349  12.124 -0.0586 -0.3778  0.0442
 8400TIP3    H146691   1.877   5.266  12.170  0.7713  0.3153  1.1134
 8400TIP3    H246692   1.952   5.379  12.103 -0.3182  0.5044  0.1675
 8401TIP3   OH246693   3.817   4.674   3.802  0.4118 -0.5398  0.0266
 8401TIP3    H146694   3.902   4.633   3.787  0.4913  0.1797 -1.8581
 8401TIP3    H246695   3.774   4.671   3.716 -1.1091 -0.1285  0.7471
 8402TIP3   OH246696   3.546   6.280   3.396  0.2539 -0.0198  0.0623
 8402TIP3    H146697   3.559   6.341   3.469 -0.3717 -1.0587  1.0807
 8402TIP3    H246698   3.458   6.299   3.364  0.4816  0.3538 -0.3393
 8403TIP3   OH246699   0.926   3.782  13.502  0.5739 -0.2330  0.0384
 8403TIP3    H146700   0.929   3.696  13.459 -0.7246 -0.0257 -0.5414
 8403TIP3    H246701   0.968   3.841  13.440 -1.2453  0.0550 -0.9995
 8404TIP3   OH246702   1.603   6.055   4.265 -0.0047  0.0685  0.0847
 8404TIP3    H146703   1.573   6.138   4.228 -1.2859 -0.8319 -1.0364
 8404TIP3    H246704   1.587   6.063   4.359 -1.2810  0.6558 -0.1638
 8405TIP3   OH246705   4.953   0.609  11.794  0.0551  0.0119 -0.2384
 8405TIP3    H146706   4.887   0.601  11.725 -0.9390  0.9806  0.5649
 8405TIP3    H246707   4.988   0.698  11.782 -0.5882  0.4353  0.8751
 8406TIP3   OH246708   5.387   1.559   4.873  0.2357 -0.3371  0.7589
 8406TIP3    H146709   5.297   1.569   4.843  1.2591  2.5004 -1.9020
 8406TIP3    H246710   5.412   1.470   4.848 -1.7289 -1.1361  1.4707
 8407TIP3   OH246711   3.250   3.412  16.635 -0.2682  0.2292  0.0125
 8407TIP3    H146712   3.309   3.337  16.641 -0.1778  0.3520  0.8536
 8407TIP3    H246713   3.267   3.463  16.715 -1.0277  0.6165 -0.0563
 8408TIP3   OH246714   2.127   5.900  14.872 -0.0263 -0.0960  0.1265
 8408TIP3    H146715   2.101   5.988  14.898 -0.4498 -0.1388 -0.1469
 8408TIP3    H246716   2.053   5.844  14.896  0.0097 -0.2908 -0.2030
 8409TIP3   OH246717   1.512   4.337  15.713  0.6679  0.1946 -0.0425
 8409TIP3    H146718   1.517   4.359  15.806 -1.7638 -0.7121  0.3702
 8409TIP3    H246719   1.586   4.383  15.674  2.1727  0.0596  2.4192
 8410TIP3   OH246720   3.262   5.460   0.055  0.4241  0.2606  0.0849
 8410TIP3    H146721   3.327   5.504   0.111 -0.2320  1.5681 -0.1455
 8410TIP3    H246722   3.221   5.530   0.005  0.3364 -0.7874 -1.3827
 8411TIP3   OH246723   3.521   4.819  16.853 -0.0028  0.6323  0.0278
 8411TIP3    H146724   3.554   4.838  16.765  0.9588  0.0266  0.2469
 8411TIP3    H246725   3.494   4.905  16.888  1.0800  1.1098 -0.2708
 8412TIP3   OH246726   0.390   2.114  16.053 -0.2048 -0.0977 -0.2773
 8412TIP3    H146727   0.458   2.109  15.985 -0.5211 -0.2561 -0.5815
 8412TIP3    H246728   0.437   2.145  16.130  0.7057 -2.3616  0.1568
 8413TIP3   OH246729   0.162   6.060  14.813  0.4814  0.1767  0.2125
 8413TIP3    H146730   0.157   6.049  14.718 -2.5672 -0.4655  0.3528
 8413TIP3    H246731   0.104   6.134  14.831  0.2908 -0.3033  1.6730
 8414TIP3   OH246732   2.858   2.037  11.635  0.3002 -0.2420  0.0821
 8414TIP3    H146733   2.824   1.955  11.601  0.9102  0.0043 -1.1757
 8414TIP3    H246734   2.781   2.084  11.667  0.0234 -1.5851  1.5205
 8415TIP3   OH246735   6.711   5.366   0.697  0.2756  0.3562  0.5361
 8415TIP3    H146736   6.724   5.458   0.676  0.8645  0.1293 -0.1060
 8415TIP3    H246737   6.684   5.366   0.789 -1.8815  1.3117 -0.0493
 8416TIP3   OH246738   1.868   6.177  11.458 -0.4135 -0.7461 -0.6040
 8416TIP3    H146739   1.793   6.118  11.452 -0.5282 -0.5572 -1.0712
 8416TIP3    H246740   1.940   6.129  11.417 -0.3176 -0.8632 -0.3003
 8417TIP3   OH246741   5.386   3.029  14.932  0.5487 -0.2241 -0.7127
 8417TIP3    H146742   5.373   3.120  14.960  0.3603 -0.0434 -1.3842
 8417TIP3    H246743   5.370   2.977  15.012  1.7821  0.3885 -0.0305
 8418TIP3   OH246744   1.993   0.792  16.249 -0.0180 -0.2568  0.0838
 8418TIP3    H146745   1.918   0.769  16.193  0.5766  0.1028 -0.8857
 8418TIP3    H246746   2.067   0.750  16.207  0.4273 -0.0822  0.6857
 8419TIP3   OH246747   0.319   4.002   0.737 -0.1699  0.7042  0.1784
 8419TIP3    H146748   0.237   4.049   0.750 -1.0796 -0.8428  0.3393
 8419TIP3    H246749   0.316   3.972   0.647 -0.2615 -0.2107  0.4743
 8420TIP3   OH246750   3.684   1.192  12.995 -0.1519  0.2775  0.7847
 8420TIP3    H146751   3.640   1.152  12.920 -0.8562  0.4132  1.1251
 8420TIP3    H246752   3.653   1.144  13.071  1.8838 -1.0263  0.8686
 8421TIP3   OH246753   0.894   5.928  16.719  0.2538 -0.1000 -0.1924
 8421TIP3    H146754   0.809   5.886  16.736  0.8897 -1.4747 -0.2160
 8421TIP3    H246755   0.958   5.867  16.756  1.1883  1.5710  1.0371
 8422TIP3   OH246756   1.132   4.338   1.994 -0.2164 -0.3282  0.1476
 8422TIP3    H146757   1.044   4.307   1.974 -0.4712 -0.8045  1.8739
 8422TIP3    H246758   1.119   4.427   2.027  0.2416  0.6161 -2.0280
 8423TIP3   OH246759   1.529   6.636  11.297  0.6752  0.0777 -0.3908
 8423TIP3    H146760   1.457   6.685  11.337  1.0090 -0.8347  1.4254
 8423TIP3    H246761   1.486   6.574  11.238 -0.0642 -0.6802  0.9192
 8424TIP3   OH246762   3.715   1.792   3.746  0.0630  0.4593 -0.3050
 8424TIP3    H146763   3.725   1.856   3.817  0.1256 -1.1314  1.1652
 8424TIP3    H246764   3.624   1.801   3.719 -0.1186  0.6937  0.3645
 8425TIP3   OH246765   6.065   0.982  15.203 -0.7519  0.4108 -1.0079
 8425TIP3    H146766   6.062   0.887  15.186  0.3637  0.4773 -1.6688
 8425TIP3    H246767   6.156   0.999  15.228 -1.1856  1.1598  0.1177
 8426TIP3   OH246768   0.754   2.254  13.110 -0.1009 -0.0245 -0.0042
 8426TIP3    H146769   0.780   2.195  13.181 -1.1541  1.4363  1.6925
 8426TIP3    H246770   0.674   2.215  13.075 -1.4021  0.8472  1.8263
 8427TIP3   OH246771   6.013   1.211   6.906  0.0456 -0.2110 -0.2637
 8427TIP3    H146772   6.030   1.305   6.909  0.1859 -0.2526  1.7677
 8427TIP3    H246773   5.918   1.204   6.896 -0.0934  0.1808  0.6808
 8428TIP3   OH246774   2.303   3.008   1.167 -0.0056 -0.3265  0.4897
 8428TIP3    H146775   2.268   3.082   1.215  1.4322 -0.0658  1.2028
 8428TIP3    H246776   2.365   2.967   1.227  1.7999 -0.0355 -1.0392
 8429TIP3   OH246777   1.293   4.465   3.543 -0.0746  0.1424 -0.5822
 8429TIP3    H146778   1.313   4.403   3.613 -2.5151  0.4173  0.4400
 8429TIP3    H246779   1.378   4.501   3.519  1.0816 -1.5011  0.7557
 8430TIP3   OH246780   2.026   6.628  11.315  0.0753 -0.0901 -0.1753
 8430TIP3    H146781   2.066   6.543  11.337  0.3166  0.4542  1.6690
 8430TIP3    H246782   1.937   6.623  11.349 -0.0731  0.2232 -0.5080
 8431TIP3   OH246783   0.693   4.885  17.016  0.4856 -0.1328 -0.2504
 8431TIP3    H146784   0.742   4.816  17.060  0.6778  0.2575  0.1574
 8431TIP3    H246785   0.623   4.907  17.077  0.2734 -0.1404 -0.4896
 8432TIP3   OH246786   6.385   0.806  14.672  0.1717  0.4685 -0.2480
 8432TIP3    H146787   6.439   0.885  14.684  1.8633 -0.4113 -1.6466
 8432TIP3    H246788   6.448   0.736  14.656 -1.2804 -1.2870  1.2462
 8433TIP3   OH246789   0.022   5.725  11.743  0.1522  0.5812  0.3722
 8433TIP3    H146790   0.058   5.727  11.832  0.3483  0.4598  0.2975
 8433TIP3    H246791  -0.059   5.676  11.750 -0.8766  2.2655  0.8590
 8434TIP3   OH246792   5.980   0.663   0.472  0.4928  0.1373  0.1552
 8434TIP3    H146793   5.977   0.568   0.464  1.4683  0.0806  0.3368
 8434TIP3    H246794   5.894   0.692   0.441  1.0071 -0.6462 -2.2932
 8435TIP3   OH246795   5.333   3.813  15.122 -0.3647  0.2708 -0.5488
 8435TIP3    H146796   5.328   3.804  15.026  1.3310 -0.1907 -0.6328
 8435TIP3    H246797   5.355   3.725  15.153 -0.0493  0.6025  0.1830
 8436TIP3   OH246798   2.293   4.067  15.909 -0.3535 -0.8109 -0.0539
 8436TIP3    H146799   2.243   4.145  15.885 -1.0512 -1.3268 -0.3334
 8436TIP3    H246800   2.377   4.100  15.939 -1.4620  0.2300  2.1521
 8437TIP3   OH246801   6.465   3.677   2.839  0.0708  0.8400 -0.3722
 8437TIP3    H146802   6.429   3.711   2.757 -1.5123 -0.2494 -0.1755
 8437TIP3    H246803   6.425   3.732   2.906  0.7495  1.2250 -0.2796
 8438TIP3   OH246804   6.740   4.511  11.891  0.5386  0.1353 -0.2397
 8438TIP3    H146805   6.791   4.532  11.813 -0.9727 -2.3191 -2.0680
 8438TIP3    H246806   6.805   4.500  11.961  2.3423 -1.0520 -2.0087
 8439TIP3   OH246807   5.102   2.332   5.565 -0.0557 -0.3583 -0.3961
 8439TIP3    H146808   5.038   2.402   5.575  1.5112  1.9024 -3.9489
 8439TIP3    H246809   5.062   2.271   5.503  0.6130  0.3225 -1.5293
 8440TIP3   OH246810   6.681   6.153  11.468  0.6310 -0.6815 -0.2233
 8440TIP3    H146811   6.671   6.170  11.374  1.6536  2.1080  0.0742
 8440TIP3    H246812   6.763   6.104  11.475  1.4118  0.5070 -0.7139
 8441TIP3   OH246813   5.241   5.223  15.539 -0.1082 -0.5554  0.0132
 8441TIP3    H146814   5.272   5.222  15.448 -1.1499 -0.3215 -0.3657
 8441TIP3    H246815   5.146   5.228  15.531 -0.1833  0.0794  1.1221
 8442TIP3   OH246816   1.519   2.362   2.919  0.1588 -0.4801 -0.2105
 8442TIP3    H146817   1.474   2.305   2.856 -1.3465  0.4716 -0.0566
 8442TIP3    H246818   1.605   2.323   2.930 -0.7460 -2.6065 -0.2593
 8443TIP3   OH246819   0.146   6.462   2.223 -0.0885 -0.2056  0.1153
 8443TIP3    H146820   0.226   6.503   2.191  0.1640 -0.9064 -0.1605
 8443TIP3    H246821   0.085   6.467   2.149  0.2788 -1.2336 -0.2681
 8444TIP3   OH246822   4.396   6.186  13.226 -0.0593 -1.0558 -0.2509
 8444TIP3    H146823   4.436   6.260  13.271 -0.1329 -0.8334 -0.5520
 8444TIP3    H246824   4.328   6.225  13.171 -0.5556 -1.4075  0.1034
 8445TIP3   OH246825   0.379   5.866   0.765 -0.2754 -0.1206  0.1278
 8445TIP3    H146826   0.343   5.937   0.817 -0.8197 -1.1932  1.2674
 8445TIP3    H246827   0.472   5.886   0.758 -0.1613 -0.0052  1.6517
 8446TIP3   OH246828   4.065   6.599   5.911  0.2696 -0.6850  0.5046
 8446TIP3    H146829   3.985   6.564   5.872  1.3972 -1.5955 -1.1104
 8446TIP3    H246830   4.037   6.636   5.995 -1.3188 -3.8626  1.5256
 8447TIP3   OH246831   3.614   0.457   0.576  0.0285 -0.2130 -0.1974
 8447TIP3    H146832   3.525   0.490   0.592 -0.8408 -2.2431 -0.3973
 8447TIP3    H246833   3.608   0.415   0.489  1.1012 -0.6062 -0.0925
 8448TIP3   OH246834   6.608   6.472  12.027 -0.3403 -0.2373  1.1493
 8448TIP3    H146835   6.544   6.417  12.073 -0.3167 -1.0823  0.2094
 8448TIP3    H246836   6.632   6.421  11.950  0.7673  0.4837  0.9969
 8449TIP3   OH246837   5.796   2.760  16.916  0.1832 -0.7288  0.3199
 8449TIP3    H146838   5.757   2.674  16.934  0.9690 -0.9188  1.2041
 8449TIP3    H246839   5.856   2.774  16.989  1.5698 -0.3394 -0.8537
 8450TIP3   OH246840   2.334   5.725   0.382 -0.0797 -0.2693  0.4295
 8450TIP3    H146841   2.275   5.800   0.390  0.4429  0.0102  2.2958
 8450TIP3    H246842   2.285   5.652   0.418 -0.8054 -1.0059 -1.9286
 8451TIP3   OH246843   4.260   5.199  15.658  0.2277 -0.2053 -0.1500
 8451TIP3    H146844   4.349   5.166  15.672 -0.1869 -1.0381  0.6189
 8451TIP3    H246845   4.215   5.127  15.615 -0.0789  0.2242 -0.5588
 8452TIP3   OH246846   6.168   4.301   2.094  0.6716  0.1000 -0.1178
 8452TIP3    H146847   6.242   4.324   2.150  1.0463 -1.9262  0.3120
 8452TIP3    H246848   6.201   4.315   2.005  1.3194 -0.0782  0.0893
 8453TIP3   OH246849   0.258   0.553   5.263  0.0365  0.4560 -0.5650
 8453TIP3    H146850   0.198   0.603   5.319  0.8085 -0.5250  1.1998
 8453TIP3    H246851   0.323   0.518   5.323  0.7312 -0.9177 -2.0592
 8454TIP3   OH246852   0.810   2.517  13.014 -0.1905  0.1189  0.4512
 8454TIP3    H146853   0.774   2.441  13.060 -1.1074  0.4709  0.3385
 8454TIP3    H246854   0.735   2.576  13.002  0.1187  0.2490 -1.0552
 8455TIP3   OH246855   2.141   4.440  17.178  0.1022 -0.4007  0.1393
 8455TIP3    H146856   2.113   4.429  17.087  0.5643  1.6017 -0.2877
 8455TIP3    H246857   2.165   4.532  17.185  1.3152 -0.7974  1.9612
 8456TIP3   OH246858   3.681   1.199   1.104 -0.0930 -0.4534  0.6081
 8456TIP3    H146859   3.618   1.193   1.032 -0.4661 -0.4153  0.9273
 8456TIP3    H246860   3.683   1.292   1.127  1.6731 -0.0810 -0.7872
 8457TIP3   OH246861   6.805   5.819   5.659  0.1639  0.8126  0.0070
 8457TIP3    H146862   6.834   5.856   5.576  1.1674  0.8394  0.3549
 8457TIP3    H246863   6.813   5.891   5.722  1.3400  0.2627  0.5214
 8458TIP3   OH246864   4.891   2.922   0.409 -0.5756  0.3417  0.6692
 8458TIP3    H146865   4.832   2.875   0.468 -0.6432 -2.1236 -1.1652
 8458TIP3    H246866   4.978   2.905   0.444 -0.6002 -1.2858  0.0317
 8459TIP3   OH246867   1.871   6.229   2.121 -0.3565  0.0264  0.0226
 8459TIP3    H146868   1.961   6.254   2.101  0.3510 -0.6262  2.0783
 8459TIP3    H246869   1.824   6.312   2.129  0.1635  0.3864 -0.6083
 8460TIP3   OH246870   2.172   6.139   4.294 -0.0588  0.4586 -0.5865
 8460TIP3    H146871   2.248   6.124   4.350 -1.1608 -0.6465  0.7010
 8460TIP3    H246872   2.182   6.075   4.223  0.2727  0.4044 -0.4947
 8461TIP3   OH246873   1.837   3.718  15.634 -0.1523 -0.1645 -0.5273
 8461TIP3    H146874   1.777   3.791  15.614 -0.8286 -0.5095  0.1799
 8461TIP3    H246875   1.852   3.725  15.728 -2.0263 -2.2352  0.0206
 8462TIP3   OH246876   2.733   5.854   4.012  0.0137  0.7373  0.3718
 8462TIP3    H146877   2.735   5.927   3.949  1.5803  2.1476  1.9300
 8462TIP3    H246878   2.724   5.896   4.097  1.0046 -0.8910  1.3370
 8463TIP3   OH246879   6.326   0.120   4.341  0.2064 -0.1279  0.7331
 8463TIP3    H146880   6.309   0.028   4.321  0.7863 -0.4343  1.6106
 8463TIP3    H246881   6.418   0.132   4.320 -0.3834  0.8961 -1.6651
 8464TIP3   OH246882   4.210   1.277  14.868 -0.5458 -0.3715  0.4569
 8464TIP3    H146883   4.150   1.297  14.796 -2.1411 -2.8093  0.9844
 8464TIP3    H246884   4.157   1.293  14.947  0.3651 -0.1438  1.0311
 8465TIP3   OH246885   0.381   3.693  11.857 -0.0697  0.6017  0.2658
 8465TIP3    H146886   0.373   3.634  11.782 -1.9658  1.2103 -0.0761
 8465TIP3    H246887   0.424   3.641  11.925 -2.9570 -1.7618  0.5184
 8466TIP3   OH246888   5.426   2.892  11.617 -0.5927  0.3750 -0.6790
 8466TIP3    H146889   5.415   2.973  11.668  1.7949  1.3789 -1.6276
 8466TIP3    H246890   5.449   2.922  11.529  1.1454 -1.3022 -0.8593
 8467TIP3   OH246891   3.368   3.872   5.757 -0.0788  0.0066 -0.3955
 8467TIP3    H146892   3.314   3.896   5.832 -0.9184 -1.3872 -0.5180
 8467TIP3    H246893   3.305   3.861   5.685  0.8677  3.4368 -1.9701
 8468TIP3   OH246894   0.290   6.026  10.808 -0.1869  0.5811 -0.5789
 8468TIP3    H146895   0.309   5.939  10.773 -0.1807 -0.2318  1.2948
 8468TIP3    H246896   0.198   6.041  10.789 -0.4219 -0.2451 -0.1254
 8469TIP3   OH246897   6.041   2.187  16.697  0.2366  0.3217 -1.0050
 8469TIP3    H146898   6.025   2.145  16.782  1.9858 -1.5422 -1.5445
 8469TIP3    H246899   6.136   2.183  16.686  0.0146  0.2579 -3.1873
 8470TIP3   OH246900   0.938   0.032  11.398 -0.4933  0.2651 -0.0517
 8470TIP3    H146901   1.018   0.063  11.356  0.8147  0.0032  2.0850
 8470TIP3    H246902   0.871   0.096  11.374  0.4791  0.8131 -1.4092
 8471TIP3   OH246903   6.464   3.646  16.703 -0.0084  0.6511 -0.3063
 8471TIP3    H146904   6.530   3.581  16.681  0.0666  1.0393 -1.2782
 8471TIP3    H246905   6.513   3.728  16.716 -0.1803  0.6878  0.1514
 8472TIP3   OH246906   3.019   4.102  15.510 -0.0898 -0.1751  0.3155
 8472TIP3    H146907   2.960   4.139  15.576  0.3637 -0.0453  0.6490
 8472TIP3    H246908   3.054   4.023  15.552 -2.4954 -2.1180 -1.0679
 8473TIP3   OH246909   2.006   1.245   5.219  1.1202  0.0683 -0.2114
 8473TIP3    H146910   1.939   1.279   5.158  0.5244 -1.4157 -0.4236
 8473TIP3    H246911   2.050   1.323   5.251 -0.2892  1.0598 -0.5701
 8474TIP3   OH246912   2.237   6.762  12.107  0.0903  0.1368 -0.3490
 8474TIP3    H146913   2.239   6.668  12.124 -1.3666  0.1893  0.2607
 8474TIP3    H246914   2.161   6.774  12.050 -2.4683  1.4006  3.0483
 8475TIP3   OH246915   3.634   5.126   5.189 -0.4290  0.0800  0.8279
 8475TIP3    H146916   3.565   5.191   5.201 -0.3316  0.3676 -0.0489
 8475TIP3    H246917   3.588   5.043   5.182 -0.7908  0.3800 -0.6976
 8476TIP3   OH246918   4.949   2.643  16.733 -0.0781  0.3734 -0.6042
 8476TIP3    H146919   4.896   2.563  16.724  0.6277 -0.1896  0.0857
 8476TIP3    H246920   4.958   2.655  16.828 -0.9475  1.8076 -0.6710
 8477TIP3   OH246921   1.554   5.301   4.384  0.0459  0.1197 -0.1732
 8477TIP3    H146922   1.464   5.286   4.357 -0.0210  0.6459 -0.2610
 8477TIP3    H246923   1.550   5.380   4.438  0.3423 -0.2936  0.4622
 8478TIP3   OH246924   5.203   0.091   2.818  0.0470  0.8097 -0.0415
 8478TIP3    H146925   5.185  -0.003   2.825 -1.0493  0.7838 -2.4450
 8478TIP3    H246926   5.173   0.127   2.901  0.6202 -0.9594  0.9899
 8479TIP3   OH246927   2.597   6.233   3.591  0.0602 -0.2319 -0.2481
 8479TIP3    H146928   2.545   6.178   3.532  1.4340 -0.6177 -1.1498
 8479TIP3    H246929   2.684   6.235   3.551  0.7328  0.4314  1.1814
 8480TIP3   OH246930   6.139   4.620  15.447  0.6155 -0.5651  0.3493
 8480TIP3    H146931   6.101   4.707  15.463 -1.4734 -0.8504 -2.2308
 8480TIP3    H246932   6.094   4.562  15.508 -2.8408 -0.7411 -2.0527
 8481TIP3   OH246933   2.682   4.724  12.770 -0.0906 -0.2445 -0.3320
 8481TIP3    H146934   2.603   4.669  12.764 -0.1718 -0.2497  0.7230
 8481TIP3    H246935   2.743   4.673  12.823  0.1229  0.3407 -0.0023
 8482TIP3   OH246936   0.157   2.145   6.627 -0.0120 -0.4892 -0.0835
 8482TIP3    H146937   0.123   2.058   6.645  0.0977 -0.5656 -0.2494
 8482TIP3    H246938   0.190   2.141   6.537 -0.2478 -0.2037 -0.1869
 8483TIP3   OH246939   1.470   4.353   4.732  0.4922 -0.4178  0.2099
 8483TIP3    H146940   1.443   4.263   4.715  0.2876 -0.2051 -0.6548
 8483TIP3    H246941   1.462   4.363   4.827  2.2276 -1.8656  0.5803
 8484TIP3   OH246942   1.717   6.647   3.238 -0.0042 -0.3439 -0.0233
 8484TIP3    H146943   1.704   6.714   3.170  0.0051 -0.4383 -0.1178
 8484TIP3    H246944   1.791   6.595   3.205  0.6634  0.2262  0.5291
 8485TIP3   OH246945   1.995   0.807   5.855  0.2213 -0.0266 -0.5625
 8485TIP3    H146946   2.081   0.829   5.889 -0.3337  0.5992  0.5006
 8485TIP3    H246947   1.993   0.712   5.852  1.2581 -0.0362 -1.4616
 8486TIP3   OH246948   6.766   5.312  13.885 -0.0995 -0.4105  0.2956
 8486TIP3    H146949   6.819   5.332  13.807 -2.6547 -0.1322 -1.4795
 8486TIP3    H246950   6.787   5.382  13.947  1.5524 -0.3066 -0.3331
 8487TIP3   OH246951   1.984   2.532  11.269 -0.3994 -0.5910 -0.3728
 8487TIP3    H146952   1.976   2.627  11.279  1.6894 -0.4522  0.4406
 8487TIP3    H246953   2.043   2.505  11.339 -0.8461 -2.4961 -0.6678
 8488TIP3   OH246954   4.471   0.968   6.059 -1.0104  0.1673 -0.6639
 8488TIP3    H146955   4.395   1.002   6.105  1.5026  0.3071  3.9372
 8488TIP3    H246956   4.524   1.045   6.038 -0.9314 -0.1018 -1.5074
 8489TIP3   OH246957   6.497   5.118  17.020  0.2474  0.6651 -0.1966
 8489TIP3    H146958   6.582   5.159  17.035  0.2293  0.6031  0.0915
 8489TIP3    H246959   6.508   5.067  16.940  0.3311  1.0695 -0.4398
 8490TIP3   OH246960   5.386   2.387  11.425  0.2187  0.3629 -0.0925
 8490TIP3    H146961   5.324   2.460  11.431 -1.0719 -0.7967  1.6453
 8490TIP3    H246962   5.377   2.356  11.335  1.3482  2.7334 -1.1226
 8491TIP3   OH246963   2.814   6.340  15.621  0.6533 -0.3619 -0.4180
 8491TIP3    H146964   2.865   6.261  15.600  0.7407 -0.4791  0.2155
 8491TIP3    H246965   2.799   6.382  15.536 -1.8573 -2.5245 -1.1796
 8492TIP3   OH246966   6.750   0.146   3.982 -0.0113 -0.4663 -0.4126
 8492TIP3    H146967   6.835   0.165   3.940 -0.8165  0.9284 -1.5072
 8492TIP3    H246968   6.734   0.054   3.962  0.9280 -0.5585 -0.8011
 8493TIP3   OH246969   5.932   3.179  10.774  0.1025  0.1325  0.2941
 8493TIP3    H146970   5.965   3.142  10.693 -1.6013 -1.6006  0.3329
 8493TIP3    H246971   5.961   3.270  10.773 -0.8670  0.5039 -2.8197
 8494TIP3   OH246972   6.626   3.798  15.929  0.2491  0.5391 -0.2922
 8494TIP3    H146973   6.565   3.820  16.000 -0.5936 -0.5561 -0.6505
 8494TIP3    H246974   6.585   3.834  15.850  0.3433  0.2680 -0.4635
 8495TIP3   OH246975   2.749   4.588  11.125  0.6761  0.2363 -0.2641
 8495TIP3    H146976   2.729   4.526  11.195  0.4143 -1.0127 -1.4091
 8495TIP3    H246977   2.665   4.625  11.100  0.7945  0.8297  0.2156
 8496TIP3   OH246978   4.151   1.705   3.154  0.2965  0.6679  0.3631
 8496TIP3    H146979   4.111   1.638   3.209  0.4528  0.7617  0.5912
 8496TIP3    H246980   4.165   1.779   3.212  1.0115  0.5545  0.3424
 8497TIP3   OH246981   5.271   4.505  13.397  0.4369  0.1439  0.2111
 8497TIP3    H146982   5.298   4.562  13.469  1.5616 -0.7204  0.4867
 8497TIP3    H246983   5.272   4.561  13.320  1.4335  0.5352  0.4978
 8498TIP3   OH246984   5.723   1.462   0.305  0.3343 -0.1906 -0.4450
 8498TIP3    H146985   5.711   1.511   0.224  3.0902 -1.3345 -1.6828
 8498TIP3    H246986   5.650   1.399   0.306 -1.1075  1.4167 -0.7322
 8499TIP3   OH246987   5.326   5.017  11.400 -0.8877 -0.2509  0.0938
 8499TIP3    H146988   5.288   5.008  11.313  0.2091 -1.6978 -0.2760
 8499TIP3    H246989   5.325   4.928  11.436 -0.3958  0.1557  1.1550
 8500TIP3   OH246990   0.601   5.620  13.597 -0.0608  0.3244  0.0770
 8500TIP3    H146991   0.647   5.650  13.675 -0.8094 -2.1927  1.5810
 8500TIP3    H246992   0.521   5.579  13.629 -0.8298 -0.0225 -2.0786
 8501TIP3   OH246993   4.415   0.545   3.542 -0.6143 -0.3126 -0.5522
 8501TIP3    H146994   4.390   0.500   3.622  0.4594 -1.8461 -1.0395
 8501TIP3    H246995   4.332   0.571   3.502 -1.2511 -1.6329 -0.1285
 8502TIP3   OH246996   0.933   3.734  12.471  0.0929  0.1193  0.0688
 8502TIP3    H146997   0.934   3.660  12.411  0.0456  0.7300 -0.7000
 8502TIP3    H246998   1.024   3.748  12.495  0.0304 -0.6291  0.7837
 8503TIP3   OH246999   2.667   4.270  14.253  0.1191  0.2230  0.0030
 8503TIP3    H147000   2.715   4.341  14.212  0.5231 -0.2223 -0.3020
 8503TIP3    H247001   2.581   4.271  14.212 -0.3675  1.4214  0.9902
 8504TIP3   OH247002   0.071   4.026   4.226  0.4412  0.3237 -0.0284
 8504TIP3    H147003   0.110   3.939   4.235 -0.1383  0.1841  1.3403
 8504TIP3    H247004  -0.008   4.011   4.175  0.1500 -0.0299  0.5099
 8505TIP3   OH247005   2.044   3.023  16.112 -0.5418 -0.1114 -0.4588
 8505TIP3    H147006   1.959   3.052  16.080  0.3675 -0.3044 -3.2850
 8505TIP3    H247007   2.103   3.096  16.096  0.1353 -0.5185  0.0843
 8506TIP3   OH247008   0.511   6.177   1.125  0.0314 -1.0635 -0.6703
 8506TIP3    H147009   0.520   6.144   1.215  0.4074 -1.6907 -0.9298
 8506TIP3    H247010   0.485   6.268   1.136  0.8447 -0.8991  0.0918
 8507TIP3   OH247011   4.125   1.860  11.484  0.3997 -0.0512  0.0940
 8507TIP3    H147012   4.199   1.800  11.480  0.2448 -0.3271  1.1004
 8507TIP3    H247013   4.145   1.918  11.558  0.1279  0.5783 -0.3151
 8508TIP3   OH247014   5.274   2.164   0.294  0.8619 -0.3480  0.2596
 8508TIP3    H147015   5.315   2.077   0.298  2.4504  0.3687  0.0887
 8508TIP3    H247016   5.272   2.194   0.385  0.0277 -0.6725  0.3578
 8509TIP3   OH247017   2.414   1.231   0.978 -0.0045  0.3908  0.1344
 8509TIP3    H147018   2.463   1.309   1.006 -0.6519  0.9317 -0.2037
 8509TIP3    H247019   2.417   1.173   1.054  0.1277  0.9250  0.5482
 8510TIP3   OH247020   6.296   0.601   1.142 -0.0944 -0.1177 -0.0144
 8510TIP3    H147021   6.217   0.648   1.166 -0.2631 -0.3132 -0.1792
 8510TIP3    H247022   6.305   0.616   1.048  0.3954  0.3961  0.1116
 8511TIP3   OH247023   1.305   6.819  16.237 -0.4086  0.1440 -0.0536
 8511TIP3    H147024   1.375   6.884  16.227 -0.1981 -0.3839 -3.4327
 8511TIP3    H247025   1.351   6.735  16.238 -0.8678 -0.1104 -0.1403
 8512TIP3   OH247026   6.167   0.374  16.785  0.1222  0.1544  0.1476
 8512TIP3    H147027   6.139   0.394  16.696 -0.3363  2.4225  0.7283
 8512TIP3    H247028   6.198   0.284  16.781  0.6810  0.3920 -2.4157
 8513TIP3   OH247029   0.542   0.056   5.313 -0.2863 -0.8583 -0.8006
 8513TIP3    H147030   0.612   0.071   5.250 -0.0061  1.0640 -0.0711
 8513TIP3    H247031   0.512  -0.034   5.295  2.3512 -1.7521 -1.1089
 8514TIP3   OH247032   1.584   2.241  15.324  0.2147 -0.4094 -0.0657
 8514TIP3    H147033   1.667   2.277  15.293 -1.1355  1.2187 -2.0423
 8514TIP3    H247034   1.609   2.169  15.382  2.9700 -0.2717 -0.9568
 8515TIP3   OH247035   6.505   3.769   1.514 -0.1029  0.0729 -0.3849
 8515TIP3    H147036   6.477   3.809   1.431  2.3859 -0.7338 -1.7126
 8515TIP3    H247037   6.596   3.796   1.525  0.4392 -1.9735  0.7040
 8516TIP3   OH247038   1.787   1.307  13.665 -0.4853 -0.9695  0.3655
 8516TIP3    H147039   1.803   1.399  13.644 -2.6170 -0.4416  0.7694
 8516TIP3    H247040   1.780   1.264  13.580  0.4714 -0.7611  0.1743
 8517TIP3   OH247041   4.175   0.714   1.830  0.4626  0.6892 -0.0818
 8517TIP3    H147042   4.124   0.674   1.901  0.7605  1.2118  0.4314
 8517TIP3    H247043   4.110   0.738   1.764  0.0100  1.5468  0.6608
 8518TIP3   OH247044   6.035   5.495   5.419  0.1964  0.1942 -0.0017
 8518TIP3    H147045   5.961   5.435   5.428 -0.2633  0.7713  0.1055
 8518TIP3    H247046   6.065   5.483   5.329 -0.4033  0.3814 -0.2334
 8519TIP3   OH247047   4.000   2.115  11.283 -0.0727 -0.5098  0.5443
 8519TIP3    H147048   3.936   2.075  11.342  1.8806 -0.2279  3.0028
 8519TIP3    H247049   4.077   2.059  11.289  0.5441  0.1152 -0.9987
 8520TIP3   OH247050   2.950   4.827  11.534 -0.1924  0.6663  0.3812
 8520TIP3    H147051   2.982   4.737  11.530  0.3715  0.7387  2.2906
 8520TIP3    H247052   2.869   4.822  11.584 -1.3392  0.9664 -1.3654
 8521TIP3   OH247053   4.919   1.332  16.291 -0.2082 -0.2499 -0.4508
 8521TIP3    H147054   4.862   1.400  16.256 -0.5086 -0.2991 -0.0648
 8521TIP3    H247055   4.997   1.379  16.320 -0.9468  0.1191  1.0084
 8522TIP3   OH247056   2.772   6.084  12.693 -0.2683 -0.2876 -0.1098
 8522TIP3    H147057   2.743   6.138  12.767 -0.7181  0.5327 -0.8756
 8522TIP3    H247058   2.710   6.103  12.623 -0.3165 -1.6571 -0.4666
 8523TIP3   OH247059   4.040   5.272  11.177  0.4690  0.0439  0.3845
 8523TIP3    H147060   4.066   5.337  11.242  0.7932  1.0179 -0.6808
 8523TIP3    H247061   3.961   5.232  11.213  0.1313  1.1874  0.9655
 8524TIP3   OH247062   5.567   1.261   2.434 -0.1011 -0.8481  0.1736
 8524TIP3    H147063   5.611   1.274   2.350 -0.2117  0.5999  0.3247
 8524TIP3    H247064   5.555   1.349   2.469 -0.8547 -1.3802  1.3071
 8525TIP3   OH247065   3.703   4.692  14.144  0.4673 -0.5465 -0.2335
 8525TIP3    H147066   3.666   4.766  14.095  0.4681  0.3202  1.0165
 8525TIP3    H247067   3.658   4.615  14.110 -1.5219  0.3332  0.3011
 8526TIP3   OH247068   2.082   1.566  12.951  0.2468  0.7498  0.1468
 8526TIP3    H147069   2.112   1.656  12.955  0.0562  0.8275 -0.1996
 8526TIP3    H247070   1.992   1.571  12.918 -0.0883  0.5019  0.9988
 8527TIP3   OH247071   4.241   0.742  12.692 -0.3381  0.3871 -0.9718
 8527TIP3    H147072   4.280   0.654  12.697 -0.7147  0.2857  1.9052
 8527TIP3    H247073   4.280   0.789  12.766 -3.0958  1.3408 -0.0228
 8528TIP3   OH247074   5.641   3.334   0.136  0.0614  0.3074 -0.3493
 8528TIP3    H147075   5.548   3.358   0.135 -0.0373 -0.0803 -1.0524
 8528TIP3    H247076   5.641   3.241   0.157  0.2951  0.3189 -0.3026
 8529TIP3   OH247077   4.022   4.234  14.063 -0.0760 -0.5644 -0.6523
 8529TIP3    H147078   4.057   4.164  14.007  2.1266  0.9578 -1.3173
 8529TIP3    H247079   3.988   4.300  14.002 -0.1968 -0.1136 -0.1079
 8530TIP3   OH247080   2.261   4.658  14.109 -0.3457 -0.0398  0.0851
 8530TIP3    H147081   2.184   4.672  14.165 -0.2838  0.1491  0.1218
 8530TIP3    H247082   2.241   4.704  14.028 -0.1183  0.3111  0.2271
 8531TIP3   OH247083   4.037   0.234   4.414 -0.1288 -0.1551  0.1595
 8531TIP3    H147084   3.950   0.221   4.379 -0.8359  1.1932  1.2881
 8531TIP3    H247085   4.093   0.177   4.362 -1.6611 -1.0038 -0.6252
 8532TIP3   OH247086   4.633   6.674   3.527  0.1754  0.2000  0.1960
 8532TIP3    H147087   4.705   6.651   3.469  0.0383 -1.5709  0.6745
 8532TIP3    H247088   4.599   6.590   3.558 -1.2730  1.0334  0.9861
 8533TIP3   OH247089   4.434   0.904   0.243  0.7964 -0.2118  0.9335
 8533TIP3    H147090   4.394   0.858   0.317  0.6413 -1.2787  0.2148
 8533TIP3    H247091   4.441   0.837   0.174  0.0752  0.9697 -0.3402
 8534TIP3   OH247092   5.267   1.149   0.670  0.1349  0.5394 -0.2476
 8534TIP3    H147093   5.280   1.075   0.610 -2.7043  0.1104 -0.4662
 8534TIP3    H247094   5.187   1.127   0.718  1.0857  1.9249  2.1602
 8535TIP3   OH247095   5.565   4.359  16.622 -0.4450  0.0661  0.7876
 8535TIP3    H147096   5.629   4.320  16.683 -0.5370  0.1311  0.9256
 8535TIP3    H247097   5.481   4.323  16.650 -0.6273  0.9143  1.3723
 8536TIP3   OH247098   1.029   6.709  12.134 -0.3748 -0.1681  0.1718
 8536TIP3    H147099   1.094   6.738  12.071 -0.2664  0.3745  0.5286
 8536TIP3    H247100   1.069   6.634  12.177 -1.2994 -1.9516 -1.8957
 8537TIP3   OH247101   2.236   2.682  14.190  0.0424  0.1569  1.0910
 8537TIP3    H147102   2.203   2.730  14.266  0.2523  0.8810  0.7334
 8537TIP3    H247103   2.172   2.699  14.121  0.4202  0.4110  0.7971
 8538TIP3   OH247104   5.635   6.287   2.914 -0.4618  0.2941  0.0917
 8538TIP3    H147105   5.625   6.357   2.850  0.0446  0.5675  0.3089
 8538TIP3    H247106   5.546   6.255   2.928 -1.0729  2.4790  1.7775
 8539TIP3   OH247107   5.756   3.124   1.464  0.0069 -0.3411  0.1189
 8539TIP3    H147108   5.682   3.141   1.406 -1.2755 -2.6587  0.9448
 8539TIP3    H247109   5.803   3.051   1.423  0.4247 -0.4879  0.8280
 8540TIP3   OH247110   0.147   0.826  12.217 -0.6107 -0.6211  0.1883
 8540TIP3    H147111   0.091   0.777  12.157  1.7964 -0.5623 -2.3207
 8540TIP3    H247112   0.087   0.879  12.269 -2.9063 -1.3839 -1.5401
 8541TIP3   OH247113   6.167   2.747   4.444  0.0973  0.1264  0.2635
 8541TIP3    H147114   6.112   2.821   4.416  1.0133  0.1483 -1.6055
 8541TIP3    H247115   6.195   2.706   4.362 -0.0767 -2.0952  1.2454
 8542TIP3   OH247116   3.679   3.219   0.756 -0.0451 -0.3336  0.0169
 8542TIP3    H147117   3.692   3.286   0.822  0.5168 -1.7207  1.3739
 8542TIP3    H247118   3.767   3.184   0.739 -0.4969 -1.8110  0.5545
 8543TIP3   OH247119   3.016   2.219   1.538 -0.1817  0.1171 -0.1230
 8543TIP3    H147120   2.959   2.225   1.462  0.2896 -0.7950 -0.5655
 8543TIP3    H247121   3.100   2.190   1.503  0.8718  2.3497  0.3881
 8544TIP3   OH247122   5.021   5.677   4.412  0.5696 -0.0544 -0.1963
 8544TIP3    H147123   4.961   5.637   4.349 -1.2945  0.0423  1.4001
 8544TIP3    H247124   5.076   5.605   4.441 -0.2017 -0.6368 -0.1491
 8545TIP3   OH247125   1.765   4.900   2.358  0.2100  0.1985 -0.1661
 8545TIP3    H147126   1.808   4.817   2.338  1.9364  0.7871  0.9076
 8545TIP3    H247127   1.833   4.954   2.398 -0.9825  1.9827 -0.4004
 8546TIP3   OH247128   0.024   6.226  12.224 -0.5459 -0.4472 -0.8376
 8546TIP3    H147129   0.065   6.309  12.202 -0.8928  0.7471  2.3931
 8546TIP3    H247130  -0.055   6.250  12.272  1.6865 -2.2799  4.5696
 8547TIP3   OH247131   5.743   4.550   3.107  0.0144  0.4218 -0.0460
 8547TIP3    H147132   5.664   4.525   3.156  0.4312  0.6790  0.7787
 8547TIP3    H247133   5.712   4.568   3.018 -0.7747  0.0451  0.1445
 8548TIP3   OH247134   0.133   4.552  10.814  0.1601  0.1881  0.6052
 8548TIP3    H147135   0.165   4.479  10.761  1.1588 -0.7607  2.4380
 8548TIP3    H247136   0.043   4.529  10.836  0.2390 -0.1524  0.5729
 8549TIP3   OH247137   1.597   4.054   0.553 -0.5625  0.5517  0.6963
 8549TIP3    H147138   1.664   4.017   0.610 -0.6355 -1.2150 -0.2820
 8549TIP3    H247139   1.606   4.006   0.470 -1.2911  2.1441 -0.3698
 8550TIP3   OH247140   2.405   3.728   6.275  0.0385 -0.0927 -1.0752
 8550TIP3    H147141   2.352   3.773   6.341 -1.0722 -2.0019 -0.5657
 8550TIP3    H247142   2.461   3.670   6.326  0.3940 -0.3450 -1.7444
 8551TIP3   OH247143   0.018   3.438  17.146  0.0878 -0.0725  0.0376
 8551TIP3    H147144  -0.021   3.500  17.084  0.9153  0.8005  0.3780
 8551TIP3    H247145   0.094   3.483  17.181  0.8228 -1.3583  0.1649
 8552TIP3   OH247146   2.573   1.512   5.196  0.5230 -0.1288 -0.0891
 8552TIP3    H147147   2.601   1.461   5.271 -2.5836 -2.3986 -0.2660
 8552TIP3    H247148   2.508   1.573   5.231  1.2508  0.9407 -0.5310
 8553TIP3   OH247149   1.156   3.362  13.442  0.1664 -0.0286  0.0020
 8553TIP3    H147150   1.189   3.339  13.529 -1.0923  0.9695  0.7744
 8553TIP3    H247151   1.186   3.291  13.386  2.8356  0.3437  0.8028
 8554TIP3   OH247152   1.891   0.319   2.487 -0.0495 -0.1129 -0.2169
 8554TIP3    H147153   1.924   0.383   2.549 -1.5945  1.1139 -0.5892
 8554TIP3    H247154   1.854   0.249   2.541 -0.8565  0.6680  0.2742
 8555TIP3   OH247155   2.458   5.662  10.746  0.3173 -0.3721  0.7522
 8555TIP3    H147156   2.513   5.682  10.670 -0.2455 -0.8085  0.2153
 8555TIP3    H247157   2.499   5.708  10.818  0.6103  0.4260  0.0936
 8556TIP3   OH247158   6.068   3.067  15.034  0.1030  0.4659  0.2485
 8556TIP3    H147159   6.122   3.104  15.104  0.3743  1.7626 -0.5960
 8556TIP3    H247160   5.980   3.063  15.070  0.6064 -0.9200  1.3775
 8557TIP3   OH247161   6.574   6.791  13.429 -0.6199 -0.5017  0.2533
 8557TIP3    H147162   6.596   6.865  13.487 -0.8198  0.0078 -0.3086
 8557TIP3    H247163   6.511   6.828  13.367  0.8924 -0.5459 -1.3815
 8558TIP3   OH247164   2.958   2.237   2.883 -0.2441 -0.0613  0.5365
 8558TIP3    H147165   3.030   2.196   2.835 -1.0459  1.1157 -1.8283
 8558TIP3    H247166   2.950   2.324   2.844 -2.6446 -0.0012  1.0135
 8559TIP3   OH247167   0.034   1.860  13.887  0.1609  0.1385  0.3188
 8559TIP3    H147168  -0.056   1.850  13.855 -0.2256  1.8154  0.7721
 8559TIP3    H247169   0.082   1.893  13.811  0.5048 -1.0825 -0.0225
 8560TIP3   OH247170   2.926   2.617   4.664  0.0059 -0.2211 -0.0946
 8560TIP3    H147171   2.882   2.533   4.683 -1.8108  0.5381 -0.7323
 8560TIP3    H247172   2.877   2.681   4.716  0.0040  0.7388 -1.2489
 8561TIP3   OH247173   3.367   6.032  15.637 -0.0081  0.3240 -0.6917
 8561TIP3    H147174   3.432   5.966  15.662 -0.8775 -0.3249 -0.0534
 8561TIP3    H247175   3.307   6.036  15.712 -0.9339  0.5886 -1.4233
 8562TIP3   OH247176   6.369   6.503   2.419 -0.3039  0.2102  0.7403
 8562TIP3    H147177   6.443   6.549   2.459 -1.4233  1.3909  1.5659
 8562TIP3    H247178   6.387   6.410   2.433  2.1080  0.3099 -1.0824
 8563TIP3   OH247179   2.258   0.192   1.061 -0.1788  0.0789  0.4578
 8563TIP3    H147180   2.203   0.121   1.094  0.9469 -0.9179  0.2495
 8563TIP3    H247181   2.318   0.212   1.133  0.0077  0.2923  0.2472
 8564TIP3   OH247182   0.286   3.627  14.948 -0.0249  0.6051  0.0377
 8564TIP3    H147183   0.369   3.633  14.900 -0.0596  0.7221 -0.0073
 8564TIP3    H247184   0.299   3.555  15.010 -0.2316 -0.0200 -0.6390
 8565TIP3   OH247185   4.408   1.985   2.504  0.2856  0.1606  0.1818
 8565TIP3    H147186   4.490   1.982   2.553 -0.1330 -0.5680  0.8759
 8565TIP3    H247187   4.425   2.044   2.431  1.8543 -1.0290 -0.4766
 8566TIP3   OH247188   3.119   5.702   5.852  0.1005  0.0184  0.2266
 8566TIP3    H147189   3.084   5.681   5.939  0.2092  0.7596  0.4633
 8566TIP3    H247190   3.042   5.706   5.796  0.0789 -0.9388  0.1852
 8567TIP3   OH247191   6.294   3.678   4.348  0.2935  0.4261 -0.2021
 8567TIP3    H147192   6.264   3.749   4.292 -0.2163  1.7546  1.6799
 8567TIP3    H247193   6.253   3.694   4.432  2.9708 -0.0340  1.3277
 8568TIP3   OH247194   3.655   5.573  15.507  0.4145 -0.2719  0.2122
 8568TIP3    H147195   3.727   5.628  15.536  0.5773 -0.8977  1.0436
 8568TIP3    H247196   3.587   5.586  15.573  0.1860 -0.5006  0.0219
 8569TIP3   OH247197   1.846   0.684  14.696 -0.2274 -0.4963  0.0889
 8569TIP3    H147198   1.823   0.732  14.617  0.6333 -0.8884 -0.4095
 8569TIP3    H247199   1.821   0.742  14.768  0.4102  0.5253 -0.5006
 8570TIP3   OH247200   4.988   1.135   3.950  0.1301  0.2895 -0.1288
 8570TIP3    H147201   4.983   1.192   4.027  1.8259 -1.4317  1.3568
 8570TIP3    H247202   5.034   1.189   3.885  0.0140  1.2720  0.5677
 8571TIP3   OH247203   2.694   1.605   2.338 -0.6641 -0.1553 -0.1894
 8571TIP3    H147204   2.786   1.628   2.323 -0.8079  0.3717 -0.2615
 8571TIP3    H247205   2.691   1.511   2.320  0.2014 -0.5377  1.4068
 8572TIP3   OH247206   6.062   1.724   5.004  0.1820 -0.4726 -0.3426
 8572TIP3    H147207   6.067   1.648   5.062 -1.3692 -1.3472 -1.2801
 8572TIP3    H247208   5.968   1.744   4.999  0.4748  0.9111 -0.8906
 8573TIP3   OH247209   3.538   2.820   4.416  0.1607 -0.5512  0.5300
 8573TIP3    H147210   3.461   2.784   4.373  1.7937 -2.1167 -1.2912
 8573TIP3    H247211   3.538   2.913   4.392 -1.1987 -0.5071  0.6519
 8574TIP3   OH247212   2.907   4.027   0.798  0.1931 -0.3631 -0.5761
 8574TIP3    H147213   2.950   3.941   0.803  0.4214 -0.1755  2.6303
 8574TIP3    H247214   2.823   4.009   0.756  0.1520 -2.2287  0.1816
 8575TIP3   OH247215   4.481   3.319  12.443  0.2448 -0.0440  0.0522
 8575TIP3    H147216   4.435   3.312  12.360  1.0808 -2.2491 -0.3080
 8575TIP3    H247217   4.521   3.406  12.443 -0.1189  0.1425 -1.6645
 8576TIP3   OH247218   5.785   6.594  16.810  0.9650  0.3133 -0.4794
 8576TIP3    H147219   5.780   6.644  16.892  0.4868  0.0430 -0.3381
 8576TIP3    H247220   5.728   6.641  16.750 -0.9639 -1.0414  0.1959
 8577TIP3   OH247221   5.744   5.990   4.895 -0.2031 -0.0614 -0.7539
 8577TIP3    H147222   5.772   5.899   4.895 -0.5818 -0.1796 -0.8206
 8577TIP3    H247223   5.818   6.038   4.858  1.1854  0.0484  1.9308
 8578TIP3   OH247224   1.771   6.365   3.891 -0.1994 -0.5699  0.4198
 8578TIP3    H147225   1.799   6.388   3.980  0.9601 -1.6317  0.3630
 8578TIP3    H247226   1.748   6.448   3.850  2.5593  0.3961  0.6205
 8579TIP3   OH247227   6.788   0.531  13.348 -0.0774 -0.1240 -0.0735
 8579TIP3    H147228   6.842   0.515  13.426 -0.3990 -0.9665 -0.0157
 8579TIP3    H247229   6.703   0.558  13.383 -0.0253  0.1439 -0.1493
 8580TIP3   OH247230   3.913   5.549  15.299  0.4452  0.2658 -0.1004
 8580TIP3    H147231   3.932   5.554  15.393  0.2164 -1.1705  0.0413
 8580TIP3    H247232   3.999   5.539  15.258  0.5323  0.7374 -0.0420
 8581TIP3   OH247233   5.657   4.131   0.492  0.4239  0.9277 -0.1565
 8581TIP3    H147234   5.703   4.213   0.513  0.0759  1.3063 -0.8420
 8581TIP3    H247235   5.722   4.078   0.447 -0.1641  2.0305 -2.4331
 8582TIP3   OH247236   5.657   1.190  17.018  0.1626  0.2008 -0.3295
 8582TIP3    H147237   5.688   1.266  17.068  1.8261  0.0334 -1.0509
 8582TIP3    H247238   5.561   1.193  17.026  0.2393  1.9744  0.2071
 8583TIP3   OH247239   5.997   3.611  15.518  0.6586  0.4571 -0.2493
 8583TIP3    H147240   6.057   3.562  15.462  2.1230  1.7252  0.1355
 8583TIP3    H247241   5.911   3.601  15.477  1.1776 -1.1127 -1.0191
 8584TIP3   OH247242   1.391   2.904  11.014 -0.0787  0.1562  0.7382
 8584TIP3    H147243   1.308   2.856  11.006 -0.2770  0.3657  1.4218
 8584TIP3    H247244   1.382   2.977  10.953  0.3423 -0.8158 -0.5275
 8585TIP3   OH247245   2.496   4.345   3.800  0.1131 -0.1573  0.1413
 8585TIP3    H147246   2.563   4.295   3.754 -1.0348  0.6272 -2.5544
 8585TIP3    H247247   2.536   4.431   3.815  0.1390 -0.0833 -0.3505
 8586TIP3   OH247248   3.231   5.220   3.067  0.4999  0.1227 -0.2006
 8586TIP3    H147249   3.307   5.193   3.015  2.1560 -0.0729  2.2063
 8586TIP3    H247250   3.249   5.311   3.090 -0.1000  0.1293  0.2535
 8587TIP3   OH247251   6.006   0.790   3.765 -0.1799  0.4868 -0.5368
 8587TIP3    H147252   5.990   0.857   3.699 -2.9352 -0.4540 -0.9533
 8587TIP3    H247253   5.927   0.789   3.819  0.2881 -1.5519  0.2293
 8588TIP3   OH247254   4.363   2.997  12.852  0.0342 -0.1326 -0.1635
 8588TIP3    H147255   4.407   3.082  12.849 -0.7515  0.3077  0.3072
 8588TIP3    H247256   4.302   3.004  12.926 -1.6179 -0.3224 -1.4375
 8589TIP3   OH247257   6.274   2.717   4.706  0.1966 -0.3264  0.6047
 8589TIP3    H147258   6.367   2.708   4.687  0.1783 -0.5862  0.6383
 8589TIP3    H247259   6.238   2.763   4.631  1.0347  3.3666  2.2501
 8590TIP3   OH247260   2.018   0.006  13.357  0.1746  0.0819 -0.4033
 8590TIP3    H147261   2.010  -0.089  13.366 -0.7418  0.1117 -0.7899
 8590TIP3    H247262   1.938   0.040  13.397 -0.3825  0.5866 -1.9127
 8591TIP3   OH247263   3.232   5.343   4.586 -0.4997 -0.4113  0.0965
 8591TIP3    H147264   3.256   5.355   4.495 -1.8635 -1.4474 -0.4288
 8591TIP3    H247265   3.314   5.355   4.634  0.2043  0.3171 -1.2291
 8592TIP3   OH247266   6.656   6.223   3.234 -0.5853 -0.2125 -0.7140
 8592TIP3    H147267   6.577   6.259   3.274 -0.4585 -0.1842 -0.4900
 8592TIP3    H247268   6.632   6.211   3.142 -0.6452  0.4207 -0.7905
 8593TIP3   OH247269   0.649   1.966  16.736  0.6198  0.1280  0.3810
 8593TIP3    H147270   0.604   1.884  16.718 -0.3911  0.8015 -0.2233
 8593TIP3    H247271   0.717   1.972  16.669 -0.7967  0.8742 -1.0600
 8594TIP3   OH247272   4.928   3.437   4.039  0.4130 -0.2695 -0.3890
 8594TIP3    H147273   4.845   3.453   4.084  1.1817  0.9312  0.6766
 8594TIP3    H247274   4.925   3.493   3.962 -0.2752 -1.1883 -1.0498
 8595TIP3   OH247275   6.791   4.963  14.430  0.0096 -0.3491  0.2441
 8595TIP3    H147276   6.779   5.053  14.399 -0.8290 -1.2759 -2.4077
 8595TIP3    H247277   6.724   4.953  14.498 -0.5501  0.7597 -0.1091
 8596TIP3   OH247278   0.855   3.804  15.042 -0.0598 -0.2140  0.1902
 8596TIP3    H147279   0.842   3.896  15.066  0.7737 -0.5895  2.2429
 8596TIP3    H247280   0.846   3.756  15.125 -2.2099 -2.2020 -1.0827
 8597TIP3   OH247281   4.375   5.558   1.582  0.3607 -0.1753  0.0614
 8597TIP3    H147282   4.371   5.639   1.531 -0.7256  0.2386  0.7596
 8597TIP3    H247283   4.384   5.587   1.673  2.4886 -0.8989  0.1501
 8598TIP3   OH247284   3.705   2.160  12.698  0.3173 -0.1914  0.0800
 8598TIP3    H147285   3.795   2.128  12.686  0.2143 -1.0544  1.4354
 8598TIP3    H247286   3.715   2.249  12.732  0.6447  0.0204 -0.5607
 8599TIP3   OH247287   0.299   0.769   3.564  0.1587 -0.3613  0.7127
 8599TIP3    H147288   0.203   0.768   3.561  0.1344  0.2976  1.2371
 8599TIP3    H247289   0.326   0.784   3.473 -0.2346 -0.4438  0.5808
 8600TIP3   OH247290   1.270   5.091   2.635 -0.2142 -0.2341  0.5376
 8600TIP3    H147291   1.234   5.163   2.687 -0.2609 -0.3238  0.6279
 8600TIP3    H247292   1.292   5.024   2.699 -1.0015 -0.6604  0.3698
 8601TIP3   OH247293   2.208   4.750  15.814 -0.7017  0.5035  0.4827
 8601TIP3    H147294   2.245   4.839  15.813 -0.2850  0.3425  1.0170
 8601TIP3    H247295   2.244   4.708  15.737  2.7682 -0.6357  2.5192
 8602TIP3   OH247296   2.366   3.205   0.090 -0.3520  0.7705 -0.1354
 8602TIP3    H147297   2.309   3.188   0.015 -0.6205  0.7618  0.0733
 8602TIP3    H247298   2.368   3.123   0.138 -0.1313  0.7581 -0.1634
 8603TIP3   OH247299   3.908   1.803  16.165 -0.1965 -0.9939  0.6056
 8603TIP3    H147300   3.813   1.792  16.172 -0.1060 -1.3388  1.3606
 8603TIP3    H247301   3.926   1.793  16.071 -1.3978  3.2461 -0.2939
 8604TIP3   OH247302   4.719   2.346  14.424  0.3186 -0.0156 -0.4718
 8604TIP3    H147303   4.643   2.404  14.431 -0.1306 -0.2610 -2.7706
 8604TIP3    H247304   4.710   2.304  14.339  2.4847 -0.8723 -0.3363
 8605TIP3   OH247305   1.151   6.154  14.809 -0.3305  0.2951 -0.0921
 8605TIP3    H147306   1.116   6.072  14.775  0.7276  0.3100 -1.2754
 8605TIP3    H247307   1.077   6.214  14.809 -0.4884  0.1421 -1.9359
 8606TIP3   OH247308   5.375   5.072   3.353  0.7333  0.0242 -0.3962
 8606TIP3    H147309   5.314   5.080   3.427 -1.5024  0.5406 -2.1899
 8606TIP3    H247310   5.449   5.023   3.389 -2.1341 -3.7186  1.1194
 8607TIP3   OH247311   4.270   2.802  13.642  0.1029 -0.0912  0.1133
 8607TIP3    H147312   4.208   2.777  13.710  1.9059 -1.0043  1.4957
 8607TIP3    H247313   4.356   2.801  13.685  1.1469  0.8134 -1.7928
 8608TIP3   OH247314   4.348   4.200  13.232  0.1523  0.4454 -0.4852
 8608TIP3    H147315   4.341   4.192  13.328 -2.1809  1.8060 -0.4433
 8608TIP3    H247316   4.431   4.244  13.217  1.2151 -1.0293  0.7947
 8609TIP3   OH247317   2.456   0.228  14.842  0.8010  0.7817  0.0501
 8609TIP3    H147318   2.484   0.296  14.903  0.5218  1.1409 -0.2140
 8609TIP3    H247319   2.502   0.149  14.871  2.3448  1.4175 -0.5687
 8610TIP3   OH247320   6.003   2.569   4.584  0.1197  0.2144 -0.4363
 8610TIP3    H147321   6.037   2.655   4.560 -1.5226  1.0123 -0.0478
 8610TIP3    H247322   5.956   2.584   4.666  2.6034 -1.7380  1.5338
 8611TIP3   OH247323   4.628   3.190   1.055 -0.3106 -0.0075  0.0728
 8611TIP3    H147324   4.689   3.265   1.058 -0.2496 -0.0449 -0.2492
 8611TIP3    H247325   4.684   3.115   1.039 -0.6049  0.1641 -2.0332
 8612TIP3   OH247326   2.142   2.632  12.856  0.8195  0.2461 -0.0061
 8612TIP3    H147327   2.238   2.630  12.853  0.8993 -0.6859  1.6761
 8612TIP3    H247328   2.116   2.657  12.768  2.6025 -0.1101 -0.6882
 8613TIP3   OH247329   3.097   6.780   5.364 -0.1338 -0.9260  1.0221
 8613TIP3    H147330   3.183   6.741   5.352 -0.6784 -1.4947 -1.9248
 8613TIP3    H247331   3.039   6.706   5.382 -0.1356 -0.6045  2.4607
 8614TIP3   OH247332   5.705   1.765  13.104 -0.1252  0.3169  0.1881
 8614TIP3    H147333   5.678   1.709  13.177  1.7396 -1.6552 -0.4999
 8614TIP3    H247334   5.792   1.795  13.127  0.2966  0.0613 -0.9831
 8615TIP3   OH247335   3.895   3.196   3.125 -0.4489  0.0855 -0.2716
 8615TIP3    H147336   3.941   3.139   3.063  2.3517  1.2035  0.5905
 8615TIP3    H247337   3.842   3.136   3.178  0.9226 -1.5042 -0.5915
 8616TIP3   OH247338   2.899   3.616   9.938  0.5472 -0.0911  0.3992
 8616TIP3    H147339   2.880   3.549  10.003  0.2191 -1.2831 -0.8887
 8616TIP3    H247340   2.952   3.572   9.872 -0.2974  0.6995 -0.8610
 8617TIP3   OH247341   6.462   5.033  11.042  0.3816  0.7388  0.0390
 8617TIP3    H147342   6.470   4.963  11.107 -3.5264 -0.2135 -0.2424
 8617TIP3    H247343   6.460   4.987  10.957  0.7053  1.5048 -0.3957
 8618TIP3   OH247344   3.642   2.755   3.248 -0.0064  0.2527  0.2903
 8618TIP3    H147345   3.719   2.732   3.197 -0.3945 -0.7870  0.1540
 8618TIP3    H247346   3.667   2.739   3.339 -0.3295 -0.9514  0.1863
 8619TIP3   OH247347   0.006   5.083   0.967  0.1415 -0.4486  0.1167
 8619TIP3    H147348  -0.061   5.152   0.970 -1.1121 -1.6370  2.0563
 8619TIP3    H247349  -0.029   5.018   0.906  0.1182 -0.4810  0.1639
 8620TIP3   OH247350   0.396   6.474   2.469  0.3521  0.5440  0.5833
 8620TIP3    H147351   0.465   6.519   2.517  1.5861 -0.4377 -0.1995
 8620TIP3    H247352   0.352   6.544   2.420  0.8196  1.1775  1.0473
 8621TIP3   OH247353   2.761   2.567   4.177 -0.5901 -0.3178  0.0143
 8621TIP3    H147354   2.824   2.630   4.213 -1.1661  1.6413 -2.1769
 8621TIP3    H247355   2.709   2.540   4.253  0.1694  1.2963  1.1684
 8622TIP3   OH247356   5.838   3.457  16.420 -1.0898  0.5622 -0.0864
 8622TIP3    H147357   5.925   3.436  16.388 -0.5775  2.1634  0.1565
 8622TIP3    H247358   5.792   3.373  16.423  0.3880 -0.2830 -0.3560
 8623TIP3   OH247359   0.720   1.772  13.498 -0.0435 -0.5454  0.3122
 8623TIP3    H147360   0.755   1.780  13.587  1.6706  0.5140 -0.4079
 8623TIP3    H247361   0.739   1.683  13.472 -1.3194 -1.1379  1.2759
 8624TIP3   OH247362   2.855   1.692  13.214  0.3500 -0.1740  0.1153
 8624TIP3    H147363   2.760   1.695  13.204  0.3134  1.0458  0.6442
 8624TIP3    H247364   2.869   1.647  13.298  0.2163  0.1224  0.2978
 8625TIP3   OH247365   2.362   0.788   0.970  0.7350 -0.4320 -0.2133
 8625TIP3    H147366   2.451   0.820   0.952  1.5614 -1.9325  0.9404
 8625TIP3    H247367   2.360   0.702   0.929 -0.1703 -0.4390 -0.1543
 8626TIP3   OH247368   1.881   3.929   5.305  0.1800 -0.2739  0.2000
 8626TIP3    H147369   1.920   4.015   5.324  0.6927 -0.9857  2.7514
 8626TIP3    H247370   1.887   3.921   5.210  1.9469  1.6672  0.0583
 8627TIP3   OH247371   2.076   3.984  16.860  0.3704  0.3705 -0.2464
 8627TIP3    H147372   2.113   4.062  16.902 -0.7305  0.2178  1.0605
 8627TIP3    H247373   2.117   3.982  16.773  1.9965  1.2337  0.4566
 8628TIP3   OH247374   6.138   0.869   5.983  0.4191  0.1321 -0.1893
 8628TIP3    H147375   6.095   0.885   6.067 -1.6166 -0.1747 -1.0930
 8628TIP3    H247376   6.065   0.860   5.921  1.7865 -1.5538 -1.6498
 8629TIP3   OH247377   1.991   1.561  15.723 -0.8788 -0.0328 -0.2761
 8629TIP3    H147378   1.910   1.511  15.723 -1.2010  0.4739 -0.0005
 8629TIP3    H247379   2.051   1.511  15.668 -0.1964 -2.3186  2.2964
 8630TIP3   OH247380   3.946   1.247  16.357  0.0655  0.2984 -0.4305
 8630TIP3    H147381   3.873   1.252  16.419 -0.3309  2.2435 -0.9917
 8630TIP3    H247382   3.981   1.336  16.354 -0.1555  0.3765 -3.2604
 8631TIP3   OH247383   3.141   0.107   1.724 -0.1303  0.0637 -0.6102
 8631TIP3    H147384   3.150   0.189   1.677 -1.0508  1.4926  1.5424
 8631TIP3    H247385   3.052   0.078   1.706 -0.5147  0.6604  0.2863
 8632TIP3   OH247386   2.429   4.459  14.223 -0.1059  0.5204 -0.0718
 8632TIP3    H147387   2.372   4.511  14.167 -1.0366 -0.5932 -0.1998
 8632TIP3    H247388   2.372   4.392  14.260  1.0152 -0.3389  0.1768
 8633TIP3   OH247389   0.862   1.092   0.320 -0.2581  0.0293 -0.0249
 8633TIP3    H147390   0.928   1.047   0.266 -1.1599 -1.1828 -0.1487
 8633TIP3    H247391   0.875   1.057   0.408  1.3078  2.1102  0.6907
 8634TIP3   OH247392   6.562   5.076   2.004 -0.1072  0.2828  0.2512
 8634TIP3    H147393   6.577   5.112   2.091  1.1127  1.4554 -0.4167
 8634TIP3    H247394   6.597   4.987   2.008 -0.2656  0.2506  1.0143
 8635TIP3   OH247395   6.611   0.295   2.614  0.3226  0.1211 -0.2084
 8635TIP3    H147396   6.559   0.251   2.547  1.5991 -0.9476 -0.5539
 8635TIP3    H247397   6.557   0.290   2.693  0.0591 -1.3881 -0.4421
 8636TIP3   OH247398   3.338   5.942  16.556 -0.6484  0.3461  0.2874
 8636TIP3    H147399   3.344   5.903  16.469  0.8958  0.3482  0.3709
 8636TIP3    H247400   3.335   6.036  16.540  0.6306  0.3991  0.2404
 8637TIP3   OH247401   5.753   3.801  14.016  0.3776 -0.1273  0.3726
 8637TIP3    H147402   5.747   3.779  14.109 -2.5957 -1.2440  0.0431
 8637TIP3    H247403   5.799   3.726  13.977 -0.1823 -0.6606  0.7075
 8638TIP3   OH247404   5.928   3.774  12.959  0.2192 -0.7367 -0.6122
 8638TIP3    H147405   5.977   3.708  13.008  0.9261 -0.3463 -0.7645
 8638TIP3    H247406   5.873   3.724  12.899  0.6476 -1.1920 -0.6307
 8639TIP3   OH247407   3.829   6.647   5.165  0.0300 -0.5061 -0.1398
 8639TIP3    H147408   3.861   6.558   5.178 -0.3007 -0.8089 -1.2744
 8639TIP3    H247409   3.737   6.637   5.142 -0.1493  0.1643  0.2561
 8640TIP3   OH247410   3.167   1.832   4.788  0.4029  0.6667 -0.1912
 8640TIP3    H147411   3.160   1.738   4.802  1.6603  0.4037 -1.2436
 8640TIP3    H247412   3.234   1.861   4.850  1.4721  0.5145 -1.2390
 8641TIP3   OH247413   3.034   6.140   4.489  0.5041  0.3593  0.1711
 8641TIP3    H147414   2.968   6.192   4.536  1.0385  0.2696  1.0495
 8641TIP3    H247415   3.065   6.198   4.420  0.0367  0.6739  0.2189
 8642TIP3   OH247416   6.087   6.349  11.889 -0.9009  0.2548  0.0648
 8642TIP3    H147417   6.135   6.286  11.836 -0.5387 -0.4813  1.2338
 8642TIP3    H247418   6.013   6.374  11.834 -0.3215 -0.1718 -0.9409
 8643TIP3   OH247419   0.375   4.048  11.080 -0.3389  0.5663 -0.4048
 8643TIP3    H147420   0.326   3.998  11.145 -0.2205  0.2986 -0.5203
 8643TIP3    H247421   0.312   4.067  11.011  0.2009 -1.6244 -1.5990
 8644TIP3   OH247422   6.102   6.500   0.373  0.5392 -0.3065  0.1029
 8644TIP3    H147423   6.108   6.405   0.364  1.1941 -0.2784  0.2329
 8644TIP3    H247424   6.189   6.532   0.350 -0.0277  0.3635 -1.1812
 8645TIP3   OH247425   0.296   3.935   2.398  0.1690 -0.2004  0.3961
 8645TIP3    H147426   0.348   3.902   2.325  0.8240 -0.6493  1.0605
 8645TIP3    H247427   0.205   3.916   2.373  0.0374  2.6774 -1.8661
 8646TIP3   OH247428   2.571   4.108  15.923  0.1963  0.4800  0.1218
 8646TIP3    H147429   2.609   4.176  15.867  0.0285 -0.9738 -1.8729
 8646TIP3    H247430   2.639   4.041  15.928 -0.7648 -0.6071 -0.6354
 8647TIP3   OH247431   3.343   0.456   4.859  0.3100  0.2516  0.2363
 8647TIP3    H147432   3.384   0.464   4.773 -0.1559  0.5967  0.0409
 8647TIP3    H247433   3.332   0.546   4.889 -1.5685  0.2619 -0.3368
 8648TIP3   OH247434   6.203   5.838  14.293 -0.1995 -0.1993 -0.2867
 8648TIP3    H147435   6.131   5.775  14.290  0.1769 -0.6589  0.1449
 8648TIP3    H247436   6.197   5.876  14.380 -0.6689  0.6662 -0.6821
 8649TIP3   OH247437   6.012   2.464  16.648 -0.3375  0.2242 -0.0980
 8649TIP3    H147438   6.031   2.372  16.626 -0.1700  0.3211 -0.3698
 8649TIP3    H247439   6.098   2.504  16.661 -0.3855  0.4558 -0.4617
 8650TIP3   OH247440   4.058   1.133  10.250  0.4765 -0.1232  0.7707
 8650TIP3    H147441   4.143   1.118  10.209  0.3752  0.5170  0.3214
 8650TIP3    H247442   4.073   1.116  10.344  1.2270  0.5258  0.7722
 8651TIP3   OH247443   3.963   2.296   3.796  0.2205  0.0500 -0.2534
 8651TIP3    H147444   3.877   2.255   3.791  0.4435 -0.5230  0.4056
 8651TIP3    H247445   3.946   2.386   3.824 -0.2926  0.5094 -1.9365
 8652TIP3   OH247446   5.597   5.710  13.962 -0.3354  0.0461  0.4173
 8652TIP3    H147447   5.684   5.673  13.946 -0.9616 -0.3442 -2.6572
 8652TIP3    H247448   5.567   5.667  14.043  1.4065 -1.5396  0.2847
 8653TIP3   OH247449   1.509   4.737  15.458 -0.3913 -0.1450 -0.0306
 8653TIP3    H147450   1.568   4.663  15.474  1.9591  1.7812  0.8794
 8653TIP3    H247451   1.452   4.707  15.388  0.9272 -2.5438 -0.2121
 8654TIP3   OH247452   0.790   6.414  13.864 -0.1982  0.1348  1.2020
 8654TIP3    H147453   0.851   6.468  13.813 -1.4675  1.5206  1.0932
 8654TIP3    H247454   0.721   6.391  13.802  0.0242 -1.1872  1.3993
 8655TIP3   OH247455   0.869   0.737   2.665 -0.0071  0.1060 -0.2032
 8655TIP3    H147456   0.863   0.759   2.758  1.9359 -0.3737  0.0900
 8655TIP3    H247457   0.872   0.821   2.620  0.3965  0.3760  0.3079
 8656TIP3   OH247458   0.838   3.175  12.561 -0.0924 -0.3893  0.4565
 8656TIP3    H147459   0.924   3.182  12.603  0.3160 -0.6946 -0.3138
 8656TIP3    H247460   0.818   3.081  12.564 -0.6818 -0.2536  1.1644
 8657TIP3   OH247461   6.721   0.893   5.222 -0.1199 -0.2988 -0.4474
 8657TIP3    H147462   6.706   0.967   5.163 -1.1128  0.3180  0.5396
 8657TIP3    H247463   6.652   0.901   5.288  0.0782 -1.8159 -0.0311
 8658TIP3   OH247464   2.411   1.946  11.644 -0.2540 -0.5251  0.1805
 8658TIP3    H147465   2.479   1.991  11.593 -0.4706 -1.0497 -0.6004
 8658TIP3    H247466   2.330   1.988  11.616 -0.4552 -1.3563 -0.5407
 8659TIP3   OH247467   4.607   2.113   0.223  0.1805 -0.7537  0.0313
 8659TIP3    H147468   4.635   2.040   0.168  2.7737 -0.5525  0.9680
 8659TIP3    H247469   4.553   2.167   0.165  0.8711 -1.7540 -1.6161
 8660TIP3   OH247470   1.218   4.802   4.602  0.3002 -0.6196  0.7116
 8660TIP3    H147471   1.218   4.896   4.624  1.1912 -0.7538  1.3352
 8660TIP3    H247472   1.198   4.758   4.684  1.1035 -1.0227  0.7001
 8661TIP3   OH247473   3.452   6.802  13.127  0.0318  0.3503 -0.1110
 8661TIP3    H147474   3.442   6.806  13.032  0.2945 -0.0494 -0.1617
 8661TIP3    H247475   3.397   6.728  13.154 -0.9274  1.1555  0.1880
 8662TIP3   OH247476   2.343   6.483   5.333  0.5990 -0.1904  0.0023
 8662TIP3    H147477   2.384   6.515   5.413  0.7836  0.4444 -0.3359
 8662TIP3    H247478   2.404   6.417   5.300  0.3370 -0.7283  0.5792
 8663TIP3   OH247479   0.054   5.479   5.288  0.1479  0.6970 -0.1715
 8663TIP3    H147480   0.021   5.511   5.372 -0.7629  0.6699 -0.4990
 8663TIP3    H247481   0.107   5.402   5.310  0.2040  0.8975  0.4030
 8664TIP3   OH247482   1.075   6.332   5.809 -0.3810  0.0719 -0.5165
 8664TIP3    H147483   1.160   6.359   5.774  0.3969 -0.9044  0.5561
 8664TIP3    H247484   1.035   6.414   5.838 -0.7391  0.8220 -2.8883
 8665TIP3   OH247485   5.154   0.300   1.721  0.1039 -0.0507  0.0260
 8665TIP3    H147486   5.210   0.223   1.726  0.7192  0.3884  0.1056
 8665TIP3    H247487   5.075   0.271   1.675  0.1455 -0.8262  0.4334
 8666TIP3   OH247488   0.246   2.528   4.995 -0.3654 -0.4561 -0.0879
 8666TIP3    H147489   0.302   2.605   5.008 -0.4829 -0.4814  0.5860
 8666TIP3    H247490   0.301   2.466   4.947  0.0817 -0.3658  0.3034
 8667TIP3   OH247491   0.531   1.421   1.411 -0.4448  0.2156  0.3125
 8667TIP3    H147492   0.618   1.397   1.441 -0.9965 -1.2554  0.7926
 8667TIP3    H247493   0.471   1.370   1.466 -1.5467 -0.8770 -1.7837
 8668TIP3   OH247494   0.550   4.791  13.853 -0.3059 -0.2455  0.0884
 8668TIP3    H147495   0.631   4.766  13.899  0.7073 -0.4610 -1.7185
 8668TIP3    H247496   0.519   4.709  13.815 -1.0243 -0.0355  0.2138
 8669TIP3   OH247497   1.671   3.528  12.683 -0.1214 -0.1557  0.4085
 8669TIP3    H147498   1.704   3.569  12.763  2.1491 -0.1324 -0.4845
 8669TIP3    H247499   1.677   3.597  12.617  0.2597 -0.8512 -0.2953
 8670TIP3   OH247500   0.399   2.087  10.818 -0.2595 -0.4871  0.1502
 8670TIP3    H147501   0.440   2.021  10.873  0.7401 -0.9709 -1.1423
 8670TIP3    H247502   0.325   2.042  10.777 -0.0935 -0.5530 -0.0740
 8671TIP3   OH247503   6.287   5.313  16.999  0.0510  0.5424  0.4036
 8671TIP3    H147504   6.337   5.324  16.918  0.0864  2.0977  0.6143
 8671TIP3    H247505   6.341   5.255  17.053  0.2052 -0.1978 -0.5270
 8672TIP3   OH247506   4.788   2.447  16.460  0.1071 -0.0585 -0.3649
 8672TIP3    H147507   4.757   2.536  16.444  1.0842  0.2129 -0.8726
 8672TIP3    H247508   4.759   2.427  16.549 -0.3114  0.6809 -0.3225
 8673TIP3   OH247509   5.699   6.741   4.905 -0.0137  0.1328 -0.9056
 8673TIP3    H147510   5.628   6.803   4.887 -0.4861 -0.3220 -0.6351
 8673TIP3    H247511   5.685   6.671   4.841  0.1473  0.0033 -0.7982
 8674TIP3   OH247512   0.163   1.077   4.554 -0.1108 -0.2345 -0.5647
 8674TIP3    H147513   0.128   1.097   4.641  0.2683  2.6554 -0.9828
 8674TIP3    H247514   0.189   0.985   4.559 -3.3786 -1.2167  1.2302
 8675TIP3   OH247515   6.749   0.816  12.599  0.5486 -0.1937 -0.3415
 8675TIP3    H147516   6.737   0.868  12.520 -0.1142  0.2174  0.0178
 8675TIP3    H247517   6.764   0.880  12.669 -2.2944 -0.2834  0.4805
 8676TIP3   OH247518   2.592   3.923   3.889 -0.1882 -0.6741  0.0469
 8676TIP3    H147519   2.535   3.924   3.966  0.7605 -0.6378  0.7550
 8676TIP3    H247520   2.678   3.948   3.922 -0.3995  2.6453 -1.5459
 8677TIP3   OH247521   3.634   6.184   4.744 -0.0751  0.0354  0.2641
 8677TIP3    H147522   3.645   6.244   4.818 -2.4965  1.8613 -0.7237
 8677TIP3    H247523   3.559   6.219   4.696  0.7874 -1.6436 -2.5221
 8678TIP3   OH247524   1.296   3.781  11.139  0.1881  0.5816 -0.0498
 8678TIP3    H147525   1.215   3.743  11.174 -0.2825  1.0508 -0.6053
 8678TIP3    H247526   1.279   3.875  11.137  0.3743  0.6049 -1.1104
 8679TIP3   OH247527   4.567   0.187  15.753 -0.3146 -0.4335 -0.4348
 8679TIP3    H147528   4.490   0.133  15.735 -0.4548 -0.1572 -0.6690
 8679TIP3    H247529   4.547   0.272  15.713 -0.3583 -0.0107  0.4568
 8680TIP3   OH247530   1.092   3.904  13.010 -0.0885  0.3178  0.6515
 8680TIP3    H147531   1.159   3.862  13.064  1.5250 -0.8081 -2.0279
 8680TIP3    H247532   1.034   3.832  12.984 -0.0492  0.5859 -0.1955
 8681TIP3   OH247533   1.285   4.233   0.965 -0.0038  0.7280  0.3623
 8681TIP3    H147534   1.325   4.278   0.891  1.9182 -0.7739  0.4060
 8681TIP3    H247535   1.246   4.155   0.928  0.7827  0.0730  0.8826
 8682TIP3   OH247536   6.487   3.467  12.958 -0.4829 -0.2722 -0.2757
 8682TIP3    H147537   6.425   3.477  12.885  0.8139 -0.0133 -1.3969
 8682TIP3    H247538   6.489   3.372  12.974 -1.2486 -0.2720 -0.1513
 8683TIP3   OH247539   5.100   4.096  17.003  0.0080 -0.0182  0.7583
 8683TIP3    H147540   5.163   4.061  16.940 -2.3235  3.2596 -4.0785
 8683TIP3    H247541   5.026   4.036  16.998 -0.3488  0.4699 -0.1221
 8684TIP3   OH247542   1.312   3.547   4.309  0.4639 -0.0465 -0.7988
 8684TIP3    H147543   1.288   3.588   4.392  2.1024  1.7013 -1.1144
 8684TIP3    H247544   1.346   3.461   4.334  0.5557  0.2919  0.3029
 8685TIP3   OH247545   4.507   5.078  12.063  0.3019 -0.7162 -0.1564
 8685TIP3    H147546   4.495   5.008  11.998  0.0082 -0.2773 -0.5829
 8685TIP3    H247547   4.418   5.101  12.090  0.4488 -1.6431  1.2327
 8686TIP3   OH247548   1.583   6.415   4.993  0.3247 -0.6015  0.0234
 8686TIP3    H147549   1.505   6.360   4.981  1.2363 -1.8683 -0.3639
 8686TIP3    H247550   1.651   6.353   5.020  1.2936  0.4295 -0.0105
 8687TIP3   OH247551   3.802   2.660   3.033  0.7980 -0.0338 -0.3171
 8687TIP3    H147552   3.745   2.720   2.984  1.8164  0.9864 -0.2821
 8687TIP3    H247553   3.770   2.573   3.009 -0.3894  0.4951 -0.7693
 8688TIP3   OH247554   2.498   3.956  13.356 -0.2832  0.0511  0.1710
 8688TIP3    H147555   2.464   4.024  13.299  0.5219  1.2887  1.1125
 8688TIP3    H247556   2.560   3.908  13.301 -1.0160 -0.0866 -0.5642
 8689TIP3   OH247557   2.761   5.951   2.343 -0.2258 -0.5536  0.8811
 8689TIP3    H147558   2.738   6.044   2.338 -1.2768 -0.8455  0.1373
 8689TIP3    H247559   2.714   5.920   2.421  1.2064 -0.1933  1.9468
 8690TIP3   OH247560   6.105   4.490  14.758  0.0400 -0.3395  0.0942
 8690TIP3    H147561   6.060   4.439  14.691 -0.4767 -0.0912  0.2386
 8690TIP3    H247562   6.133   4.426  14.822 -0.1137 -0.5045 -0.0012
 8691TIP3   OH247563   2.727   5.014  13.107  0.2484 -0.2288 -0.4966
 8691TIP3    H147564   2.740   5.087  13.168 -1.1981 -0.3485  0.0013
 8691TIP3    H247565   2.765   5.045  13.025  1.2827  0.3543  0.1696
 8692TIP3   OH247566   6.052   0.562   0.713 -0.3557 -0.3257 -0.2152
 8692TIP3    H147567   6.036   0.599   0.626  0.2279 -0.3624 -0.3426
 8692TIP3    H247568   6.109   0.486   0.696 -1.5406 -1.3053  0.0337
 8693TIP3   OH247569   1.890   3.828  16.284 -0.4713 -0.6244 -0.4177
 8693TIP3    H147570   1.899   3.794  16.195 -0.1770 -0.6914 -0.3605
 8693TIP3    H247571   1.921   3.758  16.340  0.5231 -0.1103 -0.3162
 8694TIP3   OH247572   2.657   4.369  16.872 -0.0637 -0.5592  0.0984
 8694TIP3    H147573   2.743   4.405  16.894 -0.5888  0.6084  0.3169
 8694TIP3    H247574   2.659   4.279  16.903  1.9349 -1.3451 -2.0330
 8695TIP3   OH247575   3.095   3.872  15.655 -0.0442 -0.4636  0.2634
 8695TIP3    H147576   3.072   3.852  15.746  0.8014 -1.6406  0.2375
 8695TIP3    H247577   3.165   3.810  15.633 -1.1152 -1.0985 -1.6170
 8696TIP3   OH247578   0.368   5.471  12.863 -0.0642  0.1869 -0.4061
 8696TIP3    H147579   0.367   5.499  12.954  1.9195 -1.3491  0.1638
 8696TIP3    H247580   0.280   5.489  12.831 -0.1693  2.8329  1.1238
 8697TIP3   OH247581   0.551   5.646  15.558  0.0089 -0.0611 -0.2068
 8697TIP3    H147582   0.561   5.657  15.653 -0.1176  1.3177 -0.3304
 8697TIP3    H247583   0.639   5.624  15.528 -0.3549 -2.7916  0.4589
 8698TIP3   OH247584   5.887   5.180   3.164 -0.4150 -0.3058 -0.1939
 8698TIP3    H147585   5.912   5.272   3.174  0.5680 -0.7687  2.0215
 8698TIP3    H247586   5.813   5.169   3.224 -0.3057 -1.0367 -0.1868
 8699TIP3   OH247587   5.121   0.688  13.742  0.1708 -0.5470  0.5285
 8699TIP3    H147588   5.195   0.637  13.774  1.3018  0.6905 -0.0235
 8699TIP3    H247589   5.148   0.779  13.753 -0.7614 -0.0763 -0.8404
 8700TIP3   OH247590   0.881   1.786   2.242  0.3314  0.5607 -0.1000
 8700TIP3    H147591   0.813   1.838   2.286 -0.7954 -3.0554  2.9562
 8700TIP3    H247592   0.953   1.785   2.305 -0.4782 -3.0021  0.9666
 8701TIP3   OH247593   2.570   5.651  14.382 -0.0249  0.2131 -0.6302
 8701TIP3    H147594   2.643   5.655  14.444 -2.9169  0.7979  3.0526
 8701TIP3    H247595   2.534   5.563  14.394 -0.9661  0.5308 -1.0801
 8702TIP3   OH247596   0.196   1.041  16.784  0.5557  0.8593 -0.5736
 8702TIP3    H147597   0.187   1.125  16.829  1.0191  0.7711 -0.3163
 8702TIP3    H247598   0.130   0.985  16.826  0.7731  0.8687 -0.2142
 8703TIP3   OH247599   6.771   3.897   3.607 -0.8147 -0.2297  0.3703
 8703TIP3    H147600   6.822   3.826   3.567  1.8313 -0.0875  3.1391
 8703TIP3    H247601   6.829   3.973   3.606 -1.6467  0.4863  1.9679
 8704TIP3   OH247602   4.328   2.836  10.601  0.4037 -0.4222 -1.0200
 8704TIP3    H147603   4.410   2.803  10.637  1.4792  1.0477 -1.9655
 8704TIP3    H247604   4.356   2.904  10.539 -1.5650  0.6222 -0.8309
 8705TIP3   OH247605   0.620   2.349   3.749  0.2406 -0.1879  0.1979
 8705TIP3    H147606   0.546   2.365   3.690  0.4268  1.3925  0.3314
 8705TIP3    H247607   0.665   2.433   3.754  1.4716 -0.8575  0.9211
 8706TIP3   OH247608   2.398   6.306   2.143 -0.6725  0.0605  0.5751
 8706TIP3    H147609   2.458   6.287   2.071 -2.2016 -1.0525 -0.4703
 8706TIP3    H247610   2.404   6.229   2.200 -0.5486  0.2960  0.8860
 8707TIP3   OH247611   0.039   3.975  12.793 -0.4699 -0.1397  0.2942
 8707TIP3    H147612   0.133   3.987  12.797 -0.2003 -0.9739 -2.0768
 8707TIP3    H247613   0.008   3.999  12.880  1.6650  2.2151  0.5141
 8708TIP3   OH247614   4.511   4.263   3.528  0.0712  0.1167  0.0369
 8708TIP3    H147615   4.502   4.236   3.619 -0.7019  1.7282  0.4677
 8708TIP3    H247616   4.427   4.240   3.487  0.7239 -1.4078 -0.5291
 8709TIP3   OH247617   5.627   5.186   1.437  0.6921  0.0216  0.3202
 8709TIP3    H147618   5.663   5.098   1.424 -1.2749 -0.8429  0.3401
 8709TIP3    H247619   5.587   5.183   1.524 -1.5099  0.0856 -0.6112
 8710TIP3   OH247620   0.734   2.926  16.388  0.2668 -0.0797  0.2145
 8710TIP3    H147621   0.794   2.933  16.313 -1.2141  0.4247 -0.9808
 8710TIP3    H247622   0.780   2.870  16.450  1.7721 -0.0899 -0.8422
 8711TIP3   OH247623   2.218   1.071   3.573  0.0932 -0.2761  0.7327
 8711TIP3    H147624   2.220   1.007   3.502  1.1191  0.7734 -0.2251
 8711TIP3    H247625   2.297   1.123   3.561 -1.3057  1.9827  0.6927
 8712TIP3   OH247626   6.608   1.002   2.361 -0.4167  0.6769  0.5198
 8712TIP3    H147627   6.600   1.097   2.365 -1.5205  0.6815 -0.8574
 8712TIP3    H247628   6.521   0.972   2.336  0.1450 -0.6257  0.0232
 8713TIP3   OH247629   2.953   5.332   4.579 -0.5318  0.5388 -0.1617
 8713TIP3    H147630   2.931   5.367   4.665  0.3079  1.1646 -0.1894
 8713TIP3    H247631   3.048   5.341   4.572 -0.4864 -0.2868 -0.8220
 8714TIP3   OH247632   1.636   6.749   6.060 -0.0043 -0.2502  0.3432
 8714TIP3    H147633   1.672   6.834   6.034 -2.0987  0.0721 -1.8608
 8714TIP3    H247634   1.580   6.768   6.135  0.4103  0.0859  0.5730
 8715TIP3   OH247635   5.972   4.018  13.051  0.0081  0.1130  0.3984
 8715TIP3    H147636   5.944   3.929  13.028 -2.1877  0.6373  0.9030
 8715TIP3    H247637   6.042   4.037  12.988 -0.3081 -1.5079 -0.5169
 8716TIP3   OH247638   3.915   5.420  14.609  0.4784  0.2917  0.0718
 8716TIP3    H147639   3.863   5.408  14.688  0.3008 -1.1386 -0.2312
 8716TIP3    H247640   3.968   5.498  14.627  0.6982 -0.1944  1.7308
 8717TIP3   OH247641   5.468   6.661  14.786  0.1639 -0.4233  0.3787
 8717TIP3    H147642   5.444   6.619  14.704  1.6796  1.3187 -1.0347
 8717TIP3    H247643   5.393   6.646  14.844 -0.7110 -2.1545 -1.1088
 8718TIP3   OH247644   1.182   5.586   3.489  0.1963  0.1692  1.1305
 8718TIP3    H147645   1.133   5.607   3.568  2.9688  0.3191  2.9569
 8718TIP3    H247646   1.199   5.491   3.495 -0.8810 -0.1362 -0.1412
 8719TIP3   OH247647   3.203   4.229   4.860 -0.0930 -0.1839 -0.1721
 8719TIP3    H147648   3.109   4.242   4.855 -0.2793 -1.5000 -0.4302
 8719TIP3    H247649   3.219   4.149   4.810  0.8966 -1.1679  1.6446
 8720TIP3   OH247650   5.007   0.657   5.357  0.8231 -0.6746 -0.1238
 8720TIP3    H147651   5.001   0.674   5.263 -2.5124  1.9937  0.4117
 8720TIP3    H247652   4.981   0.565   5.366 -1.1371 -0.3464 -1.6943
 8721TIP3   OH247653   4.367   2.526  17.035 -0.1076  0.0269  0.5397
 8721TIP3    H147654   4.356   2.620  17.046 -0.8907  0.0416 -0.1982
 8721TIP3    H247655   4.370   2.491  17.124  0.7979  0.8026  0.8211
 8722TIP3   OH247656   1.559   4.347  14.794 -0.3450 -0.4728  0.8583
 8722TIP3    H147657   1.584   4.256  14.778  0.3047 -0.3521  1.1495
 8722TIP3    H247658   1.472   4.341  14.834 -0.0976 -0.9906  1.3317
 8723TIP3   OH247659   2.789   0.725   0.849  0.0741 -0.3878  0.3849
 8723TIP3    H147660   2.848   0.767   0.787  0.6442 -1.1912  0.3694
 8723TIP3    H247661   2.845   0.669   0.902 -0.6725 -1.2731  0.2788
 8724TIP3   OH247662   2.966   4.926  13.266  0.5330  0.2197 -0.2786
 8724TIP3    H147663   3.051   4.883  13.265  0.2619 -0.3470  0.3109
 8724TIP3    H247664   2.945   4.939  13.173  1.0821  0.0173 -0.4376
 8725TIP3   OH247665   2.160   3.445  14.562  0.3591 -0.5272 -0.3050
 8725TIP3    H147666   2.160   3.531  14.520 -0.8312 -1.8523 -3.2318
 8725TIP3    H247667   2.215   3.391  14.506  0.1189 -1.9895  0.8264
 8726TIP3   OH247668   3.217   1.987   2.204  0.1228  0.0549  0.0974
 8726TIP3    H147669   3.143   1.977   2.144  1.1656  0.0600 -1.2480
 8726TIP3    H247670   3.181   2.032   2.280 -1.3253 -0.2607 -0.3741
 8727TIP3   OH247671   4.489   0.063  12.696 -0.2201 -0.4711 -0.2278
 8727TIP3    H147672   4.453  -0.022  12.670  0.8858 -1.3393  0.9366
 8727TIP3    H247673   4.434   0.091  12.769 -1.4247  0.5020 -1.4582
 8728TIP3   OH247674   4.390   3.194   0.887  0.4790  0.1873  0.4171
 8728TIP3    H147675   4.383   3.287   0.867 -0.8972  0.4069  1.7682
 8728TIP3    H247676   4.458   3.188   0.954 -1.4236  0.6144  2.4603
 8729TIP3   OH247677   6.204   2.892   0.553  0.7858  0.2892 -0.7189
 8729TIP3    H147678   6.112   2.900   0.530 -0.3011 -3.0824  1.7057
 8729TIP3    H247679   6.215   2.945   0.631  0.7958  0.4054 -0.7999
 8730TIP3   OH247680   3.714   4.066   4.201  0.2182 -0.4344 -0.0751
 8730TIP3    H147681   3.747   3.982   4.233  0.1435 -0.1031  0.9120
 8730TIP3    H247682   3.748   4.130   4.263  0.0792  0.2420 -0.6876
 8731TIP3   OH247683   2.078   6.416  14.241 -0.3443 -0.5058  0.3990
 8731TIP3    H147684   2.012   6.443  14.177 -0.9593 -0.4357  1.0618
 8731TIP3    H247685   2.128   6.348  14.196 -1.7162 -1.5150  0.3654
 8732TIP3   OH247686   5.806   3.229   0.367  0.3579  0.6154  0.1457
 8732TIP3    H147687   5.729   3.172   0.355  2.6454 -2.7675  0.0723
 8732TIP3    H247688   5.804   3.289   0.293 -2.6308  1.2960  0.6429
 8733TIP3   OH247689   5.771   2.916  13.161 -0.0446 -0.3562 -0.1906
 8733TIP3    H147690   5.856   2.876  13.179 -0.7770 -1.7014  0.3765
 8733TIP3    H247691   5.774   3.000  13.208  1.3460  0.0958 -1.0363
 8734TIP3   OH247692   1.640   4.078  11.070 -0.2160  0.5605 -0.2342
 8734TIP3    H147693   1.645   4.105  10.978 -1.2662  1.6625  0.0008
 8734TIP3    H247694   1.597   3.993  11.068 -0.9765  0.9406 -0.7267
 8735TIP3   OH247695   5.107   5.004  15.723 -0.1186  0.3977  0.3964
 8735TIP3    H147696   5.069   5.092  15.713  0.0597  0.2861 -1.6289
 8735TIP3    H247697   5.168   5.013  15.796 -0.9184  1.6568  0.9589
 8736TIP3   OH247698   3.957   0.722  11.406 -0.4099  0.7460 -0.0314
 8736TIP3    H147699   3.915   0.793  11.455  0.8943  1.4150  0.1785
 8736TIP3    H247700   4.044   0.756  11.386  1.1116 -1.6442  2.0081
 8737TIP3   OH247701   0.848   2.902  10.929 -0.1166  0.4722  0.0256
 8737TIP3    H147702   0.766   2.949  10.912 -1.3544 -1.4003  0.4674
 8737TIP3    H247703   0.905   2.967  10.970 -2.1597  1.3453  1.6815
 8738TIP3   OH247704   6.453   0.475   5.081 -0.6310  0.4434  0.0726
 8738TIP3    H147705   6.533   0.508   5.121 -0.9870 -0.5627  1.6959
 8738TIP3    H247706   6.464   0.380   5.079 -1.5866  0.3235 -0.1483
 8739TIP3   OH247707   5.451   2.261  12.332  0.2030 -0.4973 -0.2109
 8739TIP3    H147708   5.386   2.256  12.402 -1.8492  0.0004 -1.9509
 8739TIP3    H247709   5.412   2.212  12.260  1.8338 -0.2678 -1.2904
 8740TIP3   OH247710   4.064   0.822  16.000 -0.4329  0.3275  0.0525
 8740TIP3    H147711   3.981   0.774  15.992 -0.1817 -0.2962  0.9723
 8740TIP3    H247712   4.048   0.905  15.956 -1.4213  0.0543 -0.1290
 8741TIP3   OH247713   4.178   4.530   1.662 -0.6450 -0.0415 -0.5447
 8741TIP3    H147714   4.270   4.525   1.688 -0.3488 -1.3269 -1.6887
 8741TIP3    H247715   4.168   4.618   1.626  0.1370  0.1192 -0.4001
 8742TIP3   OH247716   4.598   1.398  11.610 -0.2160 -0.2145 -0.0728
 8742TIP3    H147717   4.604   1.452  11.531 -0.4355 -0.4599 -0.2608
 8742TIP3    H247718   4.676   1.422  11.661  0.5054 -0.8202 -0.8479
 8743TIP3   OH247719   4.402   4.252  13.831 -0.6489  0.0496 -0.3550
 8743TIP3    H147720   4.347   4.183  13.869  0.5371 -0.2163  0.9809
 8743TIP3    H247721   4.390   4.327  13.890  0.8035 -0.1858  0.2773
 8744TIP3   OH247722   2.818   4.790  16.680  0.0468  0.5314  0.0028
 8744TIP3    H147723   2.842   4.758  16.593 -0.1037 -2.3280  0.9107
 8744TIP3    H247724   2.735   4.836  16.667 -1.5737 -2.3960 -1.0579
 8745TIP3   OH247725   5.748   3.490  16.864 -0.2384 -0.3428 -0.4572
 8745TIP3    H147726   5.746   3.506  16.959  0.7508  0.6964 -0.5936
 8745TIP3    H247727   5.663   3.519  16.833 -1.5830 -3.0125  0.4221
 8746TIP3   OH247728   0.430   1.779   3.282  0.1879 -0.0793 -0.7277
 8746TIP3    H147729   0.385   1.708   3.328  2.1893 -1.5093 -0.8346
 8746TIP3    H247730   0.420   1.855   3.340 -4.3893  0.4816 -1.8717
 8747TIP3   OH247731   5.106   3.232  11.659 -0.5314 -0.3111 -0.2922
 8747TIP3    H147732   5.104   3.318  11.616  1.5483 -0.5886 -1.0054
 8747TIP3    H247733   5.159   3.246  11.737 -1.1821 -0.6910  0.2245
 8748TIP3   OH247734   2.608   0.923  14.943  0.3816  0.1736  0.2969
 8748TIP3    H147735   2.683   0.982  14.952  0.0343  0.9011 -1.2315
 8748TIP3    H247736   2.532   0.980  14.953 -0.0017 -0.5133  1.5522
 8749TIP3   OH247737   4.744   3.699   5.375  0.2081 -0.0000 -0.0286
 8749TIP3    H147738   4.831   3.663   5.394  0.1726 -0.5822 -0.9316
 8749TIP3    H247739   4.734   3.771   5.438  0.3689 -1.4107  1.6916
 8750TIP3   OH247740   1.876   1.633   4.929  0.2212  0.6440 -0.3655
 8750TIP3    H147741   1.793   1.591   4.911 -0.4991  1.7545  0.2671
 8750TIP3    H247742   1.886   1.699   4.860  2.0392 -1.4309 -2.2308
 8751TIP3   OH247743   6.517   1.218   1.117 -0.4131  0.0986 -0.6070
 8751TIP3    H147744   6.442   1.274   1.100  0.0245  1.2114  0.9378
 8751TIP3    H247745   6.590   1.262   1.073 -0.2364  0.2567 -0.1553
 8752TIP3   OH247746   5.478   1.180  10.693  0.0101  0.1389 -0.2704
 8752TIP3    H147747   5.491   1.093  10.730  0.4034  0.3616  0.1200
 8752TIP3    H247748   5.431   1.228  10.761  1.5084  0.8167  0.3239
 8753TIP3   OH247749   2.671   5.455   4.089 -0.1861 -0.7217 -0.3532
 8753TIP3    H147750   2.661   5.388   4.022  1.7164 -1.4645  0.0206
 8753TIP3    H247751   2.744   5.509   4.058 -1.0081  0.5493 -0.1383
 8754TIP3   OH247752   6.599   3.217  12.225 -0.0542  0.0399 -0.0000
 8754TIP3    H147753   6.634   3.212  12.136 -1.4568 -1.6071 -0.5205
 8754TIP3    H247754   6.536   3.289  12.222  0.1207  0.1834 -0.2623
 8755TIP3   OH247755   5.433   5.991  13.520  0.2476 -0.9905 -0.4098
 8755TIP3    H147756   5.443   6.053  13.592  1.1831 -1.1259 -0.4131
 8755TIP3    H247757   5.370   5.926  13.552 -1.0808  0.1650 -0.5651
 8756TIP3   OH247758   4.119   1.679   4.606  0.2044  0.4238 -0.1629
 8756TIP3    H147759   4.040   1.733   4.596 -0.5194 -0.6641 -0.4923
 8756TIP3    H247760   4.183   1.721   4.549  0.4500  2.3484  1.4344
 8757TIP3   OH247761   3.873   4.092   4.463  0.6242  0.3937 -0.1069
 8757TIP3    H147762   3.804   4.069   4.526 -0.0841  2.9060  0.1651
 8757TIP3    H247763   3.955   4.074   4.509  0.1158  0.8280  0.9945
 8758TIP3   OH247764   2.861   2.310  12.639  0.5967 -0.3543  0.3358
 8758TIP3    H147765   2.947   2.309  12.599  2.1337  1.6167  3.2308
 8758TIP3    H247766   2.830   2.400  12.628 -0.1809 -0.5229  1.0440
 8759TIP3   OH247767   4.021   2.117   5.194 -0.1300  0.1623 -0.1996
 8759TIP3    H147768   4.041   2.149   5.107 -0.7032 -0.5539 -0.6068
 8759TIP3    H247769   4.033   2.022   5.189 -1.2521 -0.0177  0.1772
 8760TIP3   OH247770   4.068   5.264  15.836  0.2044  0.6827  0.3245
 8760TIP3    H147771   4.137   5.245  15.772 -0.9700 -1.1566 -0.4770
 8760TIP3    H247772   4.111   5.252  15.921  1.1584  0.7288 -0.1406
 8761TIP3   OH247773   1.846   2.350  11.133 -0.1420 -1.1091  0.3664
 8761TIP3    H147774   1.811   2.415  11.071 -1.7722 -0.4048  1.9326
 8761TIP3    H247775   1.877   2.402  11.207 -0.2383 -2.0370  1.0779
 8762TIP3   OH247776   3.773   1.885  11.258 -0.2787  0.7886  0.5316
 8762TIP3    H147777   3.687   1.926  11.269 -1.2422 -1.5890  2.6687
 8762TIP3    H247778   3.790   1.840  11.340  2.5976  0.3082 -0.1904
 8763TIP3   OH247779   0.459   0.483   4.965  0.1326  0.0518 -0.0812
 8763TIP3    H147780   0.389   0.468   4.901  1.8029 -0.4427 -1.9028
 8763TIP3    H247781   0.428   0.440   5.045 -1.5542 -0.2905 -0.8602
 8764TIP3   OH247782   5.700   6.205   0.259  0.3684 -0.0353  0.0701
 8764TIP3    H147783   5.616   6.170   0.229  0.8685 -1.6880  0.4684
 8764TIP3    H247784   5.751   6.216   0.178 -0.3750  1.4807 -0.2256
 8765TIP3   OH247785   2.622   1.240   1.456 -0.1786  0.0955 -0.0487
 8765TIP3    H147786   2.529   1.256   1.470 -0.0678 -0.2508  1.1626
 8765TIP3    H247787   2.653   1.318   1.408 -1.3323 -0.3784 -1.6554
 8766TIP3   OH247788   5.331   4.937   3.867 -0.4354  0.4443  0.0614
 8766TIP3    H147789   5.259   4.973   3.919 -0.8502  1.9539 -1.4787
 8766TIP3    H247790   5.409   4.983   3.898 -0.9023  2.5118 -1.6043
 8767TIP3   OH247791   1.446   5.546  13.242 -0.2005 -0.5269  0.2370
 8767TIP3    H147792   1.351   5.535  13.237 -0.0986 -0.9829 -1.2149
 8767TIP3    H247793   1.459   5.627  13.291 -1.2850 -1.3126  1.8992
 8768TIP3   OH247794   6.198   6.172   6.410 -0.2167  0.1393  0.2599
 8768TIP3    H147795   6.175   6.081   6.393  2.6388 -0.3301 -1.8227
 8768TIP3    H247796   6.168   6.188   6.499 -3.7923 -1.7233 -0.4507
 8769TIP3   OH247797   2.526   1.120   1.213  0.3548 -0.1671  0.5580
 8769TIP3    H147798   2.565   1.033   1.201 -0.6070 -0.4979 -0.4214
 8769TIP3    H247799   2.588   1.168   1.267  2.2913 -0.5401 -1.2043
 8770TIP3   OH247800   3.290   1.005   1.761 -0.3891  0.0600  0.6537
 8770TIP3    H147801   3.200   1.038   1.761 -0.3059  0.5649 -1.8398
 8770TIP3    H247802   3.343   1.082   1.737  0.3314 -0.8319 -0.7667
 8771TIP3   OH247803   3.795   5.018   5.586 -0.0907  0.4115  0.0105
 8771TIP3    H147804   3.847   4.964   5.645  0.0921 -1.9060 -2.0917
 8771TIP3    H247805   3.716   5.039   5.635  1.7085  2.0561  2.4499
 8772TIP3   OH247806   5.413   3.144  11.739  0.5328  0.1669  0.0161
 8772TIP3    H147807   5.481   3.126  11.805 -1.1707  2.7743  2.7278
 8772TIP3    H247808   5.337   3.170  11.790 -1.2599  1.3368 -3.0277
 8773TIP3   OH247809   4.429   5.539   4.400 -0.0048 -0.4595 -0.0622
 8773TIP3    H147810   4.425   5.575   4.489  1.4536 -0.6678  0.1115
 8773TIP3    H247811   4.441   5.616   4.344 -1.4764 -0.2728 -0.1584
 8774TIP3   OH247812   4.070   1.663  13.393 -0.4793 -0.0972  0.5394
 8774TIP3    H147813   3.979   1.634  13.390 -0.4702 -0.0847  0.0551
 8774TIP3    H247814   4.112   1.605  13.457 -0.6810 -0.5193  0.2951
 8775TIP3   OH247815   3.717   2.776   2.365 -0.3622 -0.5401 -0.1057
 8775TIP3    H147816   3.698   2.752   2.456  2.6194 -0.0418  0.7567
 8775TIP3    H247817   3.634   2.812   2.332 -1.1770  0.6513  2.8936
 8776TIP3   OH247818   6.659   0.244   3.566  0.3030  0.3054 -0.3022
 8776TIP3    H147819   6.658   0.333   3.533 -1.0154  0.6137  0.5056
 8776TIP3    H247820   6.567   0.222   3.581  0.7016 -0.5903  1.0444
 8777TIP3   OH247821   6.402   1.308  16.781  0.0126 -0.0518  0.0063
 8777TIP3    H147822   6.367   1.363  16.711  0.8620  0.3467 -0.1183
 8777TIP3    H247823   6.324   1.276  16.828 -0.4920  1.2814  0.1069
 8778TIP3   OH247824   2.749   6.702   0.890  0.0061  0.1007 -0.5793
 8778TIP3    H147825   2.764   6.797   0.895 -1.1178  0.3130 -0.9181
 8778TIP3    H247826   2.669   6.688   0.941 -0.1513 -0.5814 -1.0122
 8779TIP3   OH247827   2.904   3.926   4.496 -0.2104  0.8693  0.2810
 8779TIP3    H147828   2.891   3.940   4.590 -0.9399  0.2719  0.2765
 8779TIP3    H247829   2.948   4.006   4.466 -1.5800  1.8645  0.8106
 8780TIP3   OH247830   0.300   4.609   5.970  0.0621  0.0711 -0.0549
 8780TIP3    H147831   0.275   4.516   5.974  0.0393  0.0050 -1.3381
 8780TIP3    H247832   0.393   4.610   5.992 -0.1262 -0.1576  0.7649
 8781TIP3   OH247833   4.173   1.466  16.600  0.3278 -0.2580 -0.2821
 8781TIP3    H147834   4.137   1.379  16.616  0.1584 -0.1182  0.0988
 8781TIP3    H247835   4.213   1.460  16.513 -0.5401 -0.4444 -0.6820
 8782TIP3   OH247836   1.631   1.827   1.357 -0.2114  0.3917 -0.1224
 8782TIP3    H147837   1.542   1.794   1.348 -1.5683  3.2731  1.2516
 8782TIP3    H247838   1.663   1.835   1.267 -0.5461 -2.4381 -0.5648
 8783TIP3   OH247839   2.798   4.291   1.539  0.5020 -0.6229  0.0747
 8783TIP3    H147840   2.871   4.252   1.586  0.2163 -0.6806  0.4801
 8783TIP3    H247841   2.735   4.219   1.529 -0.2248 -0.1796  1.2292
 8784TIP3   OH247842   0.952   6.560   5.897  0.2242 -0.4222  0.4063
 8784TIP3    H147843   0.945   6.645   5.852  0.1604 -0.9179 -0.5433
 8784TIP3    H247844   0.862   6.536   5.915  0.0632 -1.3246 -1.3577
 8785TIP3   OH247845   0.319   2.662   3.714 -0.6358  0.2673  0.3767
 8785TIP3    H147846   0.316   2.739   3.658  0.5439 -0.5800 -0.9121
 8785TIP3    H247847   0.229   2.650   3.743 -1.0247  1.5045 -0.2474
 8786TIP3   OH247848   5.237   3.551   6.168 -0.3488  0.5256 -0.8852
 8786TIP3    H147849   5.289   3.496   6.225 -1.0949  0.1640 -0.5359
 8786TIP3    H247850   5.298   3.616   6.134  0.5824 -0.5821 -1.4003
 8787TIP3   OH247851   1.512   1.056   4.919  0.5588  0.1256 -0.6681
 8787TIP3    H147852   1.455   1.131   4.933  0.7293  0.8245 -3.1754
 8787TIP3    H247853   1.601   1.091   4.934  0.5119 -0.3411  0.8702
 8788TIP3   OH247854   2.637   6.807  12.808  0.3854  0.1136  0.2237
 8788TIP3    H147855   2.686   6.825  12.889  0.7157  0.6685 -0.0913
 8788TIP3    H247856   2.596   6.890  12.786 -0.5433 -0.2980  0.3675
 8789TIP3   OH247857   2.432   6.600   0.288 -0.0405 -0.3602  0.7099
 8789TIP3    H147858   2.373   6.538   0.331 -0.5016  0.1063  0.7537
 8789TIP3    H247859   2.404   6.686   0.319 -1.3783  0.1391 -1.6396
 8790TIP3   OH247860   5.344   4.462  14.276 -0.4049 -0.1703  0.3411
 8790TIP3    H147861   5.439   4.451  14.278 -0.4884 -1.0294  0.0837
 8790TIP3    H247862   5.329   4.552  14.305  0.4504 -0.2289  0.9800
 8791TIP3   OH247863   3.980   2.721  15.172  0.5481 -0.1665 -0.4313
 8791TIP3    H147864   3.888   2.725  15.198  0.6138  0.2065 -0.2533
 8791TIP3    H247865   4.029   2.730  15.253  0.7514  0.7990 -0.6548
 8792TIP3   OH247866   0.974   5.330  11.339 -0.4813 -0.2210  0.3559
 8792TIP3    H147867   0.921   5.277  11.280  1.8395 -1.8311 -0.3864
 8792TIP3    H247868   1.028   5.267  11.387  1.5612  1.3470  0.2696
 8793TIP3   OH247869   0.439   6.699   1.878 -0.0110  0.2974  0.5480
 8793TIP3    H147870   0.422   6.772   1.818  1.3697  1.9632  2.0928
 8793TIP3    H247871   0.505   6.645   1.833 -0.3042  0.5193 -0.1695
 8794TIP3   OH247872   0.324   2.221  11.426 -0.2243 -0.1103 -0.9736
 8794TIP3    H147873   0.316   2.237  11.520  1.1683  0.7444 -0.9678
 8794TIP3    H247874   0.364   2.301  11.392 -0.4278 -0.5311 -2.2537
 8795TIP3   OH247875   2.186   3.187  11.120 -0.1780  0.2650 -0.3960
 8795TIP3    H147876   2.138   3.105  11.103 -1.3488  0.6043  1.1205
 8795TIP3    H247877   2.119   3.250  11.146  0.5070  2.1822 -2.8710
 8796TIP3   OH247878   6.434   6.051  13.899  0.1285 -0.2132 -0.5493
 8796TIP3    H147879   6.423   5.980  13.963  0.9736  0.0678 -0.0716
 8796TIP3    H247880   6.439   6.130  13.952 -1.7296  0.3393 -1.1322
 8797TIP3   OH247881   3.601   4.691  15.682 -0.2308 -0.5008 -0.5522
 8797TIP3    H147882   3.679   4.728  15.641 -0.6327 -0.0979 -0.9639
 8797TIP3    H247883   3.634   4.621  15.739  0.5922  0.8277  0.6517
 8798TIP3   OH247884   0.400   6.740  16.388 -0.2855 -0.1946 -0.6205
 8798TIP3    H147885   0.350   6.807  16.435  0.4809  1.0917 -1.5704
 8798TIP3    H247886   0.471   6.717  16.448  0.3251  0.9810 -0.8575
 8799TIP3   OH247887   6.113   6.048   1.529  0.2906 -0.5449  0.0795
 8799TIP3    H147888   6.154   6.005   1.454 -1.4784 -0.8386 -0.7868
 8799TIP3    H247889   6.147   6.000   1.605  2.5079  0.0892 -0.4428
 8800TIP3   OH247890   6.519   4.111   1.077 -0.4560  0.3963 -0.1566
 8800TIP3    H147891   6.464   4.071   1.144  2.0481 -0.2999  1.6250
 8800TIP3    H247892   6.461   4.174   1.034 -2.2908  0.6929  2.4671
 8801TIP3   OH247893   0.261   4.115   3.204 -0.0928 -0.1883  0.3656
 8801TIP3    H147894   0.259   4.085   3.295 -2.1375 -1.1294  0.0566
 8801TIP3    H247895   0.297   4.042   3.154 -1.0694 -0.5288  0.1485
 8802TIP3   OH247896   5.609   3.837   1.324 -0.0738  0.7386  0.3431
 8802TIP3    H147897   5.646   3.848   1.412  0.5078  2.6691 -0.0954
 8802TIP3    H247898   5.563   3.753   1.328  0.7099  0.3367  2.2094
 8803TIP3   OH247899   3.963   1.900   1.452  0.5793 -0.2116 -0.3952
 8803TIP3    H147900   4.039   1.885   1.509  0.4361 -2.1255 -0.6532
 8803TIP3    H247901   3.992   1.872   1.365 -0.2882 -0.5278 -0.5893
 8804TIP3   OH247902   6.358   4.280   0.921 -0.8149 -0.0669  0.0254
 8804TIP3    H147903   6.297   4.350   0.944 -1.0204 -0.7077  1.6072
 8804TIP3    H247904   6.395   4.306   0.837 -1.8680  1.2697 -0.0527
 8805TIP3   OH247905   2.519   5.350  11.698 -0.3863  0.2733 -0.4646
 8805TIP3    H147906   2.601   5.301  11.687 -1.9870 -2.6945 -0.0700
 8805TIP3    H247907   2.480   5.352  11.611 -0.0666  1.4418 -0.5951
 8806TIP3   OH247908   0.207   2.525   5.329 -0.2002 -0.2418 -0.1511
 8806TIP3    H147909   0.141   2.470   5.287 -0.0930 -0.7337  0.3278
 8806TIP3    H247910   0.241   2.473   5.401 -1.7603  1.2935  1.8227
 8807TIP3   OH247911   0.783   1.955   5.877  0.4211 -0.0192  0.4622
 8807TIP3    H147912   0.755   1.881   5.932  3.2682 -0.4199  1.5365
 8807TIP3    H247913   0.721   2.025   5.899 -1.0260 -1.3939  1.0361
 8808TIP3   OH247914   0.587   1.237  11.200  0.0028  0.1088  0.3775
 8808TIP3    H147915   0.622   1.290  11.129  1.1233 -3.5235 -2.0508
 8808TIP3    H247916   0.651   1.247  11.271  1.8724 -0.3986 -1.1708
 8809TIP3   OH247917   5.199   5.909  12.362  0.5281  0.3387  0.2172
 8809TIP3    H147918   5.147   5.831  12.379  0.9374 -0.0684 -0.3872
 8809TIP3    H247919   5.259   5.884  12.292  1.2148  0.9459  0.5717
 8810TIP3   OH247920   1.205   2.973   1.269 -0.0680 -0.4226 -0.8116
 8810TIP3    H147921   1.186   2.889   1.227  1.1525 -0.7398 -0.7603
 8810TIP3    H247922   1.296   2.965   1.299 -0.7635 -0.0780  1.5758
 8811TIP3   OH247923   6.781   5.919   1.352  0.6257  0.2011  0.3371
 8811TIP3    H147924   6.793   5.835   1.308  0.3777 -0.2877  1.1770
 8811TIP3    H247925   6.749   5.896   1.439 -0.7306  1.2245  0.1406
 8812TIP3   OH247926   4.089   6.157   5.368 -0.5392 -0.3053 -0.0308
 8812TIP3    H147927   4.061   6.073   5.404  1.2654 -0.9690 -0.0762
 8812TIP3    H247928   4.114   6.137   5.278  0.0295  0.2525  0.0003
 8813TIP3   OH247929   5.636   0.851  15.111  0.0682 -0.1784  0.8907
 8813TIP3    H147930   5.673   0.803  15.185  0.8149  0.5875  1.0358
 8813TIP3    H247931   5.541   0.839  15.118  0.2730 -3.0122 -0.0489
 8814TIP3   OH247932   1.614   0.550   3.995  0.8189 -0.1887 -0.0656
 8814TIP3    H147933   1.612   0.531   3.901 -0.5250  3.0509 -0.8194
 8814TIP3    H247934   1.536   0.506   4.030 -2.9306  4.0719 -1.9676
 8815TIP3   OH247935   1.632   5.868  17.155  0.3789  0.5578  0.5389
 8815TIP3    H147936   1.627   5.935  17.088  1.0778  0.3289  0.2429
 8815TIP3    H247937   1.545   5.829  17.157 -0.0043  1.3924  0.6433
 8816TIP3   OH247938   1.300   2.073  14.104 -0.4572  0.4876 -0.2991
 8816TIP3    H147939   1.294   2.068  14.009  0.9931 -1.4247 -0.3620
 8816TIP3    H247940   1.253   1.995  14.134  1.7727 -0.6993  0.3328
 8817TIP3   OH247941   4.670   0.075  15.435  0.2033  0.5022 -0.3682
 8817TIP3    H147942   4.589   0.075  15.384 -0.5463  0.3054  0.7793
 8817TIP3    H247943   4.702   0.165  15.430  0.5460  0.3336 -1.7582
 8818TIP3   OH247944   5.357   2.940   1.089 -0.3056  0.7965  0.1803
 8818TIP3    H147945   5.294   2.934   1.016 -0.2129  0.1314  0.1478
 8818TIP3    H247946   5.302   2.947   1.167 -0.4710 -1.1154  0.2766
 8819TIP3   OH247947   0.892   3.726  12.960  0.4645 -0.4218  0.2481
 8819TIP3    H147948   0.852   3.714  12.874  0.9366  2.6492 -0.5425
 8819TIP3    H247949   0.828   3.692  13.022 -2.4985  2.2217 -1.0943
 8820TIP3   OH247950   2.181   6.301  13.844 -0.1502 -0.1995  0.1644
 8820TIP3    H147951   2.104   6.250  13.822 -0.5545 -0.3006  1.6892
 8820TIP3    H247952   2.211   6.265  13.927  1.0392  0.4030  0.0220
 8821TIP3   OH247953   1.122   2.369   3.216 -0.3655  0.1635  0.3397
 8821TIP3    H147954   1.126   2.448   3.269 -0.3531  0.1081  0.4208
 8821TIP3    H247955   1.184   2.385   3.144 -1.2094  0.6994 -0.2886
 8822TIP3   OH247956   1.582   5.438   3.361 -0.0330 -0.6421  0.5412
 8822TIP3    H147957   1.593   5.530   3.387  1.0094 -0.9572  1.3004
 8822TIP3    H247958   1.624   5.388   3.431 -2.6853 -1.8442  1.3886
 8823TIP3   OH247959   1.107   3.058   0.864  0.1464 -0.5616  0.3722
 8823TIP3    H147960   1.071   3.134   0.817  0.3330  0.4118  1.7258
 8823TIP3    H247961   1.117   2.991   0.797 -2.1186 -0.1520 -0.4896
 8824TIP3   OH247962   4.515   6.472   1.892 -0.6461  0.1709 -0.0488
 8824TIP3    H147963   4.499   6.379   1.901  0.9504 -0.0365  1.1449
 8824TIP3    H247964   4.519   6.505   1.982  0.9657  0.9549 -0.3618
 8825TIP3   OH247965   6.815   6.527   1.191 -0.5772 -0.0785  0.0741
 8825TIP3    H147966   6.813   6.623   1.188  0.6237 -0.0028  0.9250
 8825TIP3    H247967   6.738   6.503   1.243  0.2052  0.5694  1.6117
 8826TIP3   OH247968   5.811   3.274  16.175 -0.2986 -0.5018  0.0348
 8826TIP3    H147969   5.757   3.216  16.122  0.7499 -0.4946 -1.0979
 8826TIP3    H247970   5.836   3.221  16.250 -0.2791 -1.1516 -0.4206
 8827TIP3   OH247971   4.463   5.044  12.420  0.2534  0.1503 -0.1137
 8827TIP3    H147972   4.430   4.994  12.345 -1.1668 -0.0335  0.6080
 8827TIP3    H247973   4.418   5.007  12.495  2.6775 -0.6324  1.0697
 8828TIP3   OH247974   6.190   5.488   5.706 -0.1428  0.4272  0.6833
 8828TIP3    H147975   6.148   5.569   5.732 -1.1718  0.7385 -1.6784
 8828TIP3    H247976   6.262   5.515   5.649 -0.6164 -0.2689 -0.2868
 8829TIP3   OH247977   3.781   0.927  11.438  0.4842 -0.2190 -0.2449
 8829TIP3    H147978   3.778   1.017  11.405 -1.5750  0.3157  1.2133
 8829TIP3    H247979   3.700   0.917  11.487  1.1091 -2.5981  0.4191
 8830TIP3   OH247980   6.807   0.348  12.462 -0.4633 -0.2214  0.0021
 8830TIP3    H147981   6.770   0.352  12.550 -2.5480 -0.0704 -0.8123
 8830TIP3    H247982   6.835   0.438  12.444  1.1140 -0.4902  0.9147
 8831TIP3   OH247983   5.082   6.454   0.228 -0.4349 -0.0565  0.0567
 8831TIP3    H147984   5.113   6.383   0.171 -0.8416  0.3047 -0.6397
 8831TIP3    H247985   5.099   6.424   0.317  1.8270  0.0918 -0.2836
 8832TIP3   OH247986   4.346   0.481  12.728 -0.6370 -0.1272  0.1653
 8832TIP3    H147987   4.374   0.390  12.728  1.3749  0.4297  0.0501
 8832TIP3    H247988   4.425   0.530  12.703 -1.7975  1.6045 -0.3006
 8833TIP3   OH247989   6.048   0.201   3.931  0.2019 -0.2500  0.6738
 8833TIP3    H147990   5.976   0.256   3.962 -0.3580 -1.4522  1.6165
 8833TIP3    H247991   6.053   0.217   3.837  1.2249  2.7068  1.1455
 8834TIP3   OH247992   6.552   0.313   5.707 -0.3876 -0.1038  0.2094
 8834TIP3    H147993   6.537   0.348   5.795  2.2856  2.4771 -0.2173
 8834TIP3    H247994   6.604   0.234   5.722 -0.1310  0.1969  0.9801
 8835TIP3   OH247995   1.259   2.076   3.017  0.2362  0.1015 -0.4483
 8835TIP3    H147996   1.224   2.020   3.086  1.5349 -1.3050 -0.8920
 8835TIP3    H247997   1.337   2.116   3.055 -0.0225  0.7014 -0.5338
 8836TIP3   OH247998   3.091   6.521   2.241  0.2235 -0.3909 -0.0790
 8836TIP3    H147999   3.067   6.436   2.204  0.0227 -0.6263  0.5791
 8836TIP3    H248000   3.171   6.546   2.194 -1.0233  0.1930 -1.9834
 8837TIP3   OH248001   5.398   5.031   5.654  0.6234  0.1387  0.1815
 8837TIP3    H148002   5.408   5.090   5.579  2.4303 -0.9512 -0.5063
 8837TIP3    H248003   5.383   4.945   5.615  0.6501 -0.2942  1.0993
 8838TIP3   OH248004   2.308   6.327  11.626 -0.2438 -0.2664 -0.3216
 8838TIP3    H148005   2.266   6.349  11.543 -2.8807  0.8207  1.2076
 8838TIP3    H248006   2.353   6.408  11.652  0.7948 -0.6814 -0.7309
 8839TIP3   OH248007   5.575   4.533  17.010  0.2260  0.0227 -0.6453
 8839TIP3    H148008   5.610   4.599  17.071  2.5975  0.6888 -2.6035
 8839TIP3    H248009   5.488   4.567  16.987 -0.1386  0.4803  1.2030
 8840TIP3   OH248010   6.758   5.747   2.463  0.0519  0.3918 -0.6303
 8840TIP3    H148011   6.692   5.699   2.413 -0.5186  1.2637 -0.7408
 8840TIP3    H248012   6.841   5.723   2.422 -0.2633 -0.1243 -0.9838
 8841TIP3   OH248013   6.312   5.332   5.930 -0.2357  0.9786  0.4735
 8841TIP3    H148014   6.262   5.370   5.858 -0.1184 -0.8751 -0.6548
 8841TIP3    H248015   6.399   5.373   5.923  0.3187 -0.4089 -1.5859
 8842TIP3   OH248016   1.993   0.646   3.051 -0.1425 -0.1967 -0.1451
 8842TIP3    H148017   1.936   0.573   3.027  0.6205 -0.2873 -1.8165
 8842TIP3    H248018   2.064   0.644   2.986 -0.3604  2.3331 -0.5630
 8843TIP3   OH248019   6.391   0.495  11.704  0.3037  0.0583  0.3317
 8843TIP3    H148020   6.467   0.525  11.654 -0.4637 -1.7651 -2.1857
 8843TIP3    H248021   6.364   0.415  11.659 -0.3115 -1.9909  3.9894
 8844TIP3   OH248022   0.015   4.064  14.437 -0.1277  0.9696 -0.3610
 8844TIP3    H148023  -0.071   4.024  14.428  0.6864 -0.8796 -0.4013
 8844TIP3    H248024   0.015   4.135  14.373 -0.6753 -0.7882 -2.4361
 8845TIP3   OH248025   0.283   2.638  10.435 -0.0250  0.1500  0.1127
 8845TIP3    H148026   0.260   2.604  10.522 -1.3372 -2.1760 -1.0545
 8845TIP3    H248027   0.353   2.581  10.405  0.4979  1.0118 -0.3427
 8846TIP3   OH248028   1.664   6.508  13.113 -0.0659 -0.2718  0.1505
 8846TIP3    H148029   1.735   6.451  13.143  1.3518  0.5965 -1.3598
 8846TIP3    H248030   1.691   6.596  13.141 -1.1126 -0.0585  0.5157
 8847TIP3   OH248031   1.860   2.483  11.763 -0.4155 -0.1124  0.3940
 8847TIP3    H148032   1.769   2.493  11.790 -0.4831  2.4024 -0.4908
 8847TIP3    H248033   1.887   2.570  11.735  2.1653 -0.8619  0.2361
 8848TIP3   OH248034   2.581   6.486   1.014  0.0745  0.1605 -0.5892
 8848TIP3    H148035   2.489   6.502   1.034  0.4598  1.9549 -0.1121
 8848TIP3    H248036   2.581   6.456   0.923 -1.1973 -2.6486  0.2501
 8849TIP3   OH248037   0.494   4.986  15.807 -0.7585 -0.1033  0.0276
 8849TIP3    H148038   0.524   4.912  15.859 -1.1061  0.6031  1.2755
 8849TIP3    H248039   0.399   4.981  15.811 -0.7913  0.8005  0.7339
 8850TIP3   OH248040   5.776   6.590   3.686 -0.0070 -0.5083 -0.2821
 8850TIP3    H148041   5.824   6.671   3.666  0.8159 -0.8801  0.1502
 8850TIP3    H248042   5.762   6.549   3.600 -0.4496  0.0969 -0.5067
 8851TIP3   OH248043   5.715   6.545   2.413 -0.4746  0.4148 -0.6428
 8851TIP3    H148044   5.692   6.523   2.503 -1.0189  1.5665 -0.4897
 8851TIP3    H248045   5.771   6.622   2.420 -0.5139  0.5092 -1.2819
 8852TIP3   OH248046   4.644   3.857   5.604  0.1820 -0.2693 -0.4889
 8852TIP3    H148047   4.586   3.865   5.528  0.2286  2.3200 -0.3431
 8852TIP3    H248048   4.585   3.837   5.677 -0.3646  0.9001 -0.5907
 8853TIP3   OH248049   4.904   3.299  14.111 -0.1951  0.3489 -0.7025
 8853TIP3    H148050   4.901   3.363  14.182 -2.0932 -0.1764 -0.2683
 8853TIP3    H248051   4.936   3.219  14.152 -3.4770 -0.6464  0.2475
 8854TIP3   OH248052   1.383   4.124  13.665 -0.5127 -0.2086 -0.5647
 8854TIP3    H148053   1.309   4.068  13.642 -0.1924  0.2483 -2.9848
 8854TIP3    H248054   1.400   4.174  13.586 -0.4333  2.9606  1.3075
 8855TIP3   OH248055   0.881   2.739  16.540 -0.0664 -0.0005  0.9198
 8855TIP3    H148056   0.972   2.750  16.511 -0.9683  2.4628 -1.3669
 8855TIP3    H248057   0.846   2.672  16.483 -0.4117  1.1200 -0.2328
 8856TIP3   OH248058   6.478   4.996  13.057  0.8156 -0.6616  0.5787
 8856TIP3    H148059   6.455   4.919  13.109  1.9913 -1.8323 -0.5223
 8856TIP3    H248060   6.453   4.972  12.967 -0.8241  1.1476  0.5091
 8857TIP3   OH248061   0.792   1.275   2.365  0.0908 -0.2279 -0.4483
 8857TIP3    H148062   0.779   1.357   2.317 -0.4360  0.2625  0.4894
 8857TIP3    H248063   0.843   1.220   2.306  2.3693  1.5648 -0.2617
 8858TIP3   OH248064   6.199   6.265   2.233  0.1818 -0.0569  0.0306
 8858TIP3    H148065   6.263   6.329   2.203 -1.0082  1.8505  1.3762
 8858TIP3    H248066   6.146   6.247   2.155  1.2937 -0.4233 -0.6737
 8859TIP3   OH248067   4.033   5.553   2.182  0.1132 -0.5558 -0.1964
 8859TIP3    H148068   4.015   5.460   2.169 -4.4249 -0.3889  2.9397
 8859TIP3    H248069   4.110   5.555   2.240  0.8011 -2.2345 -0.9940
 8860TIP3   OH248070   1.211   4.572   3.935  0.0500 -0.5194  0.1206
 8860TIP3    H148071   1.265   4.496   3.955 -0.2888 -0.0862  3.1411
 8860TIP3    H248072   1.269   4.647   3.946 -0.1123 -0.2305 -0.8803
 8861TIP3   OH248073   4.875   1.054  12.859  0.2318  0.3555 -0.1345
 8861TIP3    H148074   4.879   0.990  12.788  1.9716 -1.1238  1.2084
 8861TIP3    H248075   4.967   1.070  12.882 -0.2758  0.9573  1.6391
 8862TIP3   OH248076   3.622   6.399   0.167 -0.4857  0.0335 -0.4780
 8862TIP3    H148077   3.707   6.431   0.139 -1.4279  3.5858  0.2367
 8862TIP3    H248078   3.642   6.322   0.221  2.2503  0.7157 -0.3777
 8863TIP3   OH248079   0.546   1.095   2.851 -0.2118  0.2405 -0.4501
 8863TIP3    H148080   0.630   1.092   2.806 -0.5339  1.1347 -1.1382
 8863TIP3    H248081   0.533   1.188   2.871 -1.1812  0.1570 -0.6331
 8864TIP3   OH248082   5.133   6.822   4.634  0.0188  0.0638 -0.3910
 8864TIP3    H148083   5.141   6.750   4.697 -0.4528  1.6753  1.6290
 8864TIP3    H248084   5.043   6.853   4.645  0.4327  1.4129 -0.6919
 8865TIP3   OH248085   1.246   1.433  14.599 -0.3731 -0.0200 -0.6318
 8865TIP3    H148086   1.271   1.510  14.548  0.1715  0.8739  0.9158
 8865TIP3    H248087   1.239   1.363  14.535  0.1772  1.0797 -1.9410
 8866TIP3   OH248088   0.105   5.192   5.190  0.0490 -0.3717  0.2266
 8866TIP3    H148089   0.083   5.100   5.175  0.1740 -0.2684 -0.5827
 8866TIP3    H248090   0.021   5.234   5.206 -0.1510 -0.3667 -0.8001
 8867TIP3   OH248091   3.469   5.203   0.284  0.2445 -0.4256 -0.4113
 8867TIP3    H148092   3.473   5.179   0.377 -0.5127 -1.4916 -0.6356
 8867TIP3    H248093   3.555   5.181   0.249  0.8734  0.8996  0.2287
 8868TIP3   OH248094   1.542   0.442  12.886 -0.2395  0.0026  0.6091
 8868TIP3    H148095   1.473   0.480  12.941  0.4063 -1.2177  2.3688
 8868TIP3    H248096   1.622   0.451  12.939  0.6584 -0.0679 -0.6974
 8869TIP3   OH248097   3.721   0.347  10.803 -0.4347  0.2711  0.5236
 8869TIP3    H148098   3.698   0.331  10.894 -1.5411  0.1905  0.2370
 8869TIP3    H248099   3.649   0.311  10.752  0.2233  0.1986 -0.4019
 8870TIP3   OH248100   3.772   4.436  11.462  0.5023  0.3621  0.0662
 8870TIP3    H148101   3.768   4.487  11.381  0.8241 -0.1197 -0.2627
 8870TIP3    H248102   3.741   4.496  11.530 -0.0064  0.6964 -0.4464
 8871TIP3   OH248103   4.492   5.728   5.995  0.6672  0.5831  0.4593
 8871TIP3    H148104   4.426   5.688   5.939  1.8589  0.2994 -0.8017
 8871TIP3    H248105   4.489   5.678   6.077  1.3454 -1.4057 -0.6595
 8872TIP3   OH248106   3.765   3.678  13.652  0.2387  0.9704  0.1911
 8872TIP3    H148107   3.780   3.622  13.576 -0.7258  1.0792 -0.1019
 8872TIP3    H248108   3.686   3.642  13.693  0.9147  0.7175  1.3382
 8873TIP3   OH248109   3.017   5.220  14.265 -0.1080  0.2659 -0.4653
 8873TIP3    H148110   2.968   5.297  14.295 -1.5806 -0.9850  0.4626
 8873TIP3    H248111   2.953   5.167  14.218  1.1189  0.0121 -1.9229
 8874TIP3   OH248112   0.148   5.426   1.139 -0.1208 -0.1462  0.1198
 8874TIP3    H148113   0.153   5.378   1.057 -0.8049  1.3572 -0.8478
 8874TIP3    H248114   0.239   5.444   1.163  0.0756 -0.4379 -0.4079
 8875TIP3   OH248115   3.657   3.271  11.148 -0.1372 -0.4394  0.4731
 8875TIP3    H148116   3.631   3.181  11.128 -0.7414 -0.2016  0.1604
 8875TIP3    H248117   3.625   3.322  11.073  2.0911 -0.2547 -0.4264
 8876TIP3   OH248118   1.622   0.378  10.825 -0.0872  0.2208 -0.0170
 8876TIP3    H148119   1.620   0.360  10.919  0.0738 -0.8933 -0.2110
 8876TIP3    H248120   1.548   0.437  10.811 -1.2493 -1.0491  0.5357
 8877TIP3   OH248121   2.737   3.300   1.445  0.1270 -0.3999 -0.2662
 8877TIP3    H148122   2.735   3.392   1.416  0.7213 -0.3318 -0.1175
 8877TIP3    H248123   2.716   3.250   1.367 -2.4502 -0.0766  0.1216
 8878TIP3   OH248124   2.219   1.357   3.947 -0.1101 -0.2022 -0.0025
 8878TIP3    H148125   2.166   1.427   3.909  1.2437 -0.4648 -2.5863
 8878TIP3    H248126   2.285   1.403   3.999 -0.0838  0.3795 -0.5300
 8879TIP3   OH248127   3.117   5.088  15.970  0.0304 -0.3107 -0.1006
 8879TIP3    H148128   3.153   5.007  16.004  0.9612 -0.3296 -1.1063
 8879TIP3    H248129   3.064   5.122  16.042 -1.0181 -2.1853  0.0799
 8880TIP3   OH248130   4.322   0.701   2.177  0.1597 -0.3196  0.8497
 8880TIP3    H148131   4.334   0.614   2.139  0.3238  0.0502  0.0100
 8880TIP3    H248132   4.249   0.691   2.238 -0.8609 -0.7253 -0.3714
 8881TIP3   OH248133   2.215   3.242  10.326 -0.7543 -0.9321  0.3719
 8881TIP3    H148134   2.195   3.210  10.238 -0.5468 -2.1875  0.7621
 8881TIP3    H248135   2.169   3.325  10.332  2.6005  1.4444 -2.4611
 8882TIP3   OH248136   1.548   4.150   5.273  0.0802 -0.1524 -0.1011
 8882TIP3    H148137   1.509   4.216   5.330 -0.2729 -0.9252  0.5842
 8882TIP3    H248138   1.642   4.162   5.283  0.0180  0.3224 -0.0714
 8883TIP3   OH248139   1.574   1.421   3.157  0.3128 -0.5584  0.1228
 8883TIP3    H148140   1.508   1.482   3.190  0.6113 -1.1821  1.9876
 8883TIP3    H248141   1.657   1.467   3.166  0.2868 -0.2650 -0.9950
 8884TIP3   OH248142   2.127   1.484  16.087  0.8227  0.2968  0.3086
 8884TIP3    H148143   2.165   1.417  16.030 -0.2195 -0.3275  0.3319
 8884TIP3    H248144   2.066   1.532  16.032  1.1424  0.8765  0.4436
 8885TIP3   OH248145   5.971   1.043  11.674  0.3283  0.1936 -0.4715
 8885TIP3    H148146   5.954   1.016  11.764 -0.3230 -0.4389 -0.7765
 8885TIP3    H248147   6.045   1.104  11.681 -0.2668  0.8146  0.5751
 8886TIP3   OH248148   5.781   3.883   4.339 -0.3036  0.3370 -0.0980
 8886TIP3    H148149   5.755   3.949   4.275  0.8593 -0.7322 -1.7398
 8886TIP3    H248150   5.877   3.881   4.335 -0.3234 -1.7872 -0.4763
 8887TIP3   OH248151   2.207   3.127   5.821  0.7230 -0.0217  0.4812
 8887TIP3    H148152   2.159   3.171   5.751  3.0143  0.5750 -0.8143
 8887TIP3    H248153   2.223   3.038   5.789 -1.8585 -1.1904  2.1145
 8888TIP3   OH248154   0.168   3.758   2.783 -0.3463 -0.3508  0.3697
 8888TIP3    H148155   0.259   3.758   2.815 -0.1039  2.0462 -0.1537
 8888TIP3    H248156   0.115   3.766   2.862 -0.0027  0.2461  0.5450
 8889TIP3   OH248157   6.199   6.128   1.915  0.8559 -0.4565 -0.1389
 8889TIP3    H148158   6.125   6.176   1.953  1.6674  1.6262 -1.0387
 8889TIP3    H248159   6.158   6.057   1.866 -0.4596 -0.1900  0.5182
 8890TIP3   OH248160   3.218   1.594  11.841 -0.0539  0.1425  0.3162
 8890TIP3    H148161   3.304   1.562  11.813 -0.0227  1.5666 -1.3801
 8890TIP3    H248162   3.157   1.557  11.777 -0.2978  1.5449 -0.2999
 8891TIP3   OH248163   4.339   0.665  13.891 -0.0333 -0.2251  0.5318
 8891TIP3    H148164   4.336   0.715  13.972  1.3549  0.3967  0.2227
 8891TIP3    H248165   4.418   0.696  13.846 -1.3470  0.2424 -1.5818
 8892TIP3   OH248166   1.095   4.638  12.892  0.3723 -0.1849  0.1298
 8892TIP3    H148167   1.176   4.636  12.841  0.1170  3.2961 -0.6115
 8892TIP3    H248168   1.108   4.708  12.955 -1.1492 -1.2893  1.7682
 8893TIP3   OH248169   3.039   2.074   4.174 -0.2883  0.2415 -0.0886
 8893TIP3    H148170   3.117   2.029   4.207  1.3973  1.7641 -1.7085
 8893TIP3    H248171   2.967   2.014   4.191  1.3564 -1.6203  0.7058
 8894TIP3   OH248172   6.772   1.016  11.960 -0.6807  0.1624 -0.2075
 8894TIP3    H148173   6.778   1.070  11.881 -1.1490  0.0198 -0.3438
 8894TIP3    H248174   6.679   1.016  11.982 -0.7908 -1.1583 -0.6106
 8895TIP3   OH248175   0.537   2.775   0.495 -0.0792 -0.5628 -0.9080
 8895TIP3    H148176   0.549   2.859   0.450 -0.5497 -0.6514 -1.2091
 8895TIP3    H248177   0.550   2.795   0.588 -0.5238 -0.0858 -0.9458
 8896TIP3   OH248178   4.448   2.211   3.559 -0.1028  0.5190 -0.2400
 8896TIP3    H148179   4.539   2.208   3.589  0.1526  0.3806 -1.0164
 8896TIP3    H248180   4.420   2.120   3.556 -0.1012  0.5263 -0.5011
 8897TIP3   OH248181   1.437   1.427  13.292 -0.3314 -0.6122  0.0689
 8897TIP3    H148182   1.467   1.366  13.360 -0.0733 -2.3111 -1.4833
 8897TIP3    H248183   1.439   1.513  13.334 -0.2169 -1.5905  2.2027
 8898TIP3   OH248184   0.176   6.136   1.857  0.0430  0.2278  0.1297
 8898TIP3    H148185   0.219   6.221   1.847 -2.1261  1.3733  0.1440
 8898TIP3    H248186   0.116   6.147   1.930  0.2868 -1.5845  0.6479
 8899TIP3   OH248187   5.462   4.635   3.224  0.0608 -0.0691 -0.0329
 8899TIP3    H148188   5.504   4.631   3.310 -1.5116  0.1938  0.7891
 8899TIP3    H248189   5.480   4.723   3.192 -0.0703  0.1207  0.4154
 8900TIP3   OH248190   1.413   5.606   0.451 -0.0709  0.3524  0.0899
 8900TIP3    H148191   1.331   5.615   0.499 -0.6439  0.5138 -0.9010
 8900TIP3    H248192   1.473   5.667   0.495  0.1914 -1.2493  2.1374
 8901TIP3   OH248193   6.693   3.488   3.211  0.5051  0.1706  0.5353
 8901TIP3    H148194   6.650   3.440   3.140  2.6079  1.2899 -1.6121
 8901TIP3    H248195   6.633   3.559   3.232 -0.2274 -0.2729 -0.0047
 8902TIP3   OH248196   4.682   0.711  15.693 -0.1158 -0.2442 -0.6850
 8902TIP3    H148197   4.707   0.792  15.649 -0.1614 -0.2637 -0.7475
 8902TIP3    H248198   4.653   0.739  15.780 -3.1429  0.2114 -1.7215
 8903TIP3   OH248199   5.567   4.687   2.581  0.2775 -0.1406 -0.1189
 8903TIP3    H148200   5.604   4.623   2.521 -2.2207 -0.6673 -1.2329
 8903TIP3    H248201   5.567   4.769   2.532  0.7390  0.0450  0.1900
 8904TIP3   OH248202   4.958   3.020   2.673  0.0815 -0.2431 -0.2030
 8904TIP3    H148203   4.897   2.980   2.611 -2.1022  1.1343  0.9406
 8904TIP3    H248204   4.927   3.110   2.683  0.8620 -0.1642  2.2122
 8905TIP3   OH248205   4.191   1.895  13.284 -0.1447 -0.2858  0.1579
 8905TIP3    H148206   4.241   1.919  13.362  0.2349  0.0274 -0.1765
 8905TIP3    H248207   4.135   1.823  13.313 -0.6945  0.4496  0.9558
 8906TIP3   OH248208   0.359   5.709  11.189 -0.1464  0.3307 -0.2028
 8906TIP3    H148209   0.273   5.684  11.157 -0.8756  0.4651  1.5532
 8906TIP3    H248210   0.417   5.638  11.160 -1.2615 -0.8638  0.4240
 8907TIP3   OH248211   4.919   0.593   1.219 -0.4498 -0.5339 -0.6204
 8907TIP3    H148212   4.849   0.616   1.158 -0.6304 -1.7923 -0.9067
 8907TIP3    H248213   4.878   0.535   1.282 -0.1960  0.5292  0.5666
 8908TIP3   OH248214   0.948   1.232  12.530  0.1388  0.0812 -0.0840
 8908TIP3    H148215   0.950   1.180  12.611 -2.2545 -2.9504 -1.7671
 8908TIP3    H248216   1.041   1.246  12.509  0.8737 -1.6422  1.6689
 8909TIP3   OH248217   1.679   1.110   4.328  0.4074 -0.4809  0.7376
 8909TIP3    H148218   1.642   1.114   4.416 -1.0162 -0.6496  0.1802
 8909TIP3    H248219   1.662   1.020   4.299 -3.3089  0.6757 -1.3499
 8910TIP3   OH248220   0.216   3.293   2.986 -0.1193 -0.1725 -0.1143
 8910TIP3    H148221   0.138   3.322   2.938 -1.2396  0.7989  2.1765
 8910TIP3    H248222   0.227   3.202   2.959 -2.0708 -0.3553 -0.4751
 8911TIP3   OH248223   4.941   0.805   5.559  0.4688  0.3321  0.4697
 8911TIP3    H148224   4.974   0.753   5.486 -0.6776  0.2183  0.0034
 8911TIP3    H248225   4.862   0.847   5.525  0.7015  1.4282  1.2111
 8912TIP3   OH248226   4.209   5.271   3.693  0.3505  0.4867 -0.1953
 8912TIP3    H148227   4.232   5.363   3.680  0.5782  0.4445 -0.0903
 8912TIP3    H248228   4.219   5.231   3.607  1.9135  0.1936  0.0975
 8913TIP3   OH248229   2.265   0.593   5.871 -0.0288 -0.7931 -0.0418
 8913TIP3    H148230   2.190   0.536   5.885  1.1295 -2.8351 -1.6251
 8913TIP3    H248231   2.341   0.536   5.880  1.3389  1.0326  0.7106
 8914TIP3   OH248232   2.976   4.444  11.605 -0.5894 -0.4581 -0.1278
 8914TIP3    H148233   2.971   4.473  11.696 -1.9229 -0.1505 -0.2838
 8914TIP3    H248234   3.015   4.519  11.559  1.5588 -1.1919  0.4076
 8915TIP3   OH248235   2.902   6.756   5.915 -0.6561 -0.1360  0.1329
 8915TIP3    H148236   2.809   6.743   5.895 -0.6928  0.3718 -0.0398
 8915TIP3    H248237   2.946   6.743   5.832 -0.8463  2.3859 -0.4326
 8916TIP3   OH248238   3.782   4.646  13.412  0.4470 -0.1281  0.3009
 8916TIP3    H148239   3.775   4.595  13.493  1.0443  0.6980  0.8886
 8916TIP3    H248240   3.691   4.659  13.384  0.1308  0.9725  1.7326
 8917TIP3   OH248241   2.321   2.477   0.206 -0.3787 -0.1272  0.2883
 8917TIP3    H148242   2.376   2.502   0.280 -0.2256  1.2041 -0.2350
 8917TIP3    H248243   2.258   2.549   0.198 -0.0743  0.0196 -1.1546
 8918TIP3   OH248244   1.597   3.828  12.595 -0.0014 -0.2258  0.4916
 8918TIP3    H148245   1.666   3.829  12.529  0.4392 -3.8451  0.6980
 8918TIP3    H248246   1.614   3.906  12.648  2.7845  0.0340 -0.6006
 8919TIP3   OH248247   3.681   4.330  12.159  0.1442  0.1701 -0.3280
 8919TIP3    H148248   3.714   4.241  12.151  2.2909  0.9628 -0.9634
 8919TIP3    H248249   3.653   4.354  12.071 -1.6465 -0.2630  0.0795
 8920TIP3   OH248250   1.432   0.140   1.745 -0.2542 -0.3495  0.4984
 8920TIP3    H148251   1.346   0.136   1.787 -1.5010  1.9952 -1.5343
 8920TIP3    H248252   1.416   0.188   1.663  2.9090 -0.3081 -0.2128
 8921TIP3   OH248253   6.094   1.940   1.340  0.1111 -0.0054  0.1666
 8921TIP3    H148254   6.015   1.979   1.379 -0.3902 -0.9531  0.1216
 8921TIP3    H248255   6.134   1.890   1.411  0.1020 -0.3857 -0.0953
 8922TIP3   OH248256   1.962   4.550   5.288  0.0645 -0.3818 -0.5349
 8922TIP3    H148257   2.022   4.591   5.350  0.4260 -2.4345  0.5723
 8922TIP3    H248258   1.999   4.570   5.202  1.3722 -0.1492  0.0599
 8923TIP3   OH248259   1.975   0.397  11.041 -0.1854  0.1313  0.1025
 8923TIP3    H148260   2.031   0.319  11.034  0.5088  0.5177  1.0937
 8923TIP3    H248261   1.953   0.418  10.950  1.9376  0.4275 -0.4122
 8924TIP3   OH248262   5.720   3.529   4.979 -0.1000 -0.2090  0.0808
 8924TIP3    H148263   5.793   3.466   4.982  0.9353  0.7214 -2.6113
 8924TIP3    H248264   5.678   3.513   4.894 -0.2332  2.2235 -0.3652
 8925TIP3   OH248265   2.343   5.452  16.813  0.1525  0.2815  0.1328
 8925TIP3    H148266   2.408   5.445  16.882  1.6056 -1.2958 -1.2880
 8925TIP3    H248267   2.319   5.545  16.811  1.4601  0.6729  1.4890
 8926TIP3   OH248268   3.653   5.362  16.737 -0.4083  0.0775 -0.4783
 8926TIP3    H148269   3.680   5.280  16.778  1.0399  0.5159 -0.4950
 8926TIP3    H248270   3.574   5.387  16.784 -0.2899 -0.8087  0.2248
 8927TIP3   OH248271   4.170   6.157  16.317 -0.3450  0.1401  0.9190
 8927TIP3    H148272   4.079   6.188  16.314 -0.1054  1.0794  2.4043
 8927TIP3    H248273   4.182   6.111  16.234 -1.8583  0.8834  0.2436
 8928TIP3   OH248274   3.706   1.602   0.040 -0.1535  0.8115  0.7722
 8928TIP3    H148275   3.763   1.524   0.037  0.1623  1.0728 -0.8100
 8928TIP3    H248276   3.759   1.668   0.085 -0.6042  0.0056  2.5769
 8929TIP3   OH248277   2.135   2.239  17.039  0.4615  0.2281  0.5701
 8929TIP3    H148278   2.177   2.174  17.095  1.8981  0.5673 -0.0678
 8929TIP3    H248279   2.117   2.313  17.098 -2.4539 -1.1574  1.6311
 8930TIP3   OH248280   2.397   6.799   2.577  0.4178  0.2217 -0.2064
 8930TIP3    H148281   2.333   6.737   2.543 -0.0036  1.0145 -0.8829
 8930TIP3    H248282   2.347   6.855   2.636  0.5464  0.6701 -0.5244
 8931TIP3   OH248283   1.212   1.665  16.507  0.3935  1.1005 -0.5852
 8931TIP3    H148284   1.155   1.612  16.452  0.6519  1.0424 -0.7924
 8931TIP3    H248285   1.205   1.753  16.471  1.7027  0.8041 -1.6341
 8932TIP3   OH248286   4.508   4.432   2.310  0.3994 -0.1899  0.0906
 8932TIP3    H148287   4.470   4.362   2.257 -1.3493  0.3823  0.5158
 8932TIP3    H248288   4.598   4.441   2.278 -0.5866  0.1565 -2.8312
 8933TIP3   OH248289   3.991   2.334  11.941 -0.1966 -0.9667  0.0562
 8933TIP3    H148290   3.915   2.332  11.999 -1.4283 -1.0913 -1.4727
 8933TIP3    H248291   4.030   2.247  11.949  0.7400 -0.4309  1.9853
 8934TIP3   OH248292   3.478   4.552  16.282  0.4366  0.3381 -0.1286
 8934TIP3    H148293   3.480   4.647  16.287  1.2936  0.4051 -1.3672
 8934TIP3    H248294   3.488   4.532  16.189 -0.1370 -0.9594  0.0645
 8935TIP3   OH248295   0.968   1.951   5.652 -0.0477 -0.1940 -0.1958
 8935TIP3    H148296   0.903   1.913   5.711 -0.5382  1.1946  0.1887
 8935TIP3    H248297   0.930   2.034   5.623  1.7161  0.8877  0.4052
 8936TIP3   OH248298   5.323   5.129  13.889  0.2607  0.1804 -0.0917
 8936TIP3    H148299   5.340   5.039  13.863  0.2508  0.1523 -0.0031
 8936TIP3    H248300   5.322   5.179  13.807  3.9883  0.7426  0.0086
 8937TIP3   OH248301   6.683   1.975  13.194  0.0135 -0.4531  0.2019
 8937TIP3    H148302   6.591   1.980  13.218 -0.2448 -2.1630 -0.2901
 8937TIP3    H248303   6.730   2.015  13.268 -1.1126  0.5127  0.4077
 8938TIP3   OH248304   6.406   4.432  12.713  0.1048  0.1680 -0.7380
 8938TIP3    H148305   6.366   4.519  12.707 -0.3069 -0.0686 -1.5861
 8938TIP3    H248306   6.337   4.377  12.749  0.0580  0.0058 -1.0726
 8939TIP3   OH248307   0.933   0.200   1.999  0.4089 -0.3086 -0.3133
 8939TIP3    H148308   0.952   0.290   2.024 -1.3762 -0.4919  2.0775
 8939TIP3    H248309   0.884   0.207   1.917 -0.5326  0.9985  0.3294
 8940TIP3   OH248310   0.945   5.880  13.717  0.6374 -0.2704  0.4255
 8940TIP3    H148311   0.902   5.902  13.799  0.3153  0.0592  0.1700
 8940TIP3    H248312   1.004   5.953  13.700  0.7186 -0.3478  0.3693
 8941TIP3   OH248313   4.458   2.784  13.841 -0.2592  0.2654 -0.1502
 8941TIP3    H148314   4.434   2.726  13.913 -2.7563 -0.2821 -1.3385
 8941TIP3    H248315   4.443   2.872  13.875 -0.1300  0.0714  0.4215
 8942TIP3   OH248316   5.429   4.850   0.795 -0.3182 -0.2981 -0.3235
 8942TIP3    H148317   5.483   4.836   0.718 -2.2537  4.3934 -2.9406
 8942TIP3    H248318   5.346   4.881   0.761 -0.7376  3.7707  3.4966
 8943TIP3   OH248319   3.938   5.168   3.402  0.4715 -0.1347  0.0228
 8943TIP3    H148320   3.986   5.094   3.439  0.7089 -0.0914 -0.1948
 8943TIP3    H248321   3.905   5.136   3.319  3.2761  0.9345 -1.6449
 8944TIP3   OH248322   4.829   1.214   0.981  0.3599  0.1914 -0.4859
 8944TIP3    H148323   4.852   1.161   1.057  0.1896 -1.0626 -1.2581
 8944TIP3    H248324   4.743   1.252   1.003  1.2295  1.5345  0.7423
 8945TIP3   OH248325   3.335   0.312  16.128  0.3601  0.4101  0.8295
 8945TIP3    H148326   3.265   0.330  16.066  0.5568  0.8561  0.7293
 8945TIP3    H248327   3.338   0.217  16.134  2.3510  0.1138 -2.2580
 8946TIP3   OH248328   6.417   5.309  13.966 -0.3272 -0.8839  0.3156
 8946TIP3    H148329   6.438   5.353  13.883  0.9200 -1.1649  0.4689
 8946TIP3    H248330   6.389   5.221  13.939 -0.1017 -0.9163  0.1844
 8947TIP3   OH248331   1.302   3.959   3.067 -0.7097 -0.2034  0.9576
 8947TIP3    H148332   1.341   4.002   3.142  0.3606 -1.1181  0.9515
 8947TIP3    H248333   1.225   4.012   3.046  1.4738  2.7866 -0.2003
 8948TIP3   OH248334   1.000   6.771   1.750  0.2513  0.2030  0.0567
 8948TIP3    H148335   1.029   6.728   1.830 -2.4076 -0.2910  0.8416
 8948TIP3    H248336   1.060   6.739   1.683  2.3773  0.4256  1.7595
 8949TIP3   OH248337   6.434   1.988   5.735  0.6377  0.4035  0.1286
 8949TIP3    H148338   6.416   2.051   5.804 -1.2967 -1.5489  1.5081
 8949TIP3    H248339   6.351   1.945   5.719  1.3294 -0.1119 -2.5656
 8950TIP3   OH248340   4.922   5.575   3.838  0.2922  0.4569 -0.3093
 8950TIP3    H148341   4.943   5.483   3.859 -0.3707  0.0127 -1.5037
 8950TIP3    H248342   4.830   5.574   3.815  0.1563  1.5292  0.1331
 8951TIP3   OH248343   1.421   3.459  12.594 -0.4783 -0.0694  0.2784
 8951TIP3    H148344   1.350   3.451  12.658 -0.4363  2.1185  0.6978
 8951TIP3    H248345   1.498   3.478  12.647  0.4063 -2.1432 -0.1929
 8952TIP3   OH248346   5.449   6.029   4.531 -0.3876 -0.0211  0.0910
 8952TIP3    H148347   5.446   6.023   4.627 -2.4757  0.2957  0.0861
 8952TIP3    H248348   5.409   6.113   4.511  1.1012  0.4558 -1.0509
 8953TIP3   OH248349   2.667   0.253  14.385  0.0662  0.1217 -0.0796
 8953TIP3    H148350   2.721   0.220  14.457 -1.4292 -3.3650 -0.3657
 8953TIP3    H248351   2.591   0.292  14.427  0.3195  0.2552  0.2561
 8954TIP3   OH248352   3.085   2.222   3.886  0.0947 -0.2634  0.3153
 8954TIP3    H148353   3.172   2.198   3.852  0.4997  0.9387  0.4556
 8954TIP3    H248354   3.073   2.165   3.962  1.1581  0.1741  0.8301
 8955TIP3   OH248355   3.732   0.261  16.535  0.1387 -0.1928  0.3799
 8955TIP3    H148356   3.762   0.235  16.448  0.9429  1.3887  0.1510
 8955TIP3    H248357   3.639   0.237  16.536 -0.1022  0.4902 -1.2330
 8956TIP3   OH248358   4.453   4.328   0.450  0.2858 -0.0382  0.0974
 8956TIP3    H148359   4.483   4.283   0.529  0.2046 -1.6678 -0.7524
 8956TIP3    H248360   4.384   4.272   0.415  0.7447  0.3147 -1.4568
 8957TIP3   OH248361   3.183   5.704   6.773 -0.3626  0.2150 -0.7975
 8957TIP3    H148362   3.194   5.761   6.697 -0.2629  0.4343 -0.6182
 8957TIP3    H248363   3.099   5.660   6.759 -0.9126  1.1425 -0.4485
 8958TIP3   OH248364   3.379   4.079  13.947 -0.3493  0.7515  0.4452
 8958TIP3    H148365   3.328   4.031  14.013  0.1192 -0.2745  0.0878
 8958TIP3    H248366   3.470   4.057  13.967 -0.1415  1.3238  0.1257
 8959TIP3   OH248367   2.057   2.958  15.328 -0.0067 -0.5780 -0.2052
 8959TIP3    H148368   2.022   3.029  15.273  2.2886 -0.3881 -1.5329
 8959TIP3    H248369   2.063   2.997  15.416 -0.7472  0.1577 -0.4604
 8960TIP3   OH248370   5.446   1.903   5.783 -0.2794  0.4374  0.3003
 8960TIP3    H148371   5.498   1.823   5.795  0.6797  0.9366 -0.3662
 8960TIP3    H248372   5.503   1.961   5.732 -1.2754  1.2358  0.0591
 8961TIP3   OH248373   0.736   1.873   4.319  0.5436  0.4094  0.7073
 8961TIP3    H148374   0.769   1.863   4.230 -0.1645  2.5537  0.1584
 8961TIP3    H248375   0.811   1.908   4.368  0.2633  1.4761  0.3897
 8962TIP3   OH248376   3.853   4.974  15.487  0.3648  0.7840  0.1638
 8962TIP3    H148377   3.768   5.009  15.461  1.0333  0.6444 -2.5283
 8962TIP3    H248378   3.916   5.016  15.428  2.0660  0.1645  1.4405
 8963TIP3   OH248379   5.180   2.010  11.780 -0.2506  0.2496 -0.2638
 8963TIP3    H148380   5.139   2.029  11.864  0.8513 -0.3558  0.4396
 8963TIP3    H248381   5.245   2.081  11.769  2.2749 -1.6500  1.2792
 8964TIP3   OH248382   3.001   2.549  11.182 -0.1558 -0.0635  0.9602
 8964TIP3    H148383   3.009   2.502  11.099 -0.1327 -0.1610  1.0185
 8964TIP3    H248384   3.076   2.520  11.234 -0.3452 -0.2386  1.1343
 8965TIP3   OH248385   3.422   1.842  15.426 -0.1071  0.3716 -0.8517
 8965TIP3    H148386   3.449   1.753  15.403 -1.5067 -0.4352  0.4590
 8965TIP3    H248387   3.327   1.836  15.437 -0.3154  2.1899 -1.3818
 8966TIP3   OH248388   1.404   0.941  16.868  0.1682 -0.0203 -0.4963
 8966TIP3    H148389   1.465   0.889  16.816  0.5305 -0.6255  0.5030
 8966TIP3    H248390   1.431   1.031  16.854  0.8662 -0.2406 -0.5947
 8967TIP3   OH248391   4.811   0.458  14.481  0.0412  0.0107  0.0671
 8967TIP3    H148392   4.762   0.382  14.449 -1.6189  0.2729  1.8161
 8967TIP3    H248393   4.772   0.533  14.436  1.8359 -0.1181 -1.8387
 8968TIP3   OH248394   5.815   2.178  16.527 -0.4181  0.2275  0.1959
 8968TIP3    H148395   5.889   2.184  16.587 -0.2549 -1.6929  0.2593
 8968TIP3    H248396   5.840   2.108  16.465 -2.6486 -1.4164  1.0123
 8969TIP3   OH248397   5.001   4.877  12.585  0.0864 -0.4060  0.1468
 8969TIP3    H148398   5.070   4.822  12.622 -1.4165 -3.7098 -1.4940
 8969TIP3    H248399   5.019   4.876  12.491 -0.0056  2.0688  0.0425
 8970TIP3   OH248400   3.531   4.910   2.828  0.1539 -0.5265  0.1747
 8970TIP3    H148401   3.490   4.960   2.757 -0.8203  1.5546  2.0555
 8970TIP3    H248402   3.462   4.903   2.894  1.9093  0.3820  2.2013
 8971TIP3   OH248403   6.640   0.297  11.758 -0.2305  0.1199 -0.6122
 8971TIP3    H148404   6.573   0.275  11.823 -1.3257  1.0395 -1.4034
 8971TIP3    H248405   6.596   0.354  11.695  1.2333  0.5710 -1.2880
 8972TIP3   OH248406   4.298   6.263  15.368 -0.1741  0.0068  0.0095
 8972TIP3    H148407   4.335   6.322  15.303 -0.0944 -2.3470 -2.1851
 8972TIP3    H248408   4.373   6.220  15.408 -0.3115 -2.1593 -1.9233
 8973TIP3   OH248409   1.867   1.997  17.132  0.2095  0.3407 -0.1723
 8973TIP3    H148410   1.846   1.994  17.226  0.4800  0.2500 -0.1123
 8973TIP3    H248411   1.960   1.974  17.128  0.2861  0.6939 -0.4337
 8974TIP3   OH248412   0.998   5.764   0.981 -0.0083  0.5701 -0.6783
 8974TIP3    H148413   0.986   5.673   0.954 -1.3828  0.4292  0.2969
 8974TIP3    H248414   0.942   5.814   0.923 -2.3986  0.3389  1.2805
 8975TIP3   OH248415   3.865   2.181  11.032  0.1018 -0.3909 -0.0174
 8975TIP3    H148416   3.921   2.131  10.973  1.5075  1.4931 -0.3693
 8975TIP3    H248417   3.889   2.151  11.119  0.5832 -0.6619 -0.2413
 8976TIP3   OH248418   6.723   0.251   6.676  0.0972  0.0410  0.0082
 8976TIP3    H148419   6.756   0.165   6.648 -1.4452 -1.5065  2.5378
 8976TIP3    H248420   6.793   0.287   6.730  0.9438  0.6601 -1.4398
 8977TIP3   OH248421   6.305   5.611   0.301  0.1211  0.2610 -0.1121
 8977TIP3    H148422   6.241   5.654   0.245 -0.5307  0.2534  0.6080
 8977TIP3    H248423   6.330   5.679   0.364  0.2427  0.0376  0.0800
 8978TIP3   OH248424   4.278   1.868  11.767  0.4307 -0.2206 -0.5051
 8978TIP3    H148425   4.280   1.963  11.776 -0.1369 -0.1898 -0.6484
 8978TIP3    H248426   4.370   1.842  11.757  0.5416  0.3805 -1.1355
 8979TIP3   OH248427   6.658   3.447  13.485  0.2897 -0.4782 -0.0816
 8979TIP3    H148428   6.633   3.538  13.470  2.8448  0.0931 -1.4986
 8979TIP3    H248429   6.661   3.439  13.581 -1.6175  0.3785  0.0846
 8980TIP3   OH248430   0.489   6.555  17.076  0.2447 -0.6013 -0.0501
 8980TIP3    H148431   0.559   6.549  17.141 -0.3359  3.8245  1.3541
 8980TIP3    H248432   0.420   6.497  17.108  1.1999 -0.9201  1.5232
 8981TIP3   OH248433   3.999   0.383   0.842 -0.2146  0.0871 -0.1848
 8981TIP3    H148434   4.028   0.471   0.816  1.5977 -0.4488 -0.0783
 8981TIP3    H248435   4.009   0.329   0.764 -0.7575 -0.1748 -0.0826
 8982TIP3   OH248436   0.318   3.510  16.446 -0.8022  0.1689  0.0931
 8982TIP3    H148437   0.253   3.557  16.393  0.1050  2.4545  0.8713
 8982TIP3    H248438   0.402   3.538  16.411 -0.1977 -1.1458  0.4310
 8983TIP3   OH248439   1.925   2.273  11.498  0.2019 -0.1980 -0.3989
 8983TIP3    H148440   1.916   2.185  11.535  2.3011 -0.2980  0.0520
 8983TIP3    H248441   1.945   2.328  11.574  1.1987  0.2233 -0.9517
 8984TIP3   OH248442   3.936   1.352  14.805  0.2270 -0.1700  0.2216
 8984TIP3    H148443   3.882   1.278  14.834 -1.1106  1.1667  1.3924
 8984TIP3    H248444   3.889   1.388  14.730  0.3913 -0.0139  0.1927
 8985TIP3   OH248445   1.209   6.093   1.257 -0.1833  0.2349 -0.3586
 8985TIP3    H148446   1.250   6.109   1.171 -1.7260 -0.2553 -1.2212
 8985TIP3    H248447   1.271   6.130   1.320  1.2569  0.1138 -1.6382
 8986TIP3   OH248448   6.485   5.080  11.334 -0.3825 -0.1485 -0.4661
 8986TIP3    H148449   6.425   5.009  11.360  0.2149  0.0912  1.7782
 8986TIP3    H248450   6.429   5.158  11.332 -0.9316 -0.5356 -2.4228
 8987TIP3   OH248451   6.563   4.807  14.831  0.1315 -0.2489 -0.2767
 8987TIP3    H148452   6.505   4.883  14.830  0.3732 -0.0621 -0.0454
 8987TIP3    H248453   6.640   4.835  14.783  1.4916  0.6586  2.2603
 8988TIP3   OH248454   4.310   1.310   6.895 -0.2418 -0.1210  0.1641
 8988TIP3    H148455   4.231   1.256   6.891  0.4060 -1.2053  1.2269
 8988TIP3    H248456   4.360   1.275   6.969  1.3063  0.4464 -0.5523
 8989TIP3   OH248457   4.636   1.191  10.862  0.2165  0.5491  0.3225
 8989TIP3    H148458   4.679   1.248  10.799 -0.0929  0.2796 -0.1448
 8989TIP3    H248459   4.575   1.248  10.909 -1.4009  0.2972 -1.3637
 8990TIP3   OH248460   0.982   0.490   2.585  0.7588 -0.1033 -0.7280
 8990TIP3    H148461   0.918   0.427   2.553  1.6554 -1.1501 -0.5045
 8990TIP3    H248462   0.930   0.566   2.611 -0.0882  0.5344 -3.9099
 8991TIP3   OH248463   3.635   3.240   1.874 -0.5723 -0.3197 -0.1052
 8991TIP3    H148464   3.710   3.247   1.933 -0.6275  0.3515 -0.1147
 8991TIP3    H248465   3.561   3.221   1.931 -0.5971  0.1679  0.0248
 8992TIP3   OH248466   6.631   1.763   2.287  0.2224  0.5211 -0.4419
 8992TIP3    H148467   6.696   1.771   2.357  1.5849 -2.4189 -1.2071
 8992TIP3    H248468   6.677   1.793   2.209 -0.5489  1.6781 -0.4745
 8993TIP3   OH248469   2.446   5.551  13.276 -0.1539  0.5196 -0.0379
 8993TIP3    H148470   2.509   5.543  13.348  2.2983  0.5575 -2.0520
 8993TIP3    H248471   2.371   5.500  13.305  0.2933  1.3473  2.9476
 8994TIP3   OH248472   4.474   5.534   0.247  0.0496 -0.3536 -0.1846
 8994TIP3    H148473   4.434   5.521   0.333  0.3440 -0.1890 -0.0186
 8994TIP3    H248474   4.568   5.531   0.264  0.1590  1.7184 -0.1550
 8995TIP3   OH248475   3.034   1.405  11.104  0.4012  0.1829  0.1484
 8995TIP3    H148476   2.985   1.330  11.138 -1.3969  0.4738 -1.6235
 8995TIP3    H248477   2.982   1.437  11.031  3.2066  0.5690 -1.8689
 8996TIP3   OH248478   0.576   5.925  15.422 -0.4568  0.2598  0.2584
 8996TIP3    H148479   0.481   5.918  15.428 -0.3528 -0.1474  1.9913
 8996TIP3    H248480   0.609   5.841  15.455  0.5163  0.6180  0.2492
 8997TIP3   OH248481   0.683   6.035   3.645  1.0340  0.0145 -0.1368
 8997TIP3    H148482   0.648   6.114   3.686 -1.3752 -0.8678 -0.3227
 8997TIP3    H248483   0.676   6.053   3.551  3.1202  0.6227 -0.2101
 8998TIP3   OH248484   6.808   0.776   4.646 -0.3465  0.1949 -0.0176
 8998TIP3    H148485   6.811   0.747   4.737  0.6523  0.4245  0.0288
 8998TIP3    H248486   6.755   0.709   4.602 -1.4068  0.4292  0.8349
 8999TIP3   OH248487   6.081   3.734  15.999  0.4109  0.2986  0.2682
 8999TIP3    H148488   6.004   3.775  15.961  0.6485  0.2251 -0.3153
 8999TIP3    H248489   6.116   3.799  16.060 -0.6619 -0.0507  1.2946
 9000TIP3   OH248490   0.599   1.653   4.185  0.3446  0.2471  0.4501
 9000TIP3    H148491   0.582   1.628   4.094  1.1373 -0.6938  0.5330
 9000TIP3    H248492   0.695   1.647   4.193  0.1318 -2.7156  2.1398
 9001TIP3   OH248493   3.460   5.566   1.431 -0.2257 -0.3921 -0.0250
 9001TIP3    H148494   3.499   5.532   1.512  0.0203  0.2387  0.1218
 9001TIP3    H248495   3.366   5.569   1.449 -0.3485 -1.6926 -0.2952
 9002TIP3   OH248496   5.603   4.283   3.029  0.1677 -0.7339  0.5036
 9002TIP3    H148497   5.538   4.328   2.975  0.2568 -1.1376  0.0574
 9002TIP3    H248498   5.557   4.263   3.110  0.5683  1.5731  1.3754
 9003TIP3   OH248499   1.898   6.585   2.891 -0.4378  0.6380 -0.0724
 9003TIP3    H148500   1.903   6.562   2.984 -0.4943  0.6727 -0.0607
 9003TIP3    H248501   1.989   6.595   2.864 -0.3195 -1.3115 -0.5106
 9004TIP3   OH248502   2.815   5.984  17.222 -0.0515  0.1490 -0.4514
 9004TIP3    H148503   2.869   6.053  17.259  1.5413 -0.9645 -0.5920
 9004TIP3    H248504   2.867   5.948  17.150 -1.1257 -0.7576 -0.8125
 9005TIP3   OH248505   3.286   5.807  13.688  0.2995 -0.0405  0.2700
 9005TIP3    H148506   3.294   5.711  13.684  0.6698 -0.0929  1.7097
 9005TIP3    H248507   3.194   5.824  13.665  0.3966 -0.6743 -0.6610
 9006TIP3   OH248508   3.643   6.745   3.694  0.5079  0.4821  0.1568
 9006TIP3    H148509   3.673   6.718   3.780 -1.4342 -0.4808  0.5872
 9006TIP3    H248510   3.547   6.743   3.700  0.3122  1.9752 -1.5410
 9007TIP3   OH248511   4.370   4.198   2.811  0.4025 -0.1990 -0.0813
 9007TIP3    H148512   4.413   4.275   2.774  0.8108  0.3008  1.3363
 9007TIP3    H248513   4.442   4.140   2.836  0.1469 -0.5386 -0.1318
 9008TIP3   OH248514   4.532   3.988   0.159 -0.7758 -0.5435 -0.0714
 9008TIP3    H148515   4.480   3.933   0.219 -0.2040  0.0537  1.0070
 9008TIP3    H248516   4.585   4.043   0.217 -1.0356  0.8726 -1.1206
 9009TIP3   OH248517   2.552   0.196   1.210  0.4233  0.2755  0.0156
 9009TIP3    H148518   2.485   0.261   1.233  0.6208  0.7699 -0.7775
 9009TIP3    H248519   2.633   0.246   1.202  0.8820 -0.2994  0.8368
 9010TIP3   OH248520   0.314   4.208   2.316 -0.6033  0.1394  0.0242
 9010TIP3    H148521   0.314   4.122   2.358  1.5896 -0.9662 -1.9886
 9010TIP3    H248522   0.245   4.201   2.249 -1.9751  0.8097  1.3157
 9011TIP3   OH248523   0.177   0.269  15.838  0.2883 -0.2900 -0.3409
 9011TIP3    H148524   0.224   0.345  15.872 -0.8765  0.6382 -0.7405
 9011TIP3    H248525   0.127   0.236  15.912 -1.5249  1.1719 -0.8432
 9012TIP3   OH248526   2.732   4.051  16.187 -0.0446  0.3466  0.0354
 9012TIP3    H148527   2.685   4.089  16.113 -0.6708 -0.3374  0.0678
 9012TIP3    H248528   2.825   4.062  16.164 -0.2242  0.7365 -0.5375
 9013TIP3   OH248529   5.072   1.709  15.653 -0.2024 -0.4670 -0.1467
 9013TIP3    H148530   5.049   1.775  15.718 -1.2539 -0.9270 -0.0252
 9013TIP3    H248531   5.165   1.692  15.667 -0.6097 -1.2725  1.9198
 9014TIP3   OH248532   2.547   6.638  13.861 -0.7100 -0.0875 -0.2651
 9014TIP3    H148533   2.570   6.691  13.937 -0.5509  0.0318 -0.3950
 9014TIP3    H248534   2.619   6.652  13.799 -1.3652  0.7044 -0.8806
 9015TIP3   OH248535   3.404   2.363  12.884 -0.3114  0.3244 -0.6181
 9015TIP3    H148536   3.318   2.321  12.888  0.1863 -0.7432 -0.7640
 9015TIP3    H248537   3.409   2.416  12.964 -0.7278 -0.3708 -0.1234
 9016TIP3   OH248538   4.369   4.869  16.666  0.3637  0.1503  0.4203
 9016TIP3    H148539   4.319   4.932  16.718  2.2669  2.3866 -0.3034
 9016TIP3    H248540   4.459   4.902  16.669  1.1772 -1.7645 -1.1966
 9017TIP3   OH248541   5.042   6.094  15.251  0.1981  0.1899 -0.1993
 9017TIP3    H148542   5.136   6.092  15.236 -0.1077 -1.4871 -2.3378
 9017TIP3    H248543   5.033   6.133  15.338  2.8852 -0.1869  0.3452
 9018TIP3   OH248544   0.898   4.985   5.591  0.0846  0.5127  0.1469
 9018TIP3    H148545   0.965   5.052   5.608  2.0477 -1.6520  1.5795
 9018TIP3    H248546   0.940   4.903   5.616 -2.2005 -1.3079 -1.5845
 9019TIP3   OH248547   6.410   2.426  15.380  0.0463  0.1668 -0.1572
 9019TIP3    H148548   6.462   2.483  15.324  0.5808 -2.5065 -2.5881
 9019TIP3    H248549   6.471   2.399  15.449  0.6169  0.3710 -0.5751
 9020TIP3   OH248550   3.459   2.307  15.509 -0.1075 -0.5119 -0.0309
 9020TIP3    H148551   3.538   2.265  15.543 -1.6112 -0.9997  3.3342
 9020TIP3    H248552   3.387   2.261  15.552 -2.0282  2.8046  0.6723
 9021TIP3   OH248553   6.503   5.646   3.886 -0.0028 -0.5367 -0.3857
 9021TIP3    H148554   6.511   5.551   3.878  1.3413 -0.6553  1.6805
 9021TIP3    H248555   6.442   5.671   3.816 -0.0048 -2.8343 -1.2831
 9022TIP3   OH248556   3.060   2.312  11.706  0.1950 -0.2963  0.0828
 9022TIP3    H148557   2.992   2.284  11.767  0.3655 -0.4357  0.2122
 9022TIP3    H248558   3.036   2.401  11.683 -0.4626 -0.6140 -0.4854
 9023TIP3   OH248559   3.141   3.702   1.098 -0.3382  0.1918 -0.1493
 9023TIP3    H148560   3.085   3.662   1.031 -0.4826 -4.3334  2.2995
 9023TIP3    H248561   3.090   3.777   1.129 -3.3791 -1.4966 -0.6059
 9024TIP3   OH248562   3.128   6.037  12.430  0.1227 -0.4284 -0.3213
 9024TIP3    H148563   3.162   5.951  12.407  1.8548  0.2508 -0.4686
 9024TIP3    H248564   3.060   6.020  12.495  0.3107 -1.9148 -0.4890
 9025TIP3   OH248565   1.659   4.782  11.763  0.0928  0.5121  0.8472
 9025TIP3    H148566   1.671   4.722  11.837  2.0238 -0.5321 -0.2307
 9025TIP3    H248567   1.733   4.843  11.771 -0.0610  0.7919  0.1689
 9026TIP3   OH248568   6.432   2.533   5.466  0.2470  0.1965  0.0768
 9026TIP3    H148569   6.384   2.576   5.536 -0.6486 -2.1395  1.0233
 9026TIP3    H248570   6.521   2.566   5.474 -0.3891  1.8617  0.6618
 9027TIP3   OH248571   5.736   5.107   5.624 -0.1929 -0.3176  0.2060
 9027TIP3    H148572   5.744   5.103   5.719 -1.2813 -1.5821  0.2561
 9027TIP3    H248573   5.806   5.051   5.591 -0.9272 -1.3300  0.3270
 9028TIP3   OH248574   1.959   6.007  14.339 -0.0824  0.3481 -0.2568
 9028TIP3    H148575   2.032   5.955  14.305 -0.4035 -0.2936  0.0195
 9028TIP3    H248576   1.897   6.013  14.267  0.2762  0.9737 -0.5230
 9029TIP3   OH248577   6.044   0.637   4.798  0.3554 -0.2099 -0.5771
 9029TIP3    H148578   6.096   0.602   4.870  0.0596 -0.2075 -0.3609
 9029TIP3    H248579   6.035   0.730   4.817  2.0639  0.2328 -1.7138
 9030TIP3   OH248580   4.110   5.939   4.109  0.5024 -0.3625 -0.7860
 9030TIP3    H148581   4.158   5.859   4.132 -0.3591 -0.2128  1.9698
 9030TIP3    H248582   4.146   6.006   4.168 -0.9560  0.4923 -0.8172
 9031TIP3   OH248583   2.242   3.144  17.063 -0.0582  0.3713 -0.0845
 9031TIP3    H148584   2.175   3.207  17.036  1.3353  1.4310 -1.2153
 9031TIP3    H248585   2.253   3.086  16.987  2.6329  2.2879 -1.3239
 9032TIP3   OH248586   2.509   0.256  16.892 -0.3360  0.6357 -0.1556
 9032TIP3    H148587   2.566   0.221  16.823 -0.5093  0.4794 -0.2201
 9032TIP3    H248588   2.536   0.347  16.902 -0.8296  0.8827 -0.9697
 9033TIP3   OH248589   1.356   5.929  11.376 -0.4118  0.4898  0.2620
 9033TIP3    H148590   1.409   5.856  11.407 -1.2606 -0.2070  0.1067
 9033TIP3    H248591   1.329   5.903  11.288 -1.1588  0.7500  0.4089
 9034TIP3   OH248592   2.734   2.048   5.476 -0.0004 -0.3900  0.6039
 9034TIP3    H148593   2.718   1.954   5.487  1.8974 -0.9819 -1.0531
 9034TIP3    H248594   2.776   2.076   5.557 -0.9765 -0.8470  1.2854
 9035TIP3   OH248595   2.994   3.835  12.647  0.0478 -0.4260 -0.2701
 9035TIP3    H148596   2.962   3.903  12.588  1.2128  0.5225  0.1450
 9035TIP3    H248597   3.038   3.883  12.717 -1.4448 -1.5013  1.4907
 9036TIP3   OH248598   0.659   1.936   2.616  0.0737 -0.1580  0.1690
 9036TIP3    H148599   0.589   2.000   2.610  0.4937  0.3922  1.0019
 9036TIP3    H248600   0.736   1.980   2.579  0.6870  0.3350  1.9191
 9037TIP3   OH248601   2.387   4.900  14.783 -0.0276 -0.3080 -0.2835
 9037TIP3    H148602   2.314   4.960  14.792 -0.1842 -0.0376 -2.6423
 9037TIP3    H248603   2.460   4.955  14.753  0.3673 -0.9903 -0.6034
 9038TIP3   OH248604   5.551   4.487   0.224  0.6184  0.4960  0.2586
 9038TIP3    H148605   5.466   4.524   0.198  0.2059 -0.5650  0.0503
 9038TIP3    H248606   5.603   4.490   0.144  1.2030  2.2233  0.6579
 9039TIP3   OH248607   2.083   6.529  14.906  0.2750  0.1147 -0.4623
 9039TIP3    H148608   1.989   6.523  14.888  0.2056  0.2917 -0.1633
 9039TIP3    H248609   2.125   6.489  14.830 -0.0426  0.0680 -0.6121
 9040TIP3   OH248610   6.216   2.500   4.876  0.1225 -0.0440 -0.4885
 9040TIP3    H148611   6.121   2.502   4.870  0.0880 -2.2891 -2.0808
 9040TIP3    H248612   6.246   2.550   4.800  0.1748 -0.4864 -0.7642
 9041TIP3   OH248613   5.219   4.927   5.448 -0.2032 -0.2118  0.2501
 9041TIP3    H148614   5.254   4.870   5.380 -2.2778 -0.2159 -0.9008
 9041TIP3    H248615   5.218   4.873   5.527 -3.0868 -2.2620 -1.0199
 9042TIP3   OH248616   0.660   1.651  11.618  0.6387 -0.4726 -0.0051
 9042TIP3    H148617   0.637   1.680  11.529 -0.1923 -1.5916 -0.1765
 9042TIP3    H248618   0.576   1.646  11.664  1.0289 -0.2392  0.7446
 9043TIP3   OH248619   1.389   4.604   4.839  0.0535 -0.4604  0.1780
 9043TIP3    H148620   1.411   4.554   4.761 -1.5225  0.7228 -1.0928
 9043TIP3    H248621   1.293   4.603   4.842  0.0592  0.3048  1.5892
 9044TIP3   OH248622   3.390   3.019  12.044  0.0375 -0.6700  0.4096
 9044TIP3    H148623   3.468   3.068  12.019  0.9024 -1.7359  0.9356
 9044TIP3    H248624   3.319   3.062  11.997  1.0314 -0.0971 -0.6247
 9045TIP3   OH248625   1.542   1.652  12.124 -0.1089  0.6026 -0.6016
 9045TIP3    H148626   1.461   1.637  12.173 -0.5208  1.6208 -0.9493
 9045TIP3    H248627   1.572   1.738  12.153 -0.8189  1.6236 -2.7431
 9046TIP3   OH248628   2.609   3.350   3.346 -0.1848 -0.2378 -0.6072
 9046TIP3    H148629   2.520   3.363   3.312 -0.1261 -0.8340 -1.0038
 9046TIP3    H248630   2.610   3.398   3.429 -0.0827  1.9293 -1.7995
 9047TIP3   OH248631   6.242   0.653   6.546  0.2021 -0.1705 -0.2795
 9047TIP3    H148632   6.306   0.639   6.615  0.7453 -0.2325 -0.7832
 9047TIP3    H248633   6.162   0.680   6.591  0.1704 -1.4474  0.4522
 9048TIP3   OH248634   5.013   2.461   4.060  1.0514  0.8126 -0.0302
 9048TIP3    H148635   5.053   2.387   4.107  0.1150  0.1575 -0.2340
 9048TIP3    H248636   5.087   2.509   4.024  1.7111  0.3677  0.6893
 9049TIP3   OH248637   2.223   5.699  15.741  0.0924  0.1415 -0.2386
 9049TIP3    H148638   2.194   5.729  15.828  0.0144  0.7346 -0.4626
 9049TIP3    H248639   2.217   5.604  15.745 -0.5241  0.1905  0.1972
 9050TIP3   OH248640   4.747   4.939   3.605  0.3752  1.0015 -0.0481
 9050TIP3    H148641   4.679   4.955   3.539 -1.8733  0.5198  2.0276
 9050TIP3    H248642   4.788   5.025   3.618 -0.0206  1.3730 -1.1222
 9051TIP3   OH248643   0.844   6.457  12.692  0.0366  0.7791 -0.4071
 9051TIP3    H148644   0.912   6.524  12.688  0.9923 -0.1642 -0.6744
 9051TIP3    H248645   0.834   6.437  12.785  1.5840 -0.4603 -0.4598
 9052TIP3   OH248646   0.464   4.175   3.940  0.0775  0.2597  0.3687
 9052TIP3    H148647   0.523   4.115   3.895 -0.0872 -1.7745  2.6229
 9052TIP3    H248648   0.502   4.262   3.927  1.9172 -0.6520 -0.6532
 9053TIP3   OH248649   6.600   3.483  16.265  0.2275 -0.5517 -0.0591
 9053TIP3    H148650   6.624   3.561  16.215  1.8018 -1.0083 -0.0812
 9053TIP3    H248651   6.511   3.500  16.295  0.6381  1.3826  0.2050
 9054TIP3   OH248652   5.562   4.897  14.502  0.2689 -0.0551 -0.1883
 9054TIP3    H148653   5.479   4.945  14.505  0.2260 -0.1538  0.2570
 9054TIP3    H248654   5.591   4.893  14.593  0.4583 -0.5538 -0.2669
 9055TIP3   OH248655   0.527   3.676   3.410 -0.6564 -0.4813 -0.0317
 9055TIP3    H148656   0.462   3.617   3.448 -1.8463  0.2957 -0.8235
 9055TIP3    H248657   0.522   3.755   3.463  1.0844 -1.1074  1.1582
 9056TIP3   OH248658   4.077   3.886  11.184 -0.0098 -0.2149 -0.8433
 9056TIP3    H148659   3.991   3.915  11.154 -0.5464  0.6217  1.3346
 9056TIP3    H248660   4.122   3.856  11.104 -2.0591 -0.0584 -2.1109
 9057TIP3   OH248661   0.104   2.447  11.830 -0.4997  0.1082  0.4005
 9057TIP3    H148662   0.077   2.387  11.899 -1.1097  0.6671  0.6611
 9057TIP3    H248663   0.033   2.511  11.824  0.8358  1.7538  1.2531
 9058TIP3   OH248664   4.119   4.665  11.015 -0.2690 -0.4313 -0.0303
 9058TIP3    H148665   4.066   4.743  11.031  0.7945  0.3271 -0.1172
 9058TIP3    H248666   4.055   4.596  10.995 -1.1839  0.6633 -0.9986
 9059TIP3   OH248667   3.296   3.814   3.927 -0.4527 -0.1633 -0.4307
 9059TIP3    H148668   3.375   3.862   3.951 -1.2105  1.5781 -1.2331
 9059TIP3    H248669   3.237   3.881   3.892 -1.3458 -1.7823 -2.1976
 9060TIP3   OH248670   4.082   0.066  14.947 -0.3123 -0.0570  0.1215
 9060TIP3    H148671   4.175   0.079  14.928 -0.2713 -0.1612  0.2496
 9060TIP3    H248672   4.036   0.123  14.884 -0.2071 -0.9732 -0.8046
 9061TIP3   OH248673   2.231   4.259   0.123  0.4153  0.7518 -0.7723
 9061TIP3    H148674   2.187   4.321   0.065  1.2446  1.0283 -1.1132
 9061TIP3    H248675   2.317   4.247   0.084  0.4101 -0.3054 -0.4812
 9062TIP3   OH248676   0.414   2.190  15.384 -0.2146 -0.4154  0.0553
 9062TIP3    H148677   0.338   2.184  15.441 -0.1368  1.9234  0.5149
 9062TIP3    H248678   0.487   2.156  15.436 -0.5043 -0.2096  0.5973
 9063TIP3   OH248679   5.214   2.834   1.740 -0.0707 -0.0068  0.0919
 9063TIP3    H148680   5.296   2.818   1.693 -0.5722 -0.1788 -0.7541
 9063TIP3    H248681   5.163   2.889   1.680 -0.0371  1.2662  1.1851
 9064TIP3   OH248682   5.571   2.997   1.647 -0.2225 -0.3152 -0.1566
 9064TIP3    H148683   5.613   3.060   1.588 -0.4035 -0.1398 -0.0979
 9064TIP3    H248684   5.629   2.995   1.724 -1.2773  1.3407  0.7407
 9065TIP3   OH248685   5.583   5.839   6.012  0.2560  0.5110  0.5771
 9065TIP3    H148686   5.608   5.924   6.047  0.6076  1.5855 -2.0105
 9065TIP3    H248687   5.514   5.808   6.071  0.3418  2.4377  1.7821
 9066TIP3   OH248688   4.350   6.302  13.964 -0.0175 -0.1746  0.1790
 9066TIP3    H148689   4.443   6.307  13.984 -0.2244 -0.0766  1.2103
 9066TIP3    H248690   4.326   6.210  13.981 -0.0745 -0.2488 -0.2780
 9067TIP3   OH248691   3.365   4.735   0.523 -0.4650 -0.5386  0.4634
 9067TIP3    H148692   3.296   4.766   0.582 -0.8426 -0.0573 -0.2162
 9067TIP3    H248693   3.318   4.696   0.449  0.0054 -1.7124  0.7598
 9068TIP3   OH248694   0.210   1.836   2.800  0.0312 -0.0698  0.5756
 9068TIP3    H148695   0.239   1.924   2.774  2.1855 -1.4071 -2.0229
 9068TIP3    H248696   0.283   1.802   2.852  0.6805 -1.3526 -1.0669
 9069TIP3   OH248697   1.481   1.531   5.366 -0.3963  0.0401  0.2022
 9069TIP3    H148698   1.455   1.442   5.343  0.9230  0.6072 -4.5375
 9069TIP3    H248699   1.562   1.520   5.416 -0.4356 -1.4145 -0.0175
 9070TIP3   OH248700   6.190   2.973   3.541 -0.3341  0.5989 -0.0491
 9070TIP3    H148701   6.144   2.949   3.622  2.0658  0.6873  1.4572
 9070TIP3    H248702   6.258   3.034   3.570  1.1982 -0.0928 -1.9854
 9071TIP3   OH248703   3.084   5.659  12.973 -0.6003 -0.3594 -0.5154
 9071TIP3    H148704   3.001   5.707  12.968 -0.0659  0.9829  1.9979
 9071TIP3    H248705   3.100   5.649  13.067  1.9620 -0.8379 -0.9424
 9072TIP3   OH248706   6.548   4.490   3.466 -0.0710  0.8904  0.0480
 9072TIP3    H148707   6.577   4.399   3.470  0.6181  1.1195  0.3768
 9072TIP3    H248708   6.559   4.523   3.555 -0.3517  1.2851 -0.0604
 9073TIP3   OH248709   5.768   1.246  10.941 -0.7022  0.2330  0.1413
 9073TIP3    H148710   5.823   1.319  10.913  0.3514  0.4629  2.5943
 9073TIP3    H248711   5.729   1.275  11.023 -1.8241 -1.2410  0.1780
 9074TIP3   OH248712   2.858   3.655  13.366 -0.1921 -0.4474 -0.1285
 9074TIP3    H148713   2.882   3.724  13.305 -3.6628  0.8586 -0.2588
 9074TIP3    H248714   2.857   3.575  13.313  0.1073  0.0662 -0.9206
 9075TIP3   OH248715   3.681   0.255   4.670  0.6362 -0.4895  0.4693
 9075TIP3    H148716   3.732   0.301   4.737  1.9816 -0.1235 -0.7440
 9075TIP3    H248717   3.732   0.176   4.650  1.4638  0.4885 -1.6373
 9076TIP3   OH248718   2.839   1.883   2.760  0.1320 -0.2758  0.0230
 9076TIP3    H148719   2.771   1.934   2.805  1.8670  1.9652  0.3153
 9076TIP3    H248720   2.861   1.813   2.822 -1.3368 -0.5922  0.2350
 9077TIP3   OH248721   6.563   2.888   4.061  0.7741  0.0662  0.0101
 9077TIP3    H148722   6.545   2.857   4.150 -0.9881  1.2673  0.1228
 9077TIP3    H248723   6.632   2.953   4.072  0.0807  0.7128  0.6068
 9078TIP3   OH248724   4.066   4.749  16.673  0.1781 -0.4076 -0.0953
 9078TIP3    H148725   4.009   4.702  16.733 -0.5328  0.2474 -0.2351
 9078TIP3    H248726   4.089   4.830  16.719 -2.9078  1.6486 -1.7582
 9079TIP3   OH248727   4.549   0.206  13.059 -0.0148 -0.3484  0.0010
 9079TIP3    H148728   4.593   0.121  13.061  0.2130 -0.2197  0.6843
 9079TIP3    H248729   4.473   0.193  13.002 -0.4845 -1.2517  0.8164
 9080TIP3   OH248730   6.419   0.277   0.321 -0.4589  0.0456  0.2073
 9080TIP3    H148731   6.421   0.240   0.409  1.5580  0.5465  0.4062
 9080TIP3    H248732   6.365   0.356   0.329 -0.7217 -0.1973  0.8666
 9081TIP3   OH248733   0.299   6.708   2.412  0.4133  0.3148 -0.0479
 9081TIP3    H148734   0.354   6.756   2.350  1.2696 -0.1093  0.3692
 9081TIP3    H248735   0.295   6.764   2.489  0.2180  0.3650 -0.0935
 9082TIP3   OH248736   6.555   0.206   5.022 -0.1955  0.2355 -0.3145
 9082TIP3    H148737   6.639   0.251   5.010 -0.9972  1.8079 -0.2595
 9082TIP3    H248738   6.536   0.168   4.937  0.9044 -0.7928 -0.1383
 9083TIP3   OH248739   0.578   3.695   3.129  0.7863  0.1044  0.4173
 9083TIP3    H148740   0.547   3.664   3.214  1.6608 -0.5870  0.5073
 9083TIP3    H248741   0.503   3.686   3.070 -0.0928  1.3837  1.2750
 9084TIP3   OH248742   1.472   6.624  16.334 -0.0789  0.2609 -0.5969
 9084TIP3    H148743   1.424   6.570  16.397  0.8012 -0.0669 -0.1985
 9084TIP3    H248744   1.509   6.562  16.272  2.5988  0.1283  0.9669
 9085TIP3   OH248745   3.031   1.290   1.746  0.4559  0.1733 -0.0130
 9085TIP3    H148746   2.986   1.274   1.663  1.5701 -2.6475 -0.2240
 9085TIP3    H248747   2.962   1.308   1.809 -0.8130 -1.5894 -0.8083
 9086TIP3   OH248748   5.724   5.106  12.787 -0.5621 -0.4591 -0.0902
 9086TIP3    H148749   5.644   5.098  12.736 -0.6483 -1.0316  0.1344
 9086TIP3    H248750   5.712   5.186  12.838 -0.1166  0.6057 -1.5786
 9087TIP3   OH248751   4.713   2.349  15.217  0.2144  0.0516 -0.5190
 9087TIP3    H148752   4.624   2.335  15.250  1.3879 -2.4241  2.0312
 9087TIP3    H248753   4.706   2.335  15.122 -2.2551  1.1314 -0.5691
 9088TIP3   OH248754   1.877   2.725  15.857 -0.0259 -1.0917  0.4654
 9088TIP3    H148755   1.925   2.675  15.923 -0.9046 -0.1415  1.8737
 9088TIP3    H248756   1.839   2.658  15.799  1.3627 -1.9154  0.4534
 9089TIP3   OH248757   5.511   2.378   3.175 -0.0472 -0.2113 -0.1221
 9089TIP3    H148758   5.514   2.473   3.189 -0.1018 -0.0776 -0.9349
 9089TIP3    H248759   5.448   2.346   3.239  0.6168  0.1842  0.7439
 9090TIP3   OH248760   0.810   5.315   5.379  0.8771  0.4027  0.1947
 9090TIP3    H148761   0.744   5.254   5.411  0.2864 -0.3482 -2.2777
 9090TIP3    H248762   0.872   5.323   5.452 -0.6589 -0.7145  1.7032
 9091TIP3   OH248763   6.166   4.635  12.831 -0.0617 -0.2128 -0.4949
 9091TIP3    H148764   6.222   4.618  12.906  0.4374 -2.2543 -1.2737
 9091TIP3    H248765   6.155   4.731  12.831  0.9055 -0.0487  1.4305
 9092TIP3   OH248766   3.477   3.705  15.115 -0.0406  0.2127  0.7291
 9092TIP3    H148767   3.486   3.666  15.028  1.9592 -2.5651  2.0046
 9092TIP3    H248768   3.447   3.795  15.099  1.5669  0.2723 -2.8951
 9093TIP3   OH248769   1.827   5.588   1.303 -0.2255  0.2366  0.0633
 9093TIP3    H148770   1.849   5.595   1.396  0.4430  0.5830 -0.1190
 9093TIP3    H248771   1.897   5.634   1.258  1.1208 -2.4331 -0.8163
 9094TIP3   OH248772   3.790   2.753  14.905 -0.5470 -0.0078 -0.6529
 9094TIP3    H148773   3.720   2.735  14.968 -0.1140 -0.5987 -0.3313
 9094TIP3    H248774   3.745   2.793  14.830 -1.1547  0.0951 -0.2433
 9095TIP3   OH248775   6.414   1.136   2.754 -0.4622  0.3243 -0.1907
 9095TIP3    H148776   6.499   1.099   2.731 -1.3665 -0.7457 -1.9779
 9095TIP3    H248777   6.427   1.174   2.841  2.1629  1.3159 -0.9291
 9096TIP3   OH248778   1.379   1.392   4.282  0.0697  0.2354  1.1139
 9096TIP3    H148779   1.413   1.304   4.298  2.5129  0.6888 -0.9216
 9096TIP3    H248780   1.416   1.417   4.198 -3.0804  2.0758  0.1270
 9097TIP3   OH248781   1.879   0.390  16.110  0.9338  0.2045 -0.0867
 9097TIP3    H148782   1.873   0.295  16.105 -1.8922  0.3049 -0.2367
 9097TIP3    H248783   1.855   0.421  16.023  1.0033  1.0768  0.1899
 9098TIP3   OH248784   5.796   6.288  15.924  0.2207  0.0023 -0.3525
 9098TIP3    H148785   5.860   6.339  15.973 -0.2218 -1.1584  1.5522
 9098TIP3    H248786   5.833   6.199  15.922 -0.8688 -0.4723 -0.0724
 9099TIP3   OH248787   0.593   5.890   0.536  0.5713  0.1539  0.0261
 9099TIP3    H148788   0.567   5.966   0.588  1.4439  1.1103 -0.8746
 9099TIP3    H248789   0.561   5.910   0.448  0.7015 -0.5815 -0.1937
 9100TIP3   OH248790   0.045   0.086  12.667  0.1932  0.2056 -0.0153
 9100TIP3    H148791   0.052   0.178  12.641 -0.2118  0.8978  2.1400
 9100TIP3    H248792  -0.002   0.088  12.750 -1.7334 -2.1471 -0.9271
 9101TIP3   OH248793   0.439   6.346   2.873 -0.1747  0.3483 -0.2706
 9101TIP3    H148794   0.390   6.269   2.844  0.2194  0.5124 -1.4182
 9101TIP3    H248795   0.478   6.320   2.956  0.7523 -1.0347 -1.1063
 9102TIP3   OH248796   2.368   3.575  15.589 -0.6351  0.4240  0.6226
 9102TIP3    H148797   2.358   3.607  15.499  0.5551 -1.3516 -0.2218
 9102TIP3    H248798   2.366   3.653  15.643  0.3241  1.7353 -1.1226
 9103TIP3   OH248799   2.030   0.493  14.725 -0.3319 -0.0300  0.0169
 9103TIP3    H148800   1.943   0.530  14.711 -0.3872 -0.4140 -0.7209
 9103TIP3    H248801   2.084   0.533  14.657  0.9039  2.7493  2.4364
 9104TIP3   OH248802   4.249   1.770  12.880  0.6258 -0.3577 -0.3020
 9104TIP3    H148803   4.224   1.807  12.795  2.3713  0.2980 -0.5805
 9104TIP3    H248804   4.260   1.847  12.937  2.1972 -0.5532 -0.2925
 9105TIP3   OH248805   0.196   0.173   6.528 -0.2229 -0.4290  0.7158
 9105TIP3    H148806   0.157   0.244   6.579  0.4253 -0.0092  0.6396
 9105TIP3    H248807   0.212   0.212   6.442  1.5765 -0.1711  1.1287
 9106TIP3   OH248808   3.209   3.556  16.981  0.1849 -0.2543 -0.2453
 9106TIP3    H148809   3.214   3.609  17.060  2.8434 -2.8993  1.5815
 9106TIP3    H248810   3.263   3.603  16.917  1.5689 -0.1420  0.9535
 9107TIP3   OH248811   1.788   3.521  15.437 -0.0271  0.6698 -0.3637
 9107TIP3    H148812   1.712   3.579  15.439 -0.0505  0.6195  0.1342
 9107TIP3    H248813   1.844   3.551  15.508 -0.4575 -0.4739  0.4917
 9108TIP3   OH248814   2.010   5.323  15.547  0.2452 -0.6203 -0.1181
 9108TIP3    H148815   1.949   5.343  15.619  0.1331 -2.9460  0.5164
 9108TIP3    H248816   1.964   5.352  15.468 -0.0798  1.0251  0.6280
 9109TIP3   OH248817   2.636   4.994   3.315 -0.0270  0.4156 -0.4712
 9109TIP3    H148818   2.677   5.080   3.325  1.6594 -0.2466 -1.3495
 9109TIP3    H248819   2.598   4.994   3.228 -0.9973  0.6382 -0.0628
 9110TIP3   OH248820   5.541   2.660   3.177  0.6474 -0.1293  0.3086
 9110TIP3    H148821   5.579   2.671   3.090  1.4901 -0.7518  0.5805
 9110TIP3    H248822   5.452   2.695   3.170  0.4036 -0.9654 -1.0323
 9111TIP3   OH248823   4.495   6.112  12.158 -0.1364 -0.4520  0.4076
 9111TIP3    H148824   4.461   6.023  12.151 -0.0816 -0.3650 -1.4654
 9111TIP3    H248825   4.479   6.150  12.072  0.5101  1.1183  0.9513
 9112TIP3   OH248826   1.028   3.901  16.984  0.2033 -0.2602 -0.7486
 9112TIP3    H148827   0.962   3.961  17.018  1.7640 -0.0970  2.2436
 9112TIP3    H248828   1.104   3.956  16.965  0.8954 -0.9752 -0.1136
 9113TIP3   OH248829   2.641   2.303  16.311  0.0776 -0.1428  0.2155
 9113TIP3    H148830   2.671   2.263  16.393 -1.8890  1.6023  1.9143
 9113TIP3    H248831   2.637   2.231  16.249  2.7485 -1.3258  1.2799
 9114TIP3   OH248832   6.099   0.243   4.220 -1.3208 -0.7476  0.0794
 9114TIP3    H148833   6.184   0.220   4.256 -1.9507 -1.2184  1.3347
 9114TIP3    H248834   6.113   0.245   4.125  0.2064 -0.2290  0.2913
 9115TIP3   OH248835   0.753   3.575  11.933 -0.1057  0.5096  0.1614
 9115TIP3    H148836   0.799   3.659  11.939  1.2377 -0.0770 -1.2773
 9115TIP3    H248837   0.807   3.522  11.874 -2.0419 -0.6324 -0.6835
 9116TIP3   OH248838   3.830   2.381   0.376  0.4621  0.6445  0.1078
 9116TIP3    H148839   3.858   2.341   0.294 -1.3739  1.2486 -0.8764
 9116TIP3    H248840   3.842   2.312   0.442  0.4386 -0.4111 -0.9598
 9117TIP3   OH248841   0.916   0.404  13.566  0.1429  0.6593  0.1678
 9117TIP3    H148842   0.850   0.462  13.528 -1.0218 -0.7249  0.0002
 9117TIP3    H248843   0.965   0.370  13.491 -0.3214  0.0889  0.1189
 9118TIP3   OH248844   4.991   0.946  16.702  0.5027  0.2244 -0.5292
 9118TIP3    H148845   5.026   1.027  16.739 -0.1666  0.0020  0.6381
 9118TIP3    H248846   5.014   0.878  16.766 -0.4877 -0.2106 -0.6211
 9119TIP3   OH248847   6.479   4.257   1.664 -0.3287 -0.1439 -0.2816
 9119TIP3    H148848   6.489   4.198   1.589  0.8321 -0.9715  0.4961
 9119TIP3    H248849   6.560   4.247   1.714 -1.5410 -0.5206  1.7370
 9120TIP3   OH248850   6.339   0.498   5.374  0.3241  0.6514 -0.4180
 9120TIP3    H148851   6.420   0.449   5.385  1.5325  2.9588  2.2088
 9120TIP3    H248852   6.295   0.490   5.459 -2.1815 -0.3357 -1.7002
 9121TIP3   OH248853   3.434   6.296   0.431 -0.4795  0.5660  0.3376
 9121TIP3    H148854   3.413   6.234   0.500  0.5754 -0.7223 -0.4565
 9121TIP3    H248855   3.451   6.242   0.354  0.1712  1.8507 -0.4576
 9122TIP3   OH248856   6.415   1.686  13.166 -0.6384 -0.2049  0.3936
 9122TIP3    H148857   6.485   1.682  13.231 -0.2219 -2.4041 -0.1194
 9122TIP3    H248858   6.373   1.600  13.170 -1.4094  0.0339 -1.3857
 9123TIP3   OH248859   0.098   1.486  14.089 -0.4155 -0.3397  0.4311
 9123TIP3    H148860   0.096   1.393  14.068 -0.7183 -0.3454  0.4684
 9123TIP3    H248861   0.066   1.491  14.179  3.1040 -0.5419  1.8273
 9124TIP3   OH248862   0.318   3.744  12.466 -0.1048  0.0914 -0.1223
 9124TIP3    H148863   0.230   3.729  12.499 -0.9328 -0.1377 -2.3144
 9124TIP3    H248864   0.362   3.660  12.475 -0.9104 -0.4748 -1.2645
 9125TIP3   OH248865   4.759   0.070  14.640 -0.2027  0.2283 -0.0959
 9125TIP3    H148866   4.724   0.115  14.563 -0.1985 -1.2535 -0.9826
 9125TIP3    H248867   4.793  -0.013  14.607  2.2319  0.6747  1.0809
 9126TIP3   OH248868   5.788   5.063  11.400  0.1421 -0.1743  0.6278
 9126TIP3    H148869   5.755   5.004  11.469 -1.1887  0.3343  0.4485
 9126TIP3    H248870   5.709   5.100  11.360  0.9010 -0.1084 -0.8788
 9127TIP3   OH248871   4.104   3.720  15.368  0.0040 -0.2002 -0.3726
 9127TIP3    H148872   4.120   3.630  15.341  1.1075 -0.3596  0.7768
 9127TIP3    H248873   4.162   3.735  15.443  0.6606  1.8095 -1.1956
 9128TIP3   OH248874   5.878   4.562  15.312 -0.1834 -0.0234  0.1839
 9128TIP3    H148875   5.920   4.517  15.239  0.6015  1.9614 -0.6581
 9128TIP3    H248876   5.945   4.569  15.379 -0.0711  0.5214  0.0196
 9129TIP3   OH248877   5.192   2.569  13.016 -0.5460  0.3154  0.2672
 9129TIP3    H148878   5.231   2.514  12.948  1.1950  2.9391 -1.0081
 9129TIP3    H248879   5.246   2.554  13.094 -0.1756  0.1481 -0.0206
 9130TIP3   OH248880   2.164   4.301  10.808 -0.5690  0.0502 -0.4036
 9130TIP3    H148881   2.231   4.358  10.772 -0.2809 -0.1108 -0.1289
 9130TIP3    H248882   2.179   4.217  10.765 -2.7010  0.7996 -2.9222
 9131TIP3   OH248883   1.412   1.149   2.105 -0.9735  0.5738 -0.1455
 9131TIP3    H148884   1.436   1.165   2.197 -2.2187  1.3570  0.0619
 9131TIP3    H248885   1.496   1.137   2.061 -0.2574  1.8323  0.8050
 9132TIP3   OH248886   1.453   2.242   1.487 -0.1825  0.1381  0.0647
 9132TIP3    H148887   1.429   2.232   1.395 -0.7383  2.2807 -0.0904
 9132TIP3    H248888   1.399   2.315   1.518  0.5226 -0.0627  1.8911
 9133TIP3   OH248889   2.403   1.747  14.568  0.5644  0.2634  0.2177
 9133TIP3    H148890   2.359   1.792  14.640 -2.9186  0.3816 -1.7357
 9133TIP3    H248891   2.441   1.817  14.515  0.3049  0.4527  0.2781
 9134TIP3   OH248892   3.391   6.562   3.569  0.3742 -0.2563  0.4305
 9134TIP3    H148893   3.378   6.611   3.650  1.3224 -1.4507  1.3463
 9134TIP3    H248894   3.414   6.628   3.504  1.9685  0.5339  1.7154
 9135TIP3   OH248895   1.224   2.502   4.147 -0.2998  0.5482  0.5108
 9135TIP3    H148896   1.249   2.594   4.144  2.2984 -0.0810 -1.6418
 9135TIP3    H248897   1.245   2.474   4.236  2.1408  1.3306  0.2561
 9136TIP3   OH248898   2.304   6.678   6.568 -0.3298  0.5808 -0.6980
 9136TIP3    H148899   2.236   6.736   6.534 -1.3952 -0.3229 -0.1645
 9136TIP3    H248900   2.259   6.623   6.631  1.2097  0.9912  0.8467
 9137TIP3   OH248901   1.218   5.625  12.466 -0.0510 -0.2968  0.2923
 9137TIP3    H148902   1.139   5.573  12.481 -1.0799  0.9398 -0.6180
 9137TIP3    H248903   1.290   5.562  12.470 -0.9661 -1.2836  2.1755
 9138TIP3   OH248904   6.090   2.679  12.241 -0.0597  0.2536  0.3729
 9138TIP3    H148905   6.147   2.728  12.181  0.1028 -0.7975 -0.3505
 9138TIP3    H248906   6.129   2.694  12.328 -0.1232  1.5441  0.2017
 9139TIP3   OH248907   5.386   3.095   2.987  0.0409 -0.2325  0.4047
 9139TIP3    H148908   5.450   3.093   2.915 -0.0484 -1.2149  0.3362
 9139TIP3    H248909   5.368   3.003   3.005 -1.0532  0.0231  0.6944
 9140TIP3   OH248910   0.910   0.372   3.505 -0.3179  0.4596 -0.0329
 9140TIP3    H148911   0.925   0.323   3.586 -2.0907  0.4035  0.3046
 9140TIP3    H248912   0.953   0.320   3.437 -2.6404 -2.0075  0.2102
 9141TIP3   OH248913   2.610   2.438   4.708 -0.6200  0.1539  0.2461
 9141TIP3    H148914   2.541   2.372   4.707 -0.1308 -0.4190  1.8699
 9141TIP3    H248915   2.674   2.406   4.643 -1.8151  0.6879 -1.2565
 9142TIP3   OH248916   2.079   4.293   1.644  0.2720 -0.1407  0.3698
 9142TIP3    H148917   2.122   4.361   1.593  0.7262  0.6514  1.7403
 9142TIP3    H248918   1.991   4.326   1.660  0.3316 -0.0990  0.6195
 9143TIP3   OH248919   4.459   0.692  11.369  0.0772  0.3356  0.1208
 9143TIP3    H148920   4.477   0.784  11.384 -0.4953  0.3686  0.6322
 9143TIP3    H248921   4.544   0.655  11.344  0.2107  1.0899 -0.5905
 9144TIP3   OH248922   0.686   1.257   4.383 -0.2968  0.1552  0.4980
 9144TIP3    H148923   0.606   1.213   4.412 -0.8397 -0.3670 -1.6349
 9144TIP3    H248924   0.749   1.242   4.454 -2.3079  1.4411  2.7198
 9145TIP3   OH248925   6.698   1.683  13.245 -0.4249 -0.5404  0.0551
 9145TIP3    H148926   6.706   1.629  13.323  2.6454 -2.6207 -1.5081
 9145TIP3    H248927   6.740   1.766  13.269  1.1556 -1.4204  0.4147
 9146TIP3   OH248928   2.911   5.649   4.024  0.4831  0.4648  0.3142
 9146TIP3    H148929   2.837   5.709   4.029 -0.3500 -0.5687  0.7686
 9146TIP3    H248930   2.946   5.661   3.935 -1.0280  0.0610 -0.3589
 9147TIP3   OH248931   6.345   3.869   0.982 -0.4263 -0.0790 -0.4919
 9147TIP3    H148932   6.435   3.899   0.984 -0.4918  0.0725  0.3720
 9147TIP3    H248933   6.308   3.909   0.903 -0.1486  1.0289 -0.0693
 9148TIP3   OH248934   6.609   4.933   4.938 -0.0257  0.0540 -0.5353
 9148TIP3    H148935   6.565   5.010   4.900 -0.9751  0.0681  0.5254
 9148TIP3    H248936   6.539   4.885   4.982  1.1599  0.7807  2.4139
 9149TIP3   OH248937   4.881   3.857   5.754 -0.4771 -0.7164  0.2868
 9149TIP3    H148938   4.838   3.878   5.837 -1.2587 -1.3158  0.0375
 9149TIP3    H248939   4.813   3.870   5.687  0.0147 -0.6834 -0.2149
 9150TIP3   OH248940   1.719   2.962  15.871 -0.0829 -0.5061 -0.1788
 9150TIP3    H148941   1.737   3.001  15.956  0.1268 -0.9813 -0.0091
 9150TIP3    H248942   1.769   2.881  15.869  0.0513 -0.4139 -0.8227
 9151TIP3   OH248943   1.768   5.993  15.280  0.0536 -0.3229 -0.1566
 9151TIP3    H148944   1.776   6.036  15.195 -0.2566 -0.7825 -0.4261
 9151TIP3    H248945   1.674   5.980  15.292  0.1083 -0.4512  0.1589
 9152TIP3   OH248946   2.607   1.459  15.346  0.1652 -0.2077  0.3159
 9152TIP3    H148947   2.646   1.413  15.420 -0.2298 -0.2878  0.4782
 9152TIP3    H248948   2.533   1.507  15.385  0.7928  0.8584  0.2186
 9153TIP3   OH248949   3.256   0.394   2.164  0.6013  0.5095  0.0692
 9153TIP3    H148950   3.298   0.474   2.195  0.8097  0.0957  0.8705
 9153TIP3    H248951   3.311   0.366   2.090  0.9772  0.6859  0.2763
 9154TIP3   OH248952   4.955   1.324  12.910  0.1541 -0.8317 -0.4632
 9154TIP3    H148953   5.027   1.314  12.972 -1.3860  0.8055  1.7140
 9154TIP3    H248954   4.896   1.252  12.931 -1.0871  0.5755  1.1002
 9155TIP3   OH248955   2.678   5.509  10.912  0.1860  0.1987 -0.4351
 9155TIP3    H148956   2.770   5.529  10.932  0.1904  1.5564 -1.6530
 9155TIP3    H248957   2.677   5.491  10.818 -0.9701  1.4061 -0.6816
 9156TIP3   OH248958   1.747   1.478   2.681 -0.0856  0.6818 -0.1525
 9156TIP3    H148959   1.677   1.470   2.746  0.8067 -1.7699  0.6494
 9156TIP3    H248960   1.826   1.454   2.729  1.1366  2.1776 -1.3495
 9157TIP3   OH248961   0.918   3.036  12.299 -0.4386 -0.1016  0.2413
 9157TIP3    H148962   0.914   3.080  12.384  0.3191 -2.0271  1.3291
 9157TIP3    H248963   1.011   3.026  12.280 -0.5970 -0.2442 -0.5101
 9158TIP3   OH248964   0.408   4.667   3.970  0.0812 -0.3034  0.0528
 9158TIP3    H148965   0.371   4.580   3.985 -1.2299 -0.1085 -1.7673
 9158TIP3    H248966   0.408   4.708   4.056 -2.9725 -0.7260  0.3716
 9159TIP3   OH248967   3.026   2.146   3.503 -0.1537 -0.1158 -0.5145
 9159TIP3    H148968   3.070   2.095   3.571  1.2338  1.1363 -0.4141
 9159TIP3    H248969   3.021   2.087   3.428  1.2012 -0.5126 -0.3259
 9160TIP3   OH248970   0.379   5.095   6.019  0.2190 -0.3907  0.6439
 9160TIP3    H148971   0.472   5.115   6.032  0.0936  1.3235 -0.8140
 9160TIP3    H248972   0.350   5.157   5.953 -2.3998  0.2555  2.2725
 9161TIP3   OH248973   1.732   6.209  16.594 -0.1101 -0.1167  0.1569
 9161TIP3    H148974   1.820   6.199  16.631  1.3890 -0.0962 -3.0331
 9161TIP3    H248975   1.739   6.287  16.538 -2.4429  0.3814  0.4823
 9162TIP3   OH248976   0.310   1.394   4.455  0.2011 -0.4379  0.4669
 9162TIP3    H148977   0.312   1.456   4.382  1.1040 -2.0472 -0.9382
 9162TIP3    H248978   0.387   1.416   4.507  1.0256 -0.9245 -0.5201
 9163TIP3   OH248979   4.616   5.660  16.274  0.1692 -0.7672 -0.3772
 9163TIP3    H148980   4.654   5.618  16.351  0.5476 -0.6615 -0.5029
 9163TIP3    H248981   4.523   5.637  16.278  0.2933 -1.2701 -0.2206
 9164TIP3   OH248982   5.111   0.209   3.068  0.0982 -0.5953  0.1824
 9164TIP3    H148983   5.146   0.295   3.088  2.1605 -1.1603 -0.7189
 9164TIP3    H248984   5.026   0.227   3.027 -0.0232  0.9235  1.0170
 9165TIP3   OH248985   0.469   4.441  11.862  0.8837 -0.1269 -0.0575
 9165TIP3    H148986   0.494   4.369  11.804  1.4102 -1.2833  1.5393
 9165TIP3    H248987   0.378   4.423  11.885  0.8443  0.0295 -0.0878
 9166TIP3   OH248988   4.715   1.209   1.852 -0.1009  0.1810 -0.4397
 9166TIP3    H148989   4.777   1.150   1.809 -0.1519  0.2066 -0.5469
 9166TIP3    H248990   4.762   1.241   1.929 -0.4333 -0.8267  0.2153
 9167TIP3   OH248991   1.847   1.042  10.915  0.4921 -0.1689  0.4178
 9167TIP3    H148992   1.913   1.095  10.869  1.0833  0.2687  1.6973
 9167TIP3    H248993   1.785   1.016  10.848  1.3264  0.4318 -0.6140
 9168TIP3   OH248994   5.152   1.865   3.374  0.4887  0.3957 -0.2543
 9168TIP3    H148995   5.177   1.819   3.454 -0.0543  0.3836 -0.0930
 9168TIP3    H248996   5.066   1.902   3.393  0.8485  1.3541 -0.4357
 9169TIP3   OH248997   6.601   1.305   2.140  0.3316 -0.3058 -0.4763
 9169TIP3    H148998   6.530   1.261   2.093 -0.9204 -1.3258  2.1282
 9169TIP3    H248999   6.558   1.379   2.185  0.5717 -1.5450  1.9894
 9170TIP3   OH249000   6.648   1.200  13.028 -0.3331 -0.2179 -0.6390
 9170TIP3    H149001   6.670   1.123  13.081 -0.4051  1.0079  1.3014
 9170TIP3    H249002   6.733   1.238  13.006 -0.3054  0.6727  0.8623
 9171TIP3   OH249003   2.718   5.175  14.863  0.1537  0.2481  0.3386
 9171TIP3    H149004   2.652   5.198  14.928 -0.6791  0.1201 -0.4398
 9171TIP3    H249005   2.668   5.145  14.788  1.1249 -1.1776  0.2117
 9172TIP3   OH249006   2.273   3.351  11.418  0.2657 -0.6522 -0.2222
 9172TIP3    H149007   2.215   3.303  11.475  0.9000 -0.0299  0.9822
 9172TIP3    H249008   2.223   3.429  11.392  0.5381 -0.1278  0.7943
 9173TIP3   OH249009   0.465   3.022   3.275  0.0645 -0.6234 -0.1853
 9173TIP3    H149010   0.550   2.979   3.285  0.0228 -0.8600 -0.7935
 9173TIP3    H249011   0.487   3.114   3.259  0.4065 -1.1136 -3.3822
 9174TIP3   OH249012   1.328   3.614   0.932  0.3849  0.5620  0.6764
 9174TIP3    H149013   1.327   3.598   1.027  2.5723 -0.1111  0.6348
 9174TIP3    H249014   1.375   3.540   0.896 -2.0307 -0.1639 -1.2054
 9175TIP3   OH249015   3.949   2.101   6.051 -0.1008  0.2523 -0.2465
 9175TIP3    H149016   3.964   2.018   6.007  0.0614  0.6102 -0.8722
 9175TIP3    H249017   3.927   2.077   6.141 -1.0590 -0.5166 -0.6724
 9176TIP3   OH249018   6.699   2.403   4.229  0.4178 -0.0451 -0.0601
 9176TIP3    H149019   6.697   2.322   4.281 -0.4378 -0.9001 -1.3528
 9176TIP3    H249020   6.623   2.452   4.259 -0.5426 -0.8988 -0.9970
 9177TIP3   OH249021   5.300   4.922  13.571  0.0737 -0.1964  0.5677
 9177TIP3    H149022   5.226   4.862  13.563 -0.2578  0.4199 -2.4988
 9177TIP3    H249023   5.369   4.883  13.518  0.7991  0.7991  0.7382
 9178TIP3   OH249024   4.466   6.669  16.864 -0.0738  0.1149 -0.2419
 9178TIP3    H149025   4.457   6.598  16.927 -1.4057  0.4040 -0.0809
 9178TIP3    H249026   4.515   6.737  16.911 -0.6506  0.1402  0.3284
 9179TIP3   OH249027   1.850   1.943  16.748  0.2042 -0.4512 -0.0360
 9179TIP3    H149028   1.931   1.993  16.756 -0.7722  1.0077  1.9234
 9179TIP3    H249029   1.789   2.004  16.706 -0.4383 -0.7124  0.4932
 9180TIP3   OH249030   1.979   0.347   2.969 -0.3513 -0.0964  0.9882
 9180TIP3    H149031   2.028   0.265   2.976 -1.5611 -0.8855  0.4214
 9180TIP3    H249032   1.956   0.369   3.059  1.6267  0.6911  1.3588
 9181TIP3   OH249033   2.586   4.945   5.515 -0.2742 -0.1531 -0.2197
 9181TIP3    H149034   2.525   4.955   5.589 -0.2507  0.5097 -0.2860
 9181TIP3    H249035   2.672   4.960   5.553 -0.2307 -0.1826 -0.3068
 9182TIP3   OH249036   4.765   5.945   4.631  0.6240  0.0196  0.1945
 9182TIP3    H149037   4.743   6.017   4.690  0.1346  1.2794 -1.4538
 9182TIP3    H249038   4.860   5.935   4.641  0.8861  1.6528 -0.3304
 9183TIP3   OH249039   3.999   1.540   1.704  0.1412  0.0987 -0.0401
 9183TIP3    H149040   4.067   1.542   1.637  1.7611  0.7872  1.5263
 9183TIP3    H249041   3.968   1.449   1.704  2.0412 -0.5962  0.0941
 9184TIP3   OH249042   3.103   2.290   5.139  0.3619  0.3481 -0.1770
 9184TIP3    H149043   3.023   2.282   5.088  1.3926 -0.0255 -1.8164
 9184TIP3    H249044   3.103   2.215   5.197 -0.6704  0.5876  0.1511
 9185TIP3   OH249045   4.538   2.557   5.426 -0.1475  0.7242  0.3403
 9185TIP3    H149046   4.466   2.589   5.480 -1.4102 -0.0120 -0.8217
 9185TIP3    H249047   4.569   2.479   5.471 -1.0083  0.2710  0.1774
 9186TIP3   OH249048   0.655   4.426   3.847 -0.1723 -0.4442  0.2238
 9186TIP3    H149049   0.599   4.412   3.771  1.6075 -0.9429 -1.0668
 9186TIP3    H249050   0.661   4.521   3.856  1.3715 -0.2813 -1.7307
 9187TIP3   OH249051   2.218   3.306  10.008 -0.1768 -0.0781 -0.0920
 9187TIP3    H149052   2.215   3.306   9.913 -2.8213  1.1627 -0.0923
 9187TIP3    H249053   2.139   3.259  10.035 -0.2693  0.8939  1.4566
 9188TIP3   OH249054   3.472   3.070  14.890  0.0871  0.3428 -0.6783
 9188TIP3    H149055   3.437   3.034  14.808  0.8011 -3.6757  0.5845
 9188TIP3    H249056   3.447   3.006  14.957  3.0847  1.3308  1.5796
 9189TIP3   OH249057   3.870   3.507  16.166 -0.2325 -0.2000 -0.3699
 9189TIP3    H149058   3.880   3.574  16.099  2.7310  0.3383  0.4785
 9189TIP3    H249059   3.854   3.556  16.247 -0.1626 -0.6504 -0.0775
 9190TIP3   OH249060   1.841   2.560  12.083 -0.2283  0.7451 -0.2857
 9190TIP3    H149061   1.813   2.583  12.172 -1.0404  1.3126 -0.6729
 9190TIP3    H249062   1.801   2.627  12.027  2.2165  1.8423 -0.8567
 9191TIP3   OH249063   5.020   4.429  16.865  0.7169 -0.0326 -0.3963
 9191TIP3    H149064   5.102   4.424  16.913  0.7277 -0.0570 -0.4179
 9191TIP3    H249065   5.029   4.508  16.811 -0.7783  2.2376  2.4158
 9192TIP3   OH249066   6.179   2.499   2.677  0.6633  0.0643  0.6486
 9192TIP3    H149067   6.127   2.541   2.745  0.9251  3.5383 -1.0903
 9192TIP3    H249068   6.117   2.445   2.629 -0.2309  0.2119  1.6111
 9193TIP3   OH249069   2.556   3.861  14.141 -0.3868  0.3139  0.0244
 9193TIP3    H149070   2.565   3.863  14.046 -0.2134  1.3938  0.0550
 9193TIP3    H249071   2.646   3.855  14.174 -0.3641  1.1662  0.1367
 9194TIP3   OH249072   3.242   1.248  16.772  0.0449 -0.3905 -0.2916
 9194TIP3    H149073   3.186   1.304  16.826  1.5119  0.4876  0.3628
 9194TIP3    H249074   3.180   1.195  16.721 -1.3872 -0.1962  1.1580
 9195TIP3   OH249075   4.857   6.777   4.531  0.1612 -0.1004  0.1248
 9195TIP3    H149076   4.856   6.741   4.442 -0.9707  0.7231 -0.2125
 9195TIP3    H249077   4.797   6.721   4.580 -0.4953  0.4373 -0.0497
 9196TIP3   OH249078   3.392   1.958  14.727 -0.2504 -0.4182  0.7353
 9196TIP3    H149079   3.349   1.932  14.645 -1.4643 -1.9882  1.8187
 9196TIP3    H249080   3.349   2.040  14.751  0.3856  0.2632 -0.3710
 9197TIP3   OH249081   1.976   3.094   6.251  0.1178  0.7585  0.6428
 9197TIP3    H149082   1.928   3.131   6.325  0.0591 -0.2131  1.1108
 9197TIP3    H249083   1.918   3.025   6.217  1.3314 -0.7763  1.5173
 9198TIP3   OH249084   2.666   3.294  11.562  0.6127 -0.3777 -0.3387
 9198TIP3    H149085   2.732   3.312  11.629  1.2176 -1.1149 -0.7289
 9198TIP3    H249086   2.705   3.227  11.506 -0.4396 -0.7851 -0.6161
 9199TIP3   OH249087   3.135   4.043   1.808 -0.5392 -0.1763  0.0050
 9199TIP3    H149088   3.097   3.992   1.879  0.0308  0.9001  1.1207
 9199TIP3    H249089   3.063   4.055   1.746 -0.8602 -1.6978  0.0576
 9200TIP3   OH249090   1.155   1.213  15.670 -0.2275  0.5618  0.3045
 9200TIP3    H149091   1.099   1.238  15.596  0.9205  0.8000 -0.5182
 9200TIP3    H249092   1.148   1.118  15.674 -0.2830  0.5451 -0.1356
 9201TIP3   OH249093   2.913   4.371   5.184  0.0986  0.3075 -0.4536
 9201TIP3    H149094   2.955   4.455   5.165 -1.7896  2.1173  2.5599
 9201TIP3    H249095   2.840   4.367   5.122  1.6239 -0.4658 -2.3213
 9202TIP3   OH249096   5.285   4.494  13.763  0.4599 -0.1576  0.1953
 9202TIP3    H149097   5.261   4.579  13.727 -1.2635 -1.9609 -3.3960
 9202TIP3    H249098   5.243   4.492  13.849 -1.2270  1.8579 -0.4839
 9203TIP3   OH249099   5.340   2.385   0.141  0.8931 -0.1655  0.0404
 9203TIP3    H149100   5.292   2.314   0.184 -3.5364  1.6145 -1.4007
 9203TIP3    H249101   5.328   2.461   0.199 -0.3609  0.9180 -1.5497
 9204TIP3   OH249102   0.365   2.412   2.093  0.1641 -0.5867 -0.4786
 9204TIP3    H149103   0.377   2.484   2.153  0.1304 -1.7630  0.9935
 9204TIP3    H249104   0.304   2.353   2.137  0.5294 -1.7302 -1.4338
 9205TIP3   OH249105   3.547   1.198   3.114 -0.6930 -0.0450 -0.2769
 9205TIP3    H149106   3.559   1.205   3.208  0.5066  0.0336 -0.4125
 9205TIP3    H249107   3.622   1.245   3.077 -0.3273 -1.3488 -1.2630
 9206TIP3   OH249108   0.994   2.211  14.960 -0.2639 -0.2948 -0.1221
 9206TIP3    H149109   0.963   2.125  14.985  2.0731 -1.1647  0.0864
 9206TIP3    H249110   1.086   2.212  14.987 -0.1606  2.1941 -0.3120
 9207TIP3   OH249111   0.883   3.221   3.242  0.1283 -0.0277 -0.1961
 9207TIP3    H149112   0.900   3.248   3.332  2.8596  0.5722 -0.7809
 9207TIP3    H249113   0.800   3.174   3.245 -0.1842  0.5782  2.4913
 9208TIP3   OH249114   6.568   0.886   3.848 -0.8186  0.2089 -0.2245
 9208TIP3    H149115   6.555   0.797   3.880 -0.5056 -0.2935 -1.4596
 9208TIP3    H249116   6.516   0.891   3.768  1.3148  0.2317 -1.7001
 9209TIP3   OH249117   2.258   2.406  12.574 -0.1268  0.2537 -0.2945
 9209TIP3    H149118   2.230   2.346  12.505 -1.1130 -0.3871  0.6259
 9209TIP3    H249119   2.332   2.453  12.537  0.0306 -0.8260 -1.4012
 9210TIP3   OH249120   4.773   3.365  14.441 -0.1170 -0.1282 -0.5441
 9210TIP3    H149121   4.764   3.428  14.370  1.4280  0.8570  0.0944
 9210TIP3    H249122   4.836   3.404  14.502 -1.4098 -0.9044  1.4207
 9211TIP3   OH249123   6.418   0.884   0.793 -0.4689  0.0955 -0.5311
 9211TIP3    H149124   6.463   0.857   0.873 -1.6245  0.4013  0.2407
 9211TIP3    H249125   6.483   0.937   0.747  0.1357  0.1400  0.3342
 9212TIP3   OH249126   4.245   1.024   4.296  0.6194 -0.3882 -0.4937
 9212TIP3    H149127   4.254   1.115   4.268 -1.1752 -0.1124 -0.3247
 9212TIP3    H249128   4.154   1.018   4.326  1.3226 -1.6638  1.5982
 9213TIP3   OH249129   6.010   4.552   3.598 -0.5675  0.2725  0.3897
 9213TIP3    H149130   5.960   4.576   3.676  2.3266  1.1109  2.1324
 9213TIP3    H249131   6.056   4.631   3.573  2.5079 -1.1987  0.9837
 9214TIP3   OH249132   0.946   4.712   5.954 -0.7159 -0.0498  0.1228
 9214TIP3    H149133   1.038   4.724   5.931 -0.9371 -0.1346 -0.8365
 9214TIP3    H249134   0.914   4.800   5.974  0.1308 -0.2368  2.7928
 9215TIP3   OH249135   3.757   5.395   3.277 -0.2737 -0.7962 -0.4567
 9215TIP3    H149136   3.749   5.301   3.295  1.4200 -0.7456  0.8457
 9215TIP3    H249137   3.687   5.436   3.328 -0.6578 -1.2953 -0.5796
 9216TIP3   OH249138   2.228   4.160  17.008  0.0177  0.6871  0.1555
 9216TIP3    H149139   2.213   4.251  16.982  0.1730  0.8527  0.6479
 9216TIP3    H249140   2.322   4.147  16.996  0.1104  0.7992  0.7438
 9217TIP3   OH249141   1.093   3.109  14.715  0.0780 -0.2393  0.2781
 9217TIP3    H149142   1.032   3.121  14.643 -0.7274 -0.5393  0.8948
 9217TIP3    H249143   1.039   3.115  14.794  0.8002 -0.7770  0.8313
 9218TIP3   OH249144   5.652   2.262   5.042 -0.8241 -0.0916 -0.2586
 9218TIP3    H149145   5.615   2.181   5.008 -2.0169 -0.3547  1.5452
 9218TIP3    H249146   5.586   2.294   5.104 -0.2172  2.0614 -0.6449
 9219TIP3   OH249147   0.049   0.967  14.625 -0.1069 -0.3115 -0.2403
 9219TIP3    H149148   0.004   0.920  14.695 -0.1669  1.5524  1.0314
 9219TIP3    H249149   0.140   0.972  14.654  0.0886 -0.4706 -0.8208
 9220TIP3   OH249150   0.948   6.696   1.267  0.3953  0.1255 -0.8145
 9220TIP3    H149151   1.032   6.698   1.220 -0.1032 -0.5118 -1.7545
 9220TIP3    H249152   0.961   6.632   1.336  1.6699  2.2074  1.0278
 9221TIP3   OH249153   1.353   3.285  16.700 -0.1698  0.1886  0.0256
 9221TIP3    H149154   1.368   3.373  16.666 -1.2985  0.7259  0.8354
 9221TIP3    H249155   1.258   3.275  16.700 -0.0360 -1.4612 -1.0726
 9222TIP3   OH249156   6.448   1.106  17.131 -0.2041 -0.2263  0.1271
 9222TIP3    H149157   6.385   1.071  17.069 -1.1040 -0.0630  0.9244
 9222TIP3    H249158   6.532   1.102  17.085 -0.7323 -0.7743 -0.8205
 9223TIP3   OH249159   3.760   4.029  12.102  0.1020 -0.3755 -0.5572
 9223TIP3    H149160   3.794   3.999  12.017  0.5672 -0.5483 -0.3141
 9223TIP3    H249161   3.800   3.969  12.166  1.1249  0.8087 -0.0410
 9224TIP3   OH249162   6.301   4.088   4.027  0.1191 -0.4448  0.2786
 9224TIP3    H149163   6.396   4.084   4.033  0.1508  0.1258  0.1846
 9224TIP3    H249164   6.284   4.110   3.935 -0.0954 -0.2842  0.3575
 9225TIP3   OH249165   2.540   0.848  13.139 -0.8039  0.5060  0.3189
 9225TIP3    H149166   2.522   0.862  13.046  0.3563 -0.2726 -0.0531
 9225TIP3    H249167   2.475   0.901  13.184 -1.0786  1.2965 -0.9402
 9226TIP3   OH249168   0.768   3.058  14.791 -0.2564  0.0797  0.2895
 9226TIP3    H149169   0.690   3.021  14.832  0.1225 -0.3936  0.5918
 9226TIP3    H249170   0.744   3.071  14.700 -0.4391 -0.7926  0.2066
 9227TIP3   OH249171   4.156   5.627  14.355  0.4260  0.5307  0.5991
 9227TIP3    H149172   4.224   5.688  14.383  0.2475 -0.2813  3.0586
 9227TIP3    H249173   4.080   5.651  14.407 -0.6774  0.3101 -0.8527
 9228TIP3   OH249174   4.174   1.036   5.272 -0.2839 -0.1866  0.2404
 9228TIP3    H149175   4.244   1.015   5.333 -0.2382  1.4736  0.8199
 9228TIP3    H249176   4.190   0.980   5.196  1.9804  0.4925  0.1349
 9229TIP3   OH249177   4.115   0.451  16.296 -0.0686 -0.1099  0.1126
 9229TIP3    H149178   4.127   0.534  16.341 -0.1737  0.9186 -1.6539
 9229TIP3    H249179   4.203   0.416  16.286 -0.0707 -0.4803  1.3276
 9230TIP3   OH249180   0.614   0.386   0.081 -0.0074  0.2543 -0.1795
 9230TIP3    H149181   0.531   0.432   0.072 -0.9338 -0.7387  2.3518
 9230TIP3    H249182   0.677   0.455   0.104 -1.0356  0.5736  1.9304
 9231TIP3   OH249183   4.450   6.318  17.149  0.7713 -0.4459 -0.7685
 9231TIP3    H149184   4.532   6.346  17.190  0.7896  2.7501 -2.6819
 9231TIP3    H249185   4.382   6.362  17.200  0.6001  0.6913 -1.9192
 9232TIP3   OH249186   0.054   6.018  10.672  0.0104 -0.3132  0.2034
 9232TIP3    H149187  -0.018   6.067  10.630  0.6990  1.1926  0.7026
 9232TIP3    H249188   0.013   5.937  10.702 -0.8768 -0.7236 -1.8779
 9233TIP3   OH249189   5.466   4.380   5.279  0.1552 -0.1938  0.3308
 9233TIP3    H149190   5.433   4.430   5.204 -0.1691 -0.7738  0.0793
 9233TIP3    H249191   5.454   4.438   5.353 -1.1891 -0.2671  0.2056
 9234TIP3   OH249192   0.441   2.695   2.644  0.5184  0.5424  0.4079
 9234TIP3    H149193   0.499   2.653   2.581 -1.1332 -1.2614  0.0090
 9234TIP3    H249194   0.476   2.671   2.729  0.4418 -0.4137  0.1757
 9235TIP3   OH249195   0.648   4.621   2.228 -0.0775 -0.2883  0.0533
 9235TIP3    H149196   0.569   4.567   2.238 -0.0891 -0.1952  0.4701
 9235TIP3    H249197   0.635   4.693   2.289  1.4757 -1.5828  1.9928
 9236TIP3   OH249198   3.381   4.005   4.928  0.3128  0.4752  0.2152
 9236TIP3    H149199   3.332   4.083   4.900  1.1680  0.8262 -0.3459
 9236TIP3    H249200   3.314   3.944   4.958 -0.5092  0.7316 -1.0454
 9237TIP3   OH249201   3.551   6.774  16.443 -1.0289  0.1506 -0.2354
 9237TIP3    H149202   3.600   6.747  16.521  1.2398 -0.0540 -1.6353
 9237TIP3    H249203   3.519   6.862  16.464 -0.8562 -0.0862  1.0914
 9238TIP3   OH249204   6.056   1.737   5.631 -0.2162 -0.0176  0.5017
 9238TIP3    H149205   6.065   1.702   5.720 -0.6128  1.7046  1.2524
 9238TIP3    H249206   6.041   1.830   5.644  2.5108  0.8061 -1.4602
 9239TIP3   OH249207   0.627   4.783  11.118  0.1761 -0.1292  0.5218
 9239TIP3    H149208   0.658   4.858  11.169  1.2239 -1.2140  1.5746
 9239TIP3    H249209   0.604   4.718  11.184  0.0000 -0.9987 -0.3758
 9240TIP3   OH249210   6.129   4.868   5.244  0.0228  0.3109 -0.2765
 9240TIP3    H149211   6.088   4.792   5.202  0.5603 -0.2748  0.2374
 9240TIP3    H249212   6.178   4.831   5.317  0.0188  1.1999  0.1838
 9241TIP3   OH249213   6.271   5.180   3.003 -0.5584  0.4216 -1.0053
 9241TIP3    H149214   6.199   5.149   2.947 -0.1330  0.6225 -1.6710
 9241TIP3    H249215   6.343   5.119   2.986 -0.5439  0.2572 -0.3857
 9242TIP3   OH249216   6.346   3.704   1.743  0.2041 -0.4889  0.0833
 9242TIP3    H149217   6.267   3.659   1.714  1.0871 -1.3761 -1.0267
 9242TIP3    H249218   6.393   3.724   1.663  1.2332 -0.1950  0.7383
 9243TIP3   OH249219   6.797   6.313  13.987 -0.4059  0.2354  0.7496
 9243TIP3    H149220   6.855   6.339  13.914 -0.6230 -0.3281  0.3714
 9243TIP3    H249221   6.857   6.285  14.056 -0.1989  0.7263  0.7729
 9244TIP3   OH249222   3.666   1.944  15.011  0.1892  0.4228 -0.0121
 9244TIP3    H149223   3.643   1.861  14.969 -0.2821 -0.2295  1.4257
 9244TIP3    H249224   3.730   1.919  15.078 -0.4051  1.1121  0.8312
 9245TIP3   OH249225   6.155   3.521  12.003 -0.5578 -0.1424 -0.2192
 9245TIP3    H149226   6.086   3.565  11.954 -0.8858  1.3480  1.4964
 9245TIP3    H249227   6.215   3.488  11.935 -2.0863 -0.0672 -1.6696
 9246TIP3   OH249228   0.495   4.839  10.573 -0.3198  0.8952 -0.2692
 9246TIP3    H149229   0.573   4.889  10.553  2.5338 -3.2474 -0.7084
 9246TIP3    H249230   0.509   4.806  10.662 -2.0422  0.8151  0.0114
 9247TIP3   OH249231   5.526   3.670   0.148  1.3368  0.4216  0.2264
 9247TIP3    H149232   5.462   3.734   0.181  0.8781  0.2687 -0.3475
 9247TIP3    H249233   5.562   3.711   0.070  0.1879 -0.4964 -0.8189
 9248TIP3   OH249234   0.329   6.297  10.693  0.1841  0.2452  0.1788
 9248TIP3    H149235   0.302   6.219  10.742 -0.8864  0.4164 -0.1086
 9248TIP3    H249236   0.420   6.280  10.667 -0.3746 -1.3884 -0.8327
 9249TIP3   OH249237   3.206   3.666  12.707 -0.0855  0.1099  0.3640
 9249TIP3    H149238   3.119   3.707  12.703 -0.0969  0.0815  0.3236
 9249TIP3    H249239   3.234   3.679  12.798 -1.0006 -1.6478  0.9437
 9250TIP3   OH249240   5.186   1.102  12.846  0.5727  0.6277  0.0372
 9250TIP3    H149241   5.204   1.146  12.763 -2.4455  0.9513 -0.5918
 9250TIP3    H249242   5.236   1.151  12.911  1.0472  1.9694 -1.2830
 9251TIP3   OH249243   0.992   1.422   1.468  0.4291  0.2106 -0.0797
 9251TIP3    H149244   1.058   1.467   1.521  1.6928 -1.1927 -0.3941
 9251TIP3    H249245   0.949   1.492   1.419  2.2247  1.1130 -0.4488
 9252TIP3   OH249246   5.781   2.272  10.848 -0.7446  0.2339 -0.0267
 9252TIP3    H149247   5.693   2.294  10.818 -0.5734 -0.3532 -1.0006
 9252TIP3    H249248   5.798   2.185  10.811  0.3507  0.4612 -0.1017
 9253TIP3   OH249249   4.292   2.392  12.484  0.0965  0.1083  0.0851
 9253TIP3    H149250   4.313   2.450  12.410 -0.2504  3.5699  2.4900
 9253TIP3    H249251   4.377   2.369  12.521  0.1941  1.0753  0.4937
 9254TIP3   OH249252   3.558   1.651  11.236  0.0566  0.4305 -0.6177
 9254TIP3    H149253   3.543   1.737  11.197  0.7944 -0.0208 -2.0096
 9254TIP3    H249254   3.507   1.591  11.181 -0.3251 -0.0334  0.2370
 9255TIP3   OH249255   1.180   1.850  12.799 -0.1616 -0.0830 -0.1624
 9255TIP3    H149256   1.177   1.818  12.709 -2.4411  1.5639 -0.7554
 9255TIP3    H249257   1.218   1.937  12.793 -1.5426  0.5730  0.2485
 9256TIP3   OH249258   5.555   5.181  11.298 -0.6929 -0.0614  0.3491
 9256TIP3    H149259   5.467   5.162  11.330 -0.9433 -3.4848 -1.8858
 9256TIP3    H249260   5.542   5.229  11.217 -0.3422  1.1714  0.9855
 9257TIP3   OH249261   3.134   2.726  12.534 -0.0429 -0.1786  0.3696
 9257TIP3    H149262   3.200   2.775  12.486 -1.4766  1.6360  0.1454
 9257TIP3    H249263   3.127   2.643  12.487  1.9641 -0.3855  0.3567
 9258TIP3   OH249264   2.572   2.717   1.047 -0.5722  0.3220  0.6858
 9258TIP3    H149265   2.635   2.777   1.007  0.1255 -0.9801 -0.2208
 9258TIP3    H249266   2.604   2.705   1.136  0.5307 -0.3824  0.2126
 9259TIP3   OH249267   4.385   4.692  13.720 -0.3097  0.3013 -0.1574
 9259TIP3    H149268   4.381   4.655  13.809 -2.4468  0.2753 -0.1979
 9259TIP3    H249269   4.433   4.774  13.730  1.5224 -0.8113  0.5618
 9260TIP3   OH249270   4.566   2.842   1.425  0.4970 -0.2617  0.2502
 9260TIP3    H149271   4.595   2.776   1.362  0.3070 -0.0409 -0.0737
 9260TIP3    H249272   4.630   2.838   1.495  0.7712 -0.4396 -0.0084
 9261TIP3   OH249273   5.281   5.489   0.067  0.4134  0.1676 -0.3286
 9261TIP3    H149274   5.310   5.508   0.156  1.3662 -0.8874 -0.3806
 9261TIP3    H249275   5.267   5.574   0.027  0.1135  0.6551  0.7857
 9262TIP3   OH249276   1.034   5.077   3.232  0.2793 -0.8376  0.0487
 9262TIP3    H149277   0.995   5.051   3.149  0.2577  0.4124 -0.3622
 9262TIP3    H249278   1.081   4.999   3.263  0.6231 -1.2025 -1.3388
 9263TIP3   OH249279   3.298   6.820   2.748 -0.5591  0.5668  0.1675
 9263TIP3    H149280   3.370   6.757   2.752  1.1764  2.4744  3.1483
 9263TIP3    H249281   3.342   6.905   2.737 -2.5971  1.5506 -0.8575
 9264TIP3   OH249282   2.139   2.434  15.657  0.2481 -0.0753  0.1762
 9264TIP3    H149283   2.094   2.519  15.657  0.3072 -0.0083 -1.2265
 9264TIP3    H249284   2.091   2.382  15.593  0.1017 -1.1774  1.1673
 9265TIP3   OH249285   1.978   1.153   3.334  0.1654 -0.3420  0.0535
 9265TIP3    H149286   1.957   1.194   3.417 -2.8025  0.0641 -0.7981
 9265TIP3    H249287   1.975   1.059   3.353 -0.0092 -0.2480  0.5100
 9266TIP3   OH249288   3.584   3.638  13.876 -0.0136  0.3198 -0.1592
 9266TIP3    H149289   3.644   3.579  13.922 -1.2258  0.2322  1.3932
 9266TIP3    H249290   3.520   3.581  13.834 -1.1012  0.4662  1.2224
 9267TIP3   OH249291   6.072   2.373   1.458  0.1507  0.3266 -0.0152
 9267TIP3    H149292   6.167   2.371   1.454  0.2647 -1.4694  1.9974
 9267TIP3    H249293   6.051   2.430   1.532 -0.1860 -1.4805  1.3406
 9268TIP3   OH249294   5.871   1.945  12.299  0.3526  0.2963  0.6059
 9268TIP3    H149295   5.841   2.023  12.251 -2.5927 -1.4237 -0.5674
 9268TIP3    H249296   5.830   1.952  12.385 -0.5299 -0.3136  0.2387
 9269TIP3   OH249297   2.023   2.429  16.391 -0.1982 -0.4600  0.3987
 9269TIP3    H149298   2.029   2.524  16.381  0.3444 -0.6306 -1.0495
 9269TIP3    H249299   2.098   2.405  16.445  0.1232 -0.1634  0.0802
 9270TIP3   OH249300   5.373   2.061   3.343  0.1202 -0.1832  0.5721
 9270TIP3    H149301   5.289   2.027   3.375 -0.1996  2.1005  2.3519
 9270TIP3    H249302   5.355   2.086   3.252 -0.6855 -1.0387  0.4723
 9271TIP3   OH249303   0.414   0.231  14.990 -0.0204  0.8200  0.6701
 9271TIP3    H149304   0.372   0.160  14.941  2.1188 -0.1014  0.0009
 9271TIP3    H249305   0.394   0.310  14.941  1.6974 -0.0283 -1.5990
 9272TIP3   OH249306   4.348   5.485  16.741  0.1649  0.5959 -0.9311
 9272TIP3    H149307   4.411   5.521  16.679  1.0580 -1.7296 -1.4632
 9272TIP3    H249308   4.276   5.454  16.687 -0.1308  0.6823 -0.5890
 9273TIP3   OH249309   4.771   5.491   2.241  0.0060  0.1152 -0.5157
 9273TIP3    H149310   4.774   5.397   2.224  0.2665 -0.2295  1.2482
 9273TIP3    H249311   4.863   5.519   2.235  0.2601 -0.2353  1.3564
 9274TIP3   OH249312   2.586   2.162   2.093  0.2549 -0.4239  0.0917
 9274TIP3    H149313   2.608   2.176   2.001 -0.2391 -1.6514 -0.2368
 9274TIP3    H249314   2.490   2.154   2.094  0.0934  1.2466  0.9644
 9275TIP3   OH249315   1.605   2.708   0.195 -0.2842 -0.2582  0.2309
 9275TIP3    H149316   1.591   2.738   0.106 -1.3892 -0.7047  0.2410
 9275TIP3    H249317   1.585   2.614   0.192  1.2236 -0.6195  0.6110
 9276TIP3   OH249318   6.068   5.600   1.583  0.3371 -0.2741  0.0042
 9276TIP3    H149319   6.075   5.682   1.633  3.4139  0.5560 -1.5421
 9276TIP3    H249320   6.123   5.539   1.632 -1.4289 -1.3027  0.7887
 9277TIP3   OH249321   5.722   2.131  15.788  0.2553 -0.1996  0.3415
 9277TIP3    H149322   5.704   2.060  15.726 -0.3063  0.4400 -0.2473
 9277TIP3    H249323   5.683   2.209  15.748 -0.3574  0.1902  1.6125
 9278TIP3   OH249324   2.259   0.082  15.529  0.2716 -0.4529 -0.3395
 9278TIP3    H149325   2.253  -0.010  15.503 -0.1387 -0.8918  1.2341
 9278TIP3    H249326   2.218   0.130  15.457 -0.9589 -1.6263 -0.4529
 9279TIP3   OH249327   1.196   6.532  12.865  0.3536 -0.0476  0.0260
 9279TIP3    H149328   1.130   6.594  12.837 -0.7428 -0.2516  1.9906
 9279TIP3    H249329   1.257   6.527  12.792 -0.7561  1.5988 -1.0698
 9280TIP3   OH249330   0.992   0.457   1.194  0.2513 -0.4172 -0.1879
 9280TIP3    H149331   1.028   0.544   1.176  1.3181 -1.4112 -3.9230
 9280TIP3    H249332   1.063   0.411   1.238  0.0614  0.2839  0.8783
 9281TIP3   OH249333   2.021   3.991  12.643 -0.3430  0.3817 -0.0705
 9281TIP3    H149334   2.091   3.931  12.616 -0.7241 -0.3583  0.5516
 9281TIP3    H249335   2.010   4.050  12.569  0.7179  0.3037 -0.3055
 9282TIP3   OH249336   3.833   2.347   1.974 -0.7787 -0.3255  0.0020
 9282TIP3    H149337   3.918   2.326   1.935 -1.6291 -1.7073 -1.1733
 9282TIP3    H249338   3.854   2.412   2.042  1.3090 -1.1875  0.2677
 9283TIP3   OH249339   1.779   6.097   2.369 -0.2266 -0.4916  0.2465
 9283TIP3    H149340   1.852   6.066   2.422  0.0147 -0.1553  0.1178
 9283TIP3    H249341   1.820   6.148   2.299 -0.6365  0.5721  0.7643
 9284TIP3   OH249342   2.597   2.782   6.161 -0.1743  0.5280 -0.2105
 9284TIP3    H149343   2.588   2.821   6.249  0.9889  1.1352 -0.3454
 9284TIP3    H249344   2.667   2.718   6.170 -1.3832 -0.8482 -0.2458
 9285TIP3   OH249345   0.226   2.287   2.382  0.5112  0.0608  0.4060
 9285TIP3    H149346   0.236   2.381   2.363  0.8418 -0.1148 -0.3098
 9285TIP3    H249347   0.195   2.249   2.299  0.1632 -0.4332  0.7540
 9286TIP3   OH249348   6.587   6.219  14.380 -0.3856 -0.9979  0.9297
 9286TIP3    H149349   6.671   6.189  14.416  0.7676  0.7744 -0.1291
 9286TIP3    H249350   6.544   6.139  14.351  2.0926 -1.8204 -0.8459
 9287TIP3   OH249351   0.212   4.557   1.653 -0.1790  0.2702 -0.3382
 9287TIP3    H149352   0.145   4.573   1.720 -1.3802  2.7743 -1.9864
 9287TIP3    H249353   0.173   4.490   1.596 -0.2076 -0.0963  0.1142
 9288TIP3   OH249354   5.213   3.086  13.608 -0.1628 -0.1765 -0.1784
 9288TIP3    H149355   5.157   3.037  13.548 -0.6826  0.2097 -0.0232
 9288TIP3    H249356   5.205   3.177  13.580 -1.0008  0.1145  0.9003
 9289TIP3   OH249357   3.020   1.956  14.726 -0.1859  0.2231  0.4249
 9289TIP3    H149358   3.025   1.966  14.821 -0.7568  1.5381  0.3418
 9289TIP3    H249359   3.047   2.041  14.691 -0.5603 -0.0468 -0.5691
 9290TIP3   OH249360   4.129   2.282   4.531 -0.3958  0.2588 -0.0219
 9290TIP3    H149361   4.104   2.331   4.453  0.8474  0.7431 -0.1503
 9290TIP3    H249362   4.219   2.253   4.513 -0.4338 -0.4378  0.8374
 9291TIP3   OH249363   4.899   2.996   0.921 -0.3150 -0.3950  0.3183
 9291TIP3    H149364   4.980   2.946   0.935  0.3748  0.9264  1.2150
 9291TIP3    H249365   4.835   2.953   0.977 -0.0756 -1.0648  0.0919
 9292TIP3   OH249366   3.448   0.413   5.146  0.5563  0.0166 -0.6314
 9292TIP3    H149367   3.422   0.481   5.083 -0.8273 -0.6601 -0.8231
 9292TIP3    H249368   3.423   0.449   5.231 -0.5656 -0.3829 -0.7666
 9293TIP3   OH249369   6.082   2.256  13.804 -0.4152 -0.3869 -0.4159
 9293TIP3    H149370   6.069   2.167  13.836  1.3649 -1.5063 -2.4630
 9293TIP3    H249371   6.009   2.271  13.744 -0.5260 -0.6430 -0.3455
 9294TIP3   OH249372   1.701   5.488   2.172 -0.4821 -0.2473 -0.2060
 9294TIP3    H149373   1.714   5.528   2.258 -0.9515  0.4230 -0.4379
 9294TIP3    H249374   1.644   5.413   2.188 -1.1751  0.3090 -0.0336
 9295TIP3   OH249375   0.735   3.277  12.025 -0.2427 -0.2277  1.1400
 9295TIP3    H149376   0.686   3.353  12.056  0.7971  0.8615  0.2571
 9295TIP3    H249377   0.709   3.206  12.083 -1.3018  0.7837  1.9619
 9296TIP3   OH249378   6.207   1.831  16.800 -0.7342  0.5988 -0.2399
 9296TIP3    H149379   6.155   1.854  16.876  1.2502 -0.1384  1.4487
 9296TIP3    H249380   6.159   1.759  16.759 -1.4782  0.5155  0.7425
 9297TIP3   OH249381   4.673   2.904  14.218  0.6014  0.4679  0.2372
 9297TIP3    H149382   4.624   2.893  14.299 -0.3896  1.1987 -0.2481
 9297TIP3    H249383   4.761   2.932  14.246  0.3346  0.5136  1.0514
 9298TIP3   OH249384   1.032   3.062   3.866  0.2083  0.2489  0.0711
 9298TIP3    H149385   0.999   3.112   3.941  0.7415  0.1260  0.3962
 9298TIP3    H249386   1.124   3.088   3.858  0.9489 -1.7875  1.2267
 9299TIP3   OH249387   5.509   6.416   5.580  0.0551  0.1290 -0.2221
 9299TIP3    H149388   5.470   6.480   5.520 -1.6683 -0.3095  0.3702
 9299TIP3    H249389   5.555   6.354   5.524  1.2633  1.5405 -0.8419
 9300TIP3   OH249390   2.159   2.470   1.192  0.2066  0.2068  0.0483
 9300TIP3    H149391   2.165   2.543   1.253  2.2090 -0.6417  0.9866
 9300TIP3    H249392   2.103   2.406   1.236  0.5078  0.1684  0.3823
 9301TIP3   OH249393   3.742   5.140   6.293 -0.2637 -0.3499  0.7848
 9301TIP3    H149394   3.744   5.053   6.253 -4.5644 -1.2060  1.8731
 9301TIP3    H249395   3.680   5.132   6.365 -1.5964  3.7802  0.3889
 9302TIP3   OH249396   6.092   4.953  11.903  0.1463 -0.1092 -0.3583
 9302TIP3    H149397   6.045   4.965  11.821 -0.7583 -0.2518  0.1351
 9302TIP3    H249398   6.147   5.032  11.911 -0.4066  0.3098 -0.6706
 9303TIP3   OH249399   0.596   6.674  16.589 -0.6022 -0.1865  0.3010
 9303TIP3    H149400   0.549   6.606  16.638  0.1487 -0.1849  1.0261
 9303TIP3    H249401   0.651   6.717  16.654  1.1492 -0.8208 -0.7069
 9304TIP3   OH249402   2.708   4.717  16.927  0.2548 -0.0637  0.1257
 9304TIP3    H149403   2.744   4.738  16.841 -1.2384  1.9873 -0.0757
 9304TIP3    H249404   2.764   4.647  16.961  0.3810 -1.5344 -2.8510
 9305TIP3   OH249405   5.145   4.097   2.881  0.2990  0.0663 -0.0371
 9305TIP3    H149406   5.210   4.030   2.863 -0.6259 -0.5664 -1.1816
 9305TIP3    H249407   5.155   4.116   2.974  2.2171  0.1325 -0.2193
 9306TIP3   OH249408   5.669   4.396  12.928 -0.3466  0.1533  0.6006
 9306TIP3    H149409   5.666   4.369  13.020  0.2214  0.7712  0.8109
 9306TIP3    H249410   5.714   4.481  12.929 -0.3206  0.1624 -0.2502
 9307TIP3   OH249411   6.515   4.151  11.685 -0.3582  0.0613  0.1615
 9307TIP3    H149412   6.594   4.130  11.735 -2.0493  0.1722  3.1121
 9307TIP3    H249413   6.484   4.234  11.722 -1.3591  0.5356 -1.6123
 9308TIP3   OH249414   2.248   2.353  15.264 -0.1767 -0.0996  0.3726
 9308TIP3    H149415   2.341   2.340  15.287 -0.8218 -0.7484  2.9696
 9308TIP3    H249416   2.234   2.447  15.274  0.5647  0.2914 -1.8002
 9309TIP3   OH249417   3.302   0.948   0.708  0.7143 -0.5265  0.1158
 9309TIP3    H149418   3.261   0.863   0.691  2.2545 -0.9332 -1.9116
 9309TIP3    H249419   3.396   0.929   0.709  1.0757  1.1341 -0.3002
 9310TIP3   OH249420   5.282   1.029   1.996 -0.4490 -0.1098 -0.0554
 9310TIP3    H149421   5.343   1.069   2.058  0.0173  0.0918 -0.6320
 9310TIP3    H249422   5.261   0.944   2.034 -1.3619  0.6018  1.1355
 9311TIP3   OH249423   1.231   4.963  15.416 -0.2265 -0.7021  0.3466
 9311TIP3    H149424   1.273   5.023  15.477 -0.1573 -0.5119  0.1169
 9311TIP3    H249425   1.292   4.958  15.342  0.9428 -2.9010  1.3417
 9312TIP3   OH249426   2.170   2.500   3.551  0.1694  0.4281  0.1635
 9312TIP3    H149427   2.231   2.562   3.591 -0.1837  0.0584  1.3156
 9312TIP3    H249428   2.084   2.527   3.581 -0.0441 -0.2230  0.1649
 9313TIP3   OH249429   5.291   6.026   1.148  0.4126  0.4385  0.2811
 9313TIP3    H149430   5.315   5.964   1.079  0.7981 -1.5361  2.1002
 9313TIP3    H249431   5.228   6.085   1.106 -1.2726 -2.1786 -1.1348
 9314TIP3   OH249432   4.183   2.282   6.161  0.0061  0.1280  0.1475
 9314TIP3    H149433   4.103   2.335   6.162 -0.7287 -0.9429  0.2954
 9314TIP3    H249434   4.190   2.248   6.250  1.1922  0.9909  0.4162
 9315TIP3   OH249435   2.918   3.033  14.398 -0.6425 -0.2545  0.3686
 9315TIP3    H149436   2.863   3.054  14.322  0.4640 -0.4435 -0.5135
 9315TIP3    H249437   2.930   3.116  14.443  0.2427  0.2317 -0.7317
 9316TIP3   OH249438   0.463   2.116   2.337 -0.4221  0.2125 -0.3258
 9316TIP3    H149439   0.432   2.188   2.391  0.3128  0.6622 -0.4928
 9316TIP3    H249440   0.437   2.037   2.386  0.9645  0.6046  1.1370
 9317TIP3   OH249441   0.868   4.294   4.972 -0.2855 -0.7214  0.0788
 9317TIP3    H149442   0.793   4.241   4.998 -0.9044 -0.5974 -1.3581
 9317TIP3    H249443   0.839   4.384   4.983  0.3278 -0.6605  1.3207
 9318TIP3   OH249444   6.116   4.848  13.076  0.0125  0.6071  0.3158
 9318TIP3    H149445   6.021   4.853  13.071  0.0215 -0.1687 -2.1959
 9318TIP3    H249446   6.134   4.817  13.164 -2.0431  0.8971  0.8940
 9319TIP3   OH249447   6.072   0.799   5.505  0.5710 -0.0200  0.0527
 9319TIP3    H149448   6.029   0.737   5.447 -0.7388  0.9715 -0.0683
 9319TIP3    H249449   6.069   0.757   5.591 -1.0393  0.1991  0.1306
 9320TIP3   OH249450   6.431   4.079   3.777  0.5187  0.1331  0.4152
 9320TIP3    H149451   6.388   3.994   3.769 -1.1253  0.9215  0.3442
 9320TIP3    H249452   6.514   4.061   3.821  0.0206 -1.4431  0.7513
 9321TIP3   OH249453   4.780   3.976   2.524  0.0184  0.5435  0.0695
 9321TIP3    H149454   4.734   3.953   2.444  0.8183  1.8041 -0.7892
 9321TIP3    H249455   4.871   3.986   2.497  0.4254  0.2514  1.2884
 9322TIP3   OH249456   4.539   5.806   3.526 -0.2381 -0.6976  0.0543
 9322TIP3    H149457   4.488   5.882   3.496  0.9390 -0.5225 -1.6841
 9322TIP3    H249458   4.523   5.739   3.460  2.2209 -0.4161 -0.9397
 9323TIP3   OH249459   1.519   6.071   0.796 -0.2703 -0.0251 -0.3991
 9323TIP3    H149460   1.603   6.027   0.787 -0.7752 -0.9375 -0.8649
 9323TIP3    H249461   1.520   6.140   0.730  1.0110  1.4924  1.1401
 9324TIP3   OH249462   3.430   5.890   5.558 -0.0070 -0.1213 -0.1110
 9324TIP3    H149463   3.522   5.865   5.543 -0.1749 -1.1572  0.5143
 9324TIP3    H249464   3.421   5.975   5.513  1.3728  0.2206  0.2052
 9325TIP3   OH249465   0.877   1.204  11.597 -0.0704 -0.6192 -0.5050
 9325TIP3    H149466   0.868   1.300  11.595 -1.7145 -0.7465 -0.0396
 9325TIP3    H249467   0.944   1.189  11.664 -0.8065  0.1722  0.4501
 9326TIP3   OH249468   2.690   2.525  14.730 -0.7020 -0.2171  0.3295
 9326TIP3    H149469   2.691   2.619  14.710 -0.8452 -0.3400 -0.2758
 9326TIP3    H249470   2.627   2.488  14.668 -2.0576 -0.4517  1.7878
 9327TIP3   OH249471   3.054   5.623  14.498 -0.2481 -0.0097  0.6176
 9327TIP3    H149472   3.140   5.652  14.529  0.0262 -0.0232 -0.0944
 9327TIP3    H249473   3.047   5.662  14.411 -0.4801 -0.9467  0.2096
 9328TIP3   OH249474   3.897   5.690  13.524  0.2565 -0.6530 -0.3068
 9328TIP3    H149475   3.974   5.743  13.505 -0.4687  0.9378  0.9586
 9328TIP3    H249476   3.823   5.750  13.511 -0.5034 -0.7785  2.7839
 9329TIP3   OH249477   4.111   0.234   5.484  0.0887  0.2553  0.0814
 9329TIP3    H149478   4.097   0.298   5.555  2.8165 -0.7775  1.7000
 9329TIP3    H249479   4.069   0.154   5.515 -2.6858  0.9088 -1.6243
 9330TIP3   OH249480   5.931   5.041   0.496 -0.3890  0.6237  0.1287
 9330TIP3    H149481   5.901   4.969   0.551  1.5246  0.9135  1.6488
 9330TIP3    H249482   5.940   5.116   0.556  0.1881  1.4026 -0.8867
 9331TIP3   OH249483   2.532   3.527  10.955  0.1739 -0.6629  0.1170
 9331TIP3    H149484   2.457   3.488  11.001  1.0814 -1.4311  0.9972
 9331TIP3    H249485   2.603   3.525  11.019  0.5768  1.4497 -0.1661
 9332TIP3   OH249486   1.437   0.278   0.597  0.0457 -1.0971  0.1260
 9332TIP3    H149487   1.478   0.355   0.559  0.3451 -0.8389  0.9347
 9332TIP3    H249488   1.508   0.233   0.642 -0.4000 -1.0201  0.9480
 9333TIP3   OH249489   2.061   2.936  15.825  0.4134 -0.3285 -0.4892
 9333TIP3    H149490   2.011   2.854  15.824 -1.0947  0.5435  0.2135
 9333TIP3    H249491   2.072   2.957  15.917  1.2763 -0.0140 -0.6569
 9334TIP3   OH249492   5.382   5.325   2.037 -0.2460 -0.5328 -0.0862
 9334TIP3    H149493   5.406   5.287   1.952  0.5830  0.0767 -0.1399
 9334TIP3    H249494   5.295   5.362   2.023  0.6636  1.3304 -1.2991
 9335TIP3   OH249495   4.649   6.398   0.925  0.2238 -0.2616  0.0127
 9335TIP3    H149496   4.614   6.473   0.878 -1.2285 -0.5130  0.6474
 9335TIP3    H249497   4.687   6.343   0.857 -1.2833 -0.3218 -0.8269
 9336TIP3   OH249498   2.179   4.513   3.939  0.0228  0.2293  0.4678
 9336TIP3    H149499   2.152   4.430   3.979  2.6950  0.0339  2.1626
 9336TIP3    H249500   2.208   4.489   3.851  0.4976 -0.6059  0.8427
 9337TIP3   OH249501   3.950   6.828   5.343 -0.3036  0.0531  0.4281
 9337TIP3    H149502   3.907   6.759   5.292 -0.0648  0.2322 -0.0221
 9337TIP3    H249503   3.889   6.901   5.341 -0.4341 -0.0482  0.6698
 9338TIP3   OH249504   0.584   2.702   3.753 -0.5694  0.1858  0.0378
 9338TIP3    H149505   0.642   2.636   3.716  0.2231  0.3963  0.8546
 9338TIP3    H249506   0.497   2.678   3.723 -0.1949 -0.7925 -0.2920
 9339TIP3   OH249507   1.257   4.158   3.787  0.5983  0.1105  0.8129
 9339TIP3    H149508   1.179   4.128   3.741  0.4743 -0.1569  1.1879
 9339TIP3    H249509   1.316   4.083   3.788  0.7927  0.2586  0.6817
 9340TIP3   OH249510   2.587   6.029   6.470 -0.5360 -0.5399  0.3320
 9340TIP3    H149511   2.566   6.118   6.498 -0.1134 -0.2888 -0.1319
 9340TIP3    H249512   2.555   5.973   6.541  0.6878  0.0851  1.4208
 9341TIP3   OH249513   4.404   6.815  16.020 -0.2473 -0.1256 -0.1447
 9341TIP3    H149514   4.384   6.748  15.954  0.8847  0.8393 -1.5443
 9341TIP3    H249515   4.394   6.898  15.973  1.4907  0.5665  0.6185
 9342TIP3   OH249516   2.130   4.717  13.545  0.3687 -0.5624  0.3449
 9342TIP3    H149517   2.076   4.783  13.501 -0.4283 -0.5865  1.2614
 9342TIP3    H249518   2.104   4.634  13.506 -1.6603 -0.8068  2.0467
 9343TIP3   OH249519   5.779   6.531   3.408 -0.5580  0.2477  0.0290
 9343TIP3    H149520   5.778   6.437   3.387 -1.0987  0.5507 -1.3799
 9343TIP3    H249521   5.728   6.572   3.339  0.2420  1.6727  0.2407
 9344TIP3   OH249522   3.006   3.316   5.066  0.0515 -0.1345  0.1160
 9344TIP3    H149523   2.969   3.235   5.102  0.9165 -0.2073  0.8547
 9344TIP3    H249524   3.079   3.338   5.124  0.3911  0.6911 -0.5991
 9345TIP3   OH249525   3.474   2.471   6.120  0.3589 -0.0883  0.3274
 9345TIP3    H149526   3.534   2.494   6.191  0.0959  1.0625  0.2006
 9345TIP3    H249527   3.402   2.426   6.163  0.8290 -0.5785  0.6106
 9346TIP3   OH249528   0.791   4.824   0.163 -0.3132  0.6650 -0.0260
 9346TIP3    H149529   0.795   4.753   0.227  2.1623  0.4263 -0.3532
 9346TIP3    H249530   0.840   4.896   0.203  1.0223  0.6167 -1.4875
 9347TIP3   OH249531   6.404   2.017  15.884  0.2557  0.5711 -0.1083
 9347TIP3    H149532   6.455   1.960  15.942 -0.2060  1.5187  1.3026
 9347TIP3    H249533   6.450   2.014  15.800 -0.0173 -2.1912 -0.2333
 9348TIP3   OH249534   4.434   2.840  14.948  0.6883 -0.1145 -0.0716
 9348TIP3    H149535   4.521   2.828  14.911  1.0025 -1.1740  0.9370
 9348TIP3    H249536   4.384   2.884  14.879  2.1275  0.9278 -0.4913
 9349TIP3   OH249537   1.330   2.160   4.156 -0.1165 -0.2064  0.0343
 9349TIP3    H149538   1.251   2.142   4.104  0.3551  1.3875 -1.3305
 9349TIP3    H249539   1.388   2.206   4.096  0.6060  1.4262  1.8754
 9350TIP3   OH249540   2.217   0.607   2.849 -0.2699 -0.4264 -0.5634
 9350TIP3    H149541   2.272   0.673   2.808 -0.4908  0.3647  0.3673
 9350TIP3    H249542   2.221   0.531   2.790  0.1911  0.3241 -1.5185
 9351TIP3   OH249543   3.979   5.838  11.960 -0.5433  0.1334 -0.6233
 9351TIP3    H149544   4.073   5.836  11.977 -0.4983  1.5078 -0.6143
 9351TIP3    H249545   3.964   5.766  11.899  0.6252  0.2889 -1.1181
 9352TIP3   OH249546   6.474   6.718  12.028  0.3110  0.1975 -0.1861
 9352TIP3    H149547   6.518   6.642  11.989 -0.4568 -1.0054  1.1743
 9352TIP3    H249548   6.381   6.693  12.030  0.1552  0.8076  1.0492
 9353TIP3   OH249549   6.081   4.309   1.022  0.8714 -0.1072  0.2749
 9353TIP3    H149550   6.066   4.222   1.060  1.1536 -0.0123  0.6134
 9353TIP3    H249551   6.019   4.366   1.068 -0.7072 -0.4561 -1.3149
 9354TIP3   OH249552   0.219   3.117   3.302  0.0259  0.3303  0.0417
 9354TIP3    H149553   0.196   3.109   3.209 -0.4599 -0.1052  0.1961
 9354TIP3    H249554   0.312   3.094   3.306  0.2934  1.2550 -0.4668
 9355TIP3   OH249555   2.617   2.050  14.568 -0.5301  0.0460  0.0329
 9355TIP3    H149556   2.570   2.104  14.504  0.1292  0.0472 -0.4546
 9355TIP3    H249557   2.612   2.100  14.649 -0.6874  0.4195 -0.2028
 9356TIP3   OH249558   3.993   0.822   6.271  0.0614  0.3526 -0.2120
 9356TIP3    H149559   3.977   0.739   6.316  0.6546  0.3085 -0.0792
 9356TIP3    H249560   3.963   0.807   6.181 -2.4507  0.8711  0.4604
 9357TIP3   OH249561   4.363   3.027   2.637 -0.6431 -0.1996 -0.1182
 9357TIP3    H149562   4.417   2.953   2.665 -2.2815 -1.0822  0.8731
 9357TIP3    H249563   4.350   3.078   2.717 -0.6870  0.4105 -0.5064
 9358TIP3   OH249564   2.248   2.803   4.364  0.3054 -0.1545 -0.3123
 9358TIP3    H149565   2.332   2.803   4.410  0.9715 -2.4929 -1.3683
 9358TIP3    H249566   2.206   2.884   4.391  1.9374  0.0167  2.0305
 9359TIP3   OH249567   2.922   1.301  13.553  0.0910 -0.2708  0.4932
 9359TIP3    H149568   2.854   1.274  13.491 -0.3432  0.8929  0.4365
 9359TIP3    H249569   2.946   1.221  13.599 -1.8075 -0.5934  0.9936
 9360TIP3   OH249570   6.682   5.249   5.335  0.1506  0.0894 -0.5593
 9360TIP3    H149571   6.675   5.163   5.377 -2.5245  0.4245 -0.1513
 9360TIP3    H249572   6.680   5.312   5.407 -0.0427  0.5314 -0.9430
 9361TIP3   OH249573   4.242   4.848   0.510 -0.4231 -0.0255  0.0688
 9361TIP3    H149574   4.239   4.943   0.525  2.0531 -0.0988  1.6853
 9361TIP3    H249575   4.180   4.812   0.573  1.4727  0.4000  2.3661
 9362TIP3   OH249576   5.191   6.655  10.477 -0.1559 -0.0590  0.3224
 9362TIP3    H149577   5.206   6.585  10.541  0.6395  0.2944  0.5412
 9362TIP3    H249578   5.274   6.704  10.476 -1.0933  1.6441  1.0994
 9363TIP3   OH249579   4.842   4.880  16.401 -0.0048  0.4319  0.1142
 9363TIP3    H149580   4.768   4.940  16.394  1.7250  2.5051 -2.4558
 9363TIP3    H249581   4.817   4.804  16.349 -2.0652 -1.0961  3.0826
 9364TIP3   OH249582   1.174   1.003  11.414  0.3608 -0.0472 -0.3643
 9364TIP3    H149583   1.179   0.913  11.445  1.2037 -0.1863 -0.8820
 9364TIP3    H249584   1.122   1.048  11.481 -0.3778 -0.9786 -0.2779
 9365TIP3   OH249585   4.542   0.943  11.422  0.2348  0.6124 -0.3330
 9365TIP3    H149586   4.636   0.921  11.424  0.0330 -0.2573  1.2404
 9365TIP3    H249587   4.533   1.018  11.481 -0.1077  0.4730 -0.2054
 9366TIP3   OH249588   0.097   3.337  11.020 -0.4046 -0.3811 -0.1083
 9366TIP3    H149589   0.011   3.377  11.031 -0.3084 -0.4550  1.0387
 9366TIP3    H249590   0.084   3.245  11.044 -0.0269 -0.4250 -0.0665
 9367TIP3   OH249591   3.012   0.861  12.124 -0.0423 -0.0688 -0.2402
 9367TIP3    H149592   3.007   0.951  12.156  0.0289 -0.2829  0.3793
 9367TIP3    H249593   2.984   0.807  12.198  2.1249 -0.7074  0.1995
 9368TIP3   OH249594   5.508   4.618  13.184  0.7123 -0.0651 -0.4927
 9368TIP3    H149595   5.423   4.600  13.143 -0.4927  1.1688  1.3423
 9368TIP3    H249596   5.552   4.533  13.186 -0.4014 -0.6964 -1.6260
 9369TIP3   OH249597   3.562   6.693  15.588  0.7724  0.5137  0.4467
 9369TIP3    H149598   3.646   6.719  15.550 -0.1179 -0.3972 -2.3873
 9369TIP3    H249599   3.518   6.644  15.518 -2.2291  1.1409  1.7402
 9370TIP3   OH249600   4.791   6.760  13.687 -0.3314 -0.0787 -0.1271
 9370TIP3    H149601   4.766   6.842  13.645 -0.2957  1.1862  2.1522
 9370TIP3    H249602   4.872   6.781  13.735 -1.1210 -0.9748  1.7089
 9371TIP3   OH249603   6.175   0.895  15.550  0.3285  0.6152 -0.2122
 9371TIP3    H149604   6.168   0.917  15.457  2.2304  0.9197 -0.3360
 9371TIP3    H249605   6.209   0.975  15.591  1.0323 -0.0107  0.4623
 9372TIP3   OH249606   0.904   0.289  13.953  0.0046  0.4213 -0.0944
 9372TIP3    H149607   0.854   0.368  13.933  1.5164  1.6850  0.8449
 9372TIP3    H249608   0.839   0.218  13.952 -1.4413  1.6899 -0.6948
 9373TIP3   OH249609   4.341   2.456  11.348  0.1846 -0.2067 -0.9019
 9373TIP3    H149610   4.401   2.494  11.412 -0.7789 -0.6403  0.2984
 9373TIP3    H249611   4.254   2.483  11.378 -0.2535  0.1759 -2.4517
 9374TIP3   OH249612   6.113   1.493  15.364  0.3495  0.3925  0.0082
 9374TIP3    H149613   6.046   1.555  15.338  0.6398  0.6583 -0.1052
 9374TIP3    H249614   6.166   1.480  15.285 -1.8175 -2.7877 -1.1502
 9375TIP3   OH249615   2.542   3.450  11.832 -0.1806 -0.1475 -0.4864
 9375TIP3    H149616   2.493   3.432  11.752 -0.4519 -1.5952 -0.0224
 9375TIP3    H249617   2.485   3.508  11.882  0.1281  1.0373 -1.4501
 9376TIP3   OH249618   3.890   2.490  15.611 -0.3074  0.3034  0.2522
 9376TIP3    H149619   3.830   2.480  15.538  0.1443  1.1815 -0.2574
 9376TIP3    H249620   3.878   2.411  15.663  0.6267 -1.2030 -1.7013
 9377TIP3   OH249621   0.848   6.619  12.474  0.3173 -0.5291  0.3224
 9377TIP3    H149622   0.809   6.568  12.403 -2.9197 -0.2836  1.7603
 9377TIP3    H249623   0.862   6.556  12.545  2.1988 -0.5069  0.0293
 9378TIP3   OH249624   1.099   1.505  11.229  0.3248  0.1672  0.2416
 9378TIP3    H149625   1.157   1.483  11.302  0.2340 -0.3997  0.1461
 9378TIP3    H249626   1.012   1.513  11.269  0.0489 -1.4134  0.0108
 9379TIP3   OH249627   0.724   4.550  13.541  0.1373 -0.2010 -0.0580
 9379TIP3    H149628   0.716   4.554  13.636  1.1991  0.3835  0.0166
 9379TIP3    H249629   0.635   4.563  13.509 -0.2281 -0.4162  0.8486
 9380TIP3   OH249630   1.426   0.493  14.035 -0.1287  0.0294  0.2313
 9380TIP3    H149631   1.389   0.505  13.948  0.6358 -1.5003 -0.3345
 9380TIP3    H249632   1.353   0.510  14.095 -0.9602 -0.0324 -0.7440
 9381TIP3   OH249633   3.576   0.984  13.650 -0.2860  0.3697  0.0275
 9381TIP3    H149634   3.584   1.078  13.632 -3.1380  1.1502  2.0603
 9381TIP3    H249635   3.484   0.964  13.631 -1.1099 -0.7536  4.1688
 9382TIP3   OH249636   4.820   1.382   5.436 -0.2798 -0.4418  0.2131
 9382TIP3    H149637   4.785   1.376   5.525 -0.0277 -1.1458  0.2761
 9382TIP3    H249638   4.881   1.456   5.439 -0.7427 -0.0649  0.4576
 9383TIP3   OH249639   2.010   6.403  11.540 -0.1743  0.3839  0.1660
 9383TIP3    H149640   1.932   6.347  11.535  0.2088 -0.1101 -0.4703
 9383TIP3    H249641   2.060   6.381  11.461  0.0040  1.6092 -0.0747
 9384TIP3   OH249642   1.516   0.177  16.259  0.2989 -0.1714  0.1069
 9384TIP3    H149643   1.577   0.109  16.289  1.2720  1.1161  1.1301
 9384TIP3    H249644   1.503   0.233  16.336 -1.6306  0.0061 -0.2969
 9385TIP3   OH249645   6.747   1.041  16.335  0.5961  0.1446  0.3826
 9385TIP3    H149646   6.765   0.970  16.275  1.0467  0.7494 -0.2055
 9385TIP3    H249647   6.824   1.046  16.391 -0.0117 -0.7145  1.3294
 9386TIP3   OH249648   0.679   1.216   3.306 -0.0769 -0.5549  0.0275
 9386TIP3    H149649   0.644   1.290   3.256  1.8994  0.2318 -0.2911
 9386TIP3    H249650   0.641   1.226   3.393  0.2021  0.8926  0.0121
 9387TIP3   OH249651   1.813   2.939  12.931 -0.2122  0.0665 -0.1870
 9387TIP3    H149652   1.793   2.868  12.870 -2.7447  1.1043 -0.6908
 9387TIP3    H249653   1.755   2.923  13.006  0.4711  0.6220  0.4694
 9388TIP3   OH249654   3.073   1.490   2.619  0.3503  0.5866 -0.3348
 9388TIP3    H149655   3.157   1.443   2.617  0.0379  0.0345 -1.3219
 9388TIP3    H249656   3.008   1.422   2.602 -0.2175  1.1704 -0.4999
 9389TIP3   OH249657   1.238   5.723   2.446 -0.2628  0.3941  0.2945
 9389TIP3    H149658   1.259   5.815   2.459  0.5977  0.1588  0.6722
 9389TIP3    H249659   1.153   5.723   2.402  1.8222  1.5416 -4.3227
 9390TIP3   OH249660   3.177   3.581   1.604 -0.0904  0.1061 -0.3631
 9390TIP3    H149661   3.235   3.596   1.679  0.2287 -0.3425 -0.5200
 9390TIP3    H249662   3.233   3.541   1.538 -0.4923  0.0305 -0.6590
 9391TIP3   OH249663   0.139   2.548   1.549 -0.6210 -0.2410 -0.1265
 9391TIP3    H149664   0.160   2.459   1.576 -0.0380  0.0161  0.3035
 9391TIP3    H249665   0.114   2.593   1.630  0.4163  0.3425 -0.1118
 9392TIP3   OH249666   3.892   5.993  15.149 -0.1786  0.1495  0.0758
 9392TIP3    H149667   3.822   5.946  15.195  1.3745 -0.6877  1.6972
 9392TIP3    H249668   3.876   6.085  15.170 -0.1432 -0.1311  1.4562
 9393TIP3   OH249669   1.342   0.875   6.541  0.2850 -0.1044 -0.3880
 9393TIP3    H149670   1.294   0.932   6.480  0.4640  1.2750  0.6938
 9393TIP3    H249671   1.274   0.826   6.586  0.1050 -0.5706 -1.1488
 9394TIP3   OH249672   1.875   6.468   4.866  0.0960 -0.2037  0.7753
 9394TIP3    H149673   1.864   6.454   4.960 -0.9775  1.2358  0.9075
 9394TIP3    H249674   1.807   6.532   4.844 -0.5516 -1.5064 -1.2442
 9395TIP3   OH249675   6.322   2.038   5.051 -0.6123  0.2929  0.5516
 9395TIP3    H149676   6.240   2.084   5.037 -0.7389  0.4512  1.6924
 9395TIP3    H249677   6.341   1.995   4.968  0.9092  4.5386 -1.6053
 9396TIP3   OH249678   6.354   5.236  13.175  0.3100  0.0802  0.5937
 9396TIP3    H149679   6.383   5.173  13.110  0.4736  1.4826 -0.7432
 9396TIP3    H249680   6.286   5.189  13.224  0.4333 -1.1296 -0.3306
 9397TIP3   OH249681   0.821   0.048  14.696  0.5226  0.5357  0.6649
 9397TIP3    H149682   0.835   0.105  14.621  2.2780  1.4567  1.6327
 9397TIP3    H249683   0.735   0.072  14.729 -1.5240 -1.6346 -2.4280
 9398TIP3   OH249684   2.924   4.424  13.840 -0.0840  0.5389 -0.0501
 9398TIP3    H149685   2.862   4.430  13.767 -0.6810 -0.2336  0.3825
 9398TIP3    H249686   2.919   4.510  13.882 -0.6380  0.5845 -0.2016
 9399TIP3   OH249687   4.397   2.122   6.136  0.0624 -0.3419 -0.5563
 9399TIP3    H149688   4.325   2.184   6.141 -1.6240 -2.0130 -2.5644
 9399TIP3    H249689   4.357   2.036   6.150  2.3582 -1.1136  2.4733
 9400TIP3   OH249690   2.137   0.493  14.257 -0.2178  0.7459 -0.1125
 9400TIP3    H149691   2.150   0.468  14.349  0.9698  1.7908  0.0219
 9400TIP3    H249692   2.162   0.414  14.208  0.6751  0.6895  0.4061
 9401TIP3   OH249693   4.309   1.811  14.593 -0.4498  0.5728 -0.3563
 9401TIP3    H149694   4.315   1.842  14.684  0.2703 -0.5410 -0.0084
 9401TIP3    H249695   4.376   1.744  14.586 -2.6861 -1.7694 -0.7254
 9402TIP3   OH249696   5.819   1.912   2.983  0.4525  0.3636 -0.6984
 9402TIP3    H149697   5.742   1.872   2.944 -1.3439  1.8432  1.1238
 9402TIP3    H249698   5.832   1.864   3.065  1.4779  0.1456 -0.9742
 9403TIP3   OH249699   3.623   0.186  13.172  0.2533  0.2555 -0.0863
 9403TIP3    H149700   3.572   0.267  13.171  0.7213  0.5530 -0.5098
 9403TIP3    H249701   3.563   0.119  13.140  0.8578  1.0809 -3.3074
 9404TIP3   OH249702   4.507   1.715  13.824  0.4718 -0.0525 -0.1379
 9404TIP3    H149703   4.570   1.787  13.813  0.2220  0.1658 -0.1563
 9404TIP3    H249704   4.540   1.665  13.898 -0.5119  1.3154  1.2715
 9405TIP3   OH249705   1.487   6.418   1.726 -0.8070 -0.2239 -0.5732
 9405TIP3    H149706   1.437   6.338   1.741 -0.4149 -0.3830 -0.0918
 9405TIP3    H249707   1.478   6.434   1.632  1.2355 -2.3169 -1.2364
 9406TIP3   OH249708   6.374   4.005  11.499 -0.2858 -0.0158 -0.3525
 9406TIP3    H149709   6.430   4.053  11.559  0.0723  0.3639 -0.9919
 9406TIP3    H249710   6.320   3.950  11.557  1.2681 -0.9921  0.2450
 9407TIP3   OH249711   2.634   1.135   5.060 -0.0432 -0.4842 -0.2809
 9407TIP3    H149712   2.646   1.084   4.980  0.1034 -0.0871 -0.5160
 9407TIP3    H249713   2.601   1.072   5.124 -1.7674 -0.4732 -1.1007
 9408TIP3   OH249714   5.105   1.273   5.754 -0.1689  0.2198 -0.5365
 9408TIP3    H149715   5.132   1.359   5.722 -2.0808  1.0177 -0.1520
 9408TIP3    H249716   5.066   1.230   5.678  0.0463  0.0170 -0.5326
 9409TIP3   OH249717   5.645   2.453  11.558 -0.8354  0.0603  0.2606
 9409TIP3    H149718   5.680   2.490  11.477  0.2543  0.1859  0.7666
 9409TIP3    H249719   5.552   2.438  11.540 -1.0747  1.9680 -0.3604
 9410TIP3   OH249720   0.338   5.404   4.669  0.1397  0.0601  0.2663
 9410TIP3    H149721   0.342   5.309   4.666  1.6575 -0.0170  2.5977
 9410TIP3    H249722   0.250   5.424   4.699 -0.8826 -0.4417 -2.1187
 9411TIP3   OH249723   5.344   1.781   0.492 -0.2534  0.2593  0.2182
 9411TIP3    H149724   5.355   1.811   0.402  0.7823  0.1076  0.2818
 9411TIP3    H249725   5.398   1.702   0.497  1.9606  1.7545  1.6957
 9412TIP3   OH249726   5.761   5.046  15.746 -0.7180  0.6435  0.4307
 9412TIP3    H149727   5.672   5.015  15.728  0.3244 -1.2788 -2.0774
 9412TIP3    H249728   5.809   4.968  15.772  0.4445  1.4759  0.8493
 9413TIP3   OH249729   6.630   2.817   2.103 -0.0183  0.5842  0.4696
 9413TIP3    H149730   6.636   2.901   2.058 -1.0061 -0.7691 -2.4667
 9413TIP3    H249731   6.539   2.789   2.090  0.5597 -1.4286  0.3198
 9414TIP3   OH249732   5.534   5.541  14.611 -0.5658 -0.0608 -0.1518
 9414TIP3    H149733   5.474   5.486  14.561  0.3347 -2.2041  0.9676
 9414TIP3    H249734   5.612   5.548  14.556 -0.4430 -0.4623 -0.0310
 9415TIP3   OH249735   3.796   5.592  16.609 -0.0347 -0.8879 -0.4486
 9415TIP3    H149736   3.767   5.509  16.648 -1.4026 -0.8110 -1.2595
 9415TIP3    H249737   3.826   5.644  16.683  1.3651 -2.2935  0.0274
 9416TIP3   OH249738   2.048   5.802  15.968  0.5617 -0.1201  0.4299
 9416TIP3    H149739   2.011   5.840  16.048 -2.8331 -1.7992 -0.1601
 9416TIP3    H249740   1.995   5.838  15.897  1.8551 -0.6253 -0.8427
 9417TIP3   OH249741   4.789   0.840  12.187 -0.1743 -0.7335  0.1192
 9417TIP3    H149742   4.880   0.862  12.168 -0.7929  1.9473 -0.1806
 9417TIP3    H249743   4.783   0.746  12.173  2.2193 -0.7511 -1.2716
 9418TIP3   OH249744   1.814   3.088  11.170 -0.5248 -0.2837 -0.1944
 9418TIP3    H149745   1.772   3.006  11.143 -0.4518 -0.1664 -0.6695
 9418TIP3    H249746   1.784   3.153  11.107 -0.0084 -0.0946 -0.2533
 9419TIP3   OH249747   2.291   3.941   4.933  0.0413  0.2910 -0.5243
 9419TIP3    H149748   2.328   4.007   4.875  0.3298  1.8956  1.3691
 9419TIP3    H249749   2.338   3.861   4.911  0.3596  0.9202 -2.2479
 9420TIP3   OH249750   0.915   2.507  14.989 -0.3690  0.2073  0.2787
 9420TIP3    H149751   0.960   2.574  14.936 -1.6200  1.3564  0.6161
 9420TIP3    H249752   0.945   2.424  14.953  0.5682  0.9525 -0.7277
 9421TIP3   OH249753   4.391   3.173   3.632 -0.2526  0.2741  0.1421
 9421TIP3    H149754   4.465   3.210   3.582  0.4188 -0.5776  0.4931
 9421TIP3    H249755   4.426   3.161   3.720 -0.7980 -0.1802  0.2965
 9422TIP3   OH249756   4.733   5.043   1.312  0.1015  0.5411 -0.5497
 9422TIP3    H149757   4.795   5.074   1.378  0.0489 -1.5712  0.5724
 9422TIP3    H249758   4.654   5.020   1.361  0.3146 -1.7589 -1.1814
 9423TIP3   OH249759   2.661   3.223  14.471 -0.1291  0.5006  0.1588
 9423TIP3    H149760   2.569   3.196  14.459  0.1958 -1.4686  1.6643
 9423TIP3    H249761   2.690   3.247  14.383 -1.8127  0.2063 -0.5160
 9424TIP3   OH249762   5.774   4.002   1.170 -0.0561 -0.1787 -0.0016
 9424TIP3    H149763   5.746   4.076   1.224 -2.4007 -1.0460  0.0693
 9424TIP3    H249764   5.758   3.925   1.225  1.3264 -0.8493 -0.4793
 9425TIP3   OH249765   5.961   0.964  11.953  0.0303 -0.5041 -0.5382
 9425TIP3    H149766   5.939   0.871  11.943  0.5944 -0.7208  0.1542
 9425TIP3    H249767   6.055   0.965  11.970  0.4787  0.3615 -2.7333
 9426TIP3   OH249768   2.885   6.003   4.956 -0.1409 -0.3193  0.2825
 9426TIP3    H149769   2.815   6.068   4.962 -0.6675 -0.3859 -3.2058
 9426TIP3    H249770   2.844   5.921   4.983 -0.9118 -0.0501 -0.0489
 9427TIP3   OH249771   0.127   0.608   1.853  0.3445 -0.0225 -0.5925
 9427TIP3    H149772   0.206   0.661   1.842  0.8215 -0.6596 -0.3228
 9427TIP3    H249773   0.160   0.520   1.872 -0.4262 -0.0531  0.7129
 9428TIP3   OH249774   4.923   0.088  15.208  0.3930  0.2892  0.0248
 9428TIP3    H149775   4.829   0.106  15.211 -0.3225 -2.8134  2.2513
 9428TIP3    H249776   4.961   0.145  15.275  0.1290  1.5049 -0.8357
 9429TIP3   OH249777   5.692   2.896   6.330 -0.6442 -0.6020 -0.7719
 9429TIP3    H149778   5.708   2.940   6.414  1.2472 -1.8439 -0.4333
 9429TIP3    H249779   5.758   2.932   6.272 -0.5365 -1.3522 -1.1174
 9430TIP3   OH249780   4.570   1.001  15.830  0.2200 -0.4267 -0.0088
 9430TIP3    H149781   4.646   1.054  15.855 -0.2807  0.3234 -0.0554
 9430TIP3    H249782   4.546   0.955  15.911  0.5312 -0.4323  0.0844
 9431TIP3   OH249783   0.498   3.200  10.879  0.2792  0.4751 -0.5627
 9431TIP3    H149784   0.446   3.251  10.941 -1.2552 -0.9721 -0.6068
 9431TIP3    H249785   0.437   3.180  10.808  1.2475 -0.2193 -1.2144
 9432TIP3   OH249786   4.931   2.627   2.957  0.0106  0.0932 -0.4888
 9432TIP3    H149787   4.941   2.719   2.934 -1.4030  0.4715  0.2756
 9432TIP3    H249788   4.955   2.580   2.877 -2.3398  1.2706 -2.0188
 9433TIP3   OH249789   1.479   5.122   3.145 -0.1746  0.2420 -0.2732
 9433TIP3    H149790   1.534   5.143   3.221  0.4595 -0.4420 -0.5211
 9433TIP3    H249791   1.467   5.027   3.151 -1.1491  0.3578 -0.3551
 9434TIP3   OH249792   6.678   6.124   0.970  0.4302  0.2722 -0.0001
 9434TIP3    H149793   6.743   6.194   0.968  0.9532 -0.2094  0.1526
 9434TIP3    H249794   6.607   6.156   0.914  0.7334  0.8585 -0.0536
 9435TIP3   OH249795   0.467   0.847   0.117  1.0470 -0.6377 -0.3910
 9435TIP3    H149796   0.480   0.912   0.048  2.6187  0.4660  0.8486
 9435TIP3    H249797   0.552   0.804   0.125  1.4613  0.4512  1.9345
 9436TIP3   OH249798   4.801   0.467  14.784  0.8741  0.1824  0.2069
 9436TIP3    H149799   4.812   0.445  14.691  1.9856 -0.3948  0.4668
 9436TIP3    H249800   4.706   0.474  14.795  0.5010 -2.9449 -0.2571
 9437TIP3   OH249801   3.721   0.253   0.751 -0.0750 -0.0020 -0.3404
 9437TIP3    H149802   3.754   0.310   0.681  0.3787 -0.7289 -0.7316
 9437TIP3    H249803   3.631   0.284   0.765  0.6829  1.9313  0.6673
 9438TIP3   OH249804   4.623   2.616   4.253 -0.3774  0.5148 -0.7813
 9438TIP3    H149805   4.662   2.580   4.173  0.0672 -0.7049 -0.0323
 9438TIP3    H249806   4.585   2.699   4.224  3.7100  2.4557 -1.4218
 9439TIP3   OH249807   2.156   4.133  12.425  0.0439  0.8352 -0.5450
 9439TIP3    H149808   2.123   4.219  12.398 -0.4337  0.9370  0.3189
 9439TIP3    H249809   2.097   4.070  12.383 -0.7204  0.9924  0.2649
 9440TIP3   OH249810   2.808   5.165  14.508  0.4693  0.1634 -0.6209
 9440TIP3    H149811   2.810   5.231  14.578  2.7502  0.7629 -1.1547
 9440TIP3    H249812   2.794   5.215  14.428 -0.1605 -0.2982 -0.8109
 9441TIP3   OH249813   2.315   0.292   5.660 -0.4387  0.3567 -0.1085
 9441TIP3    H149814   2.352   0.380   5.662  0.8753 -0.1716 -0.3820
 9441TIP3    H249815   2.350   0.249   5.737 -2.7839  0.6839  1.2494
 9442TIP3   OH249816   6.396   3.792  11.812  0.0591 -0.5790 -0.6279
 9442TIP3    H149817   6.317   3.813  11.761  0.1931  0.6887 -0.3593
 9442TIP3    H249818   6.458   3.758  11.748 -0.5464 -1.1569 -0.9218
 9443TIP3   OH249819   5.143   5.915   6.531  0.2446  0.8963 -0.1057
 9443TIP3    H149820   5.095   5.871   6.461 -0.4810  2.2136 -0.4901
 9443TIP3    H249821   5.207   5.970   6.485  1.2439  0.1422  0.3610
 9444TIP3   OH249822   5.824   1.657  16.510 -0.0374  0.1604 -0.1522
 9444TIP3    H149823   5.821   1.689  16.420  1.8802 -0.2464 -0.4019
 9444TIP3    H249824   5.827   1.562  16.502  0.4703  0.1303  0.3175
 9445TIP3   OH249825   5.762   3.780   1.566  0.2825 -0.2239 -0.0743
 9445TIP3    H149826   5.789   3.704   1.618  3.7761  0.9999  0.1255
 9445TIP3    H249827   5.696   3.824   1.621  1.9054 -0.4297  2.1830
 9446TIP3   OH249828   1.605   6.216  12.952 -0.0666  0.2669 -0.2070
 9446TIP3    H149829   1.610   6.120  12.957  1.3507  0.1663 -2.2467
 9446TIP3    H249830   1.521   6.238  12.991 -0.8241 -1.8931 -0.4882
 9447TIP3   OH249831   1.226   4.321   3.298 -0.3647 -0.3036 -0.3925
 9447TIP3    H149832   1.241   4.336   3.391  0.3161 -0.4150 -0.4812
 9447TIP3    H249833   1.312   4.329   3.258 -0.5359 -0.9577 -0.9143
 9448TIP3   OH249834   2.264   3.363  10.728 -0.7008  0.2556  0.1103
 9448TIP3    H149835   2.273   3.371  10.823 -3.5889 -1.0088  0.6208
 9448TIP3    H249836   2.224   3.445  10.701 -0.4926  0.3523  0.0963
 9449TIP3   OH249837   2.149   0.174  13.181 -0.2344  0.4051  0.2847
 9449TIP3    H149838   2.096   0.106  13.222  0.0551 -0.2170 -0.3463
 9449TIP3    H249839   2.232   0.173  13.230  0.9197 -1.7576 -1.4942
 9450TIP3   OH249840   5.216   4.869  14.189  0.0889  0.6536 -0.0208
 9450TIP3    H149841   5.145   4.924  14.222 -0.4275  1.4248 -2.2403
 9450TIP3    H249842   5.283   4.931  14.161  1.1144 -0.0296  0.8485
 9451TIP3   OH249843   1.184   6.234   2.593  0.1231 -0.4892  0.2719
 9451TIP3    H149844   1.229   6.317   2.608  0.0424 -0.7447  2.1280
 9451TIP3    H249845   1.091   6.254   2.600 -0.1488 -0.1226 -2.7685
 9452TIP3   OH249846   6.182   6.766   3.949  0.4472 -0.4262 -0.9301
 9452TIP3    H149847   6.260   6.821   3.937 -0.5846  1.5229  0.7706
 9452TIP3    H249848   6.109   6.826   3.937 -0.7286 -1.4022  0.9565
 9453TIP3   OH249849   4.684   3.150  12.378  0.0092 -0.1114  0.5440
 9453TIP3    H149850   4.604   3.196  12.401 -0.6831 -1.0550  0.0688
 9453TIP3    H249851   4.748   3.219  12.362 -1.1529  0.7166 -0.6949
 9454TIP3   OH249852   0.395   0.931   3.801  0.0700  0.0181 -0.4028
 9454TIP3    H149853   0.350   0.848   3.783 -0.2842 -0.2597  1.5975
 9454TIP3    H249854   0.364   0.990   3.732  1.3131 -1.7977 -2.6593
 9455TIP3   OH249855   4.948   1.495   5.102  0.3289  0.1559 -0.7764
 9455TIP3    H149856   4.962   1.478   5.195  0.0134  1.8903 -0.3740
 9455TIP3    H249857   5.021   1.551   5.076  1.0844 -1.2681 -1.9153
 9456TIP3   OH249858   6.293   2.995  14.771 -0.0430 -0.5608 -0.8273
 9456TIP3    H149859   6.206   3.012  14.734  0.0433 -0.5815 -1.0380
 9456TIP3    H249860   6.279   2.995  14.866 -0.0321  0.7599 -0.8105
 9457TIP3   OH249861   6.398   0.914  12.745  0.8449  0.1095 -0.3299
 9457TIP3    H149862   6.354   0.998  12.761  0.8284  0.3714 -1.6781
 9457TIP3    H249863   6.353   0.878  12.669  2.3222 -0.0718 -1.1476
 9458TIP3   OH249864   0.084   0.212   3.754 -0.0682 -0.6546  0.7038
 9458TIP3    H149865   0.082   0.146   3.684 -0.4553  0.8973 -0.8217
 9458TIP3    H249866   0.089   0.296   3.708  0.0215  0.4248  2.5689
 9459TIP3   OH249867   3.503   2.521   4.440 -0.1478 -0.1520  0.1271
 9459TIP3    H149868   3.492   2.601   4.387  1.8550 -0.1519 -0.3572
 9459TIP3    H249869   3.473   2.546   4.527  1.4240  1.5201  0.2531
 9460TIP3   OH249870   5.609   0.438  15.467 -0.4077 -0.4003  0.3949
 9460TIP3    H149871   5.545   0.371  15.489 -0.4663 -0.6270 -0.4153
 9460TIP3    H249872   5.667   0.396  15.403 -0.7888  0.4872 -0.5620
 9461TIP3   OH249873   6.807   0.098   4.817  0.2446 -0.3147  0.2610
 9461TIP3    H149874   6.813   0.011   4.779 -2.0071 -0.3369 -0.2090
 9461TIP3    H249875   6.723   0.132   4.785  1.2221  2.1709  0.1461
 9462TIP3   OH249876   0.340   0.887  12.925  0.3683 -0.2683 -0.7139
 9462TIP3    H149877   0.307   0.876  12.836  0.6276 -0.5046 -0.7836
 9462TIP3    H249878   0.303   0.970  12.955  0.0851 -0.3084 -0.9548
 9463TIP3   OH249879   2.107   5.498  13.545  0.3714  0.1758  0.2967
 9463TIP3    H149880   2.171   5.502  13.474 -0.2661  2.2167 -0.2398
 9463TIP3    H249881   2.148   5.547  13.616  0.5267 -0.8887  0.9696
 9464TIP3   OH249882   0.642   6.367  11.320  0.5216 -0.1267 -0.5180
 9464TIP3    H149883   0.634   6.272  11.323  3.6844 -0.4960  1.0286
 9464TIP3    H249884   0.632   6.390  11.227 -0.5995 -1.8941 -0.8702
 9465TIP3   OH249885   4.109   4.362   5.215  1.4629 -0.1588  0.1443
 9465TIP3    H149886   4.042   4.392   5.154  2.7711  0.9350 -0.8108
 9465TIP3    H249887   4.065   4.295   5.268 -0.1533  0.0022 -0.9287
 9466TIP3   OH249888   5.261   1.229  12.610  0.8617  0.2528 -0.9033
 9466TIP3    H149889   5.205   1.271  12.546 -0.2034 -2.4157 -1.8892
 9466TIP3    H249890   5.309   1.163  12.559  0.9397 -1.0711  0.8062
 9467TIP3   OH249891   3.806   5.987   4.219  0.6691 -0.3604  0.2063
 9467TIP3    H149892   3.739   6.036   4.170 -0.5289 -1.9838  0.1283
 9467TIP3    H249893   3.865   5.953   4.152  0.1820 -0.9079  0.0467
 9468TIP3   OH249894   3.448   1.879  10.413  0.2127  0.3245 -0.3265
 9468TIP3    H149895   3.459   1.938  10.487  0.1012 -1.3353  1.0698
 9468TIP3    H249896   3.431   1.937  10.339 -1.3828  2.0048  1.2339
 9469TIP3   OH249897   1.923   4.222   3.663  0.0875  0.1637  0.5911
 9469TIP3    H149898   1.835   4.185   3.660 -0.0527  0.5172 -1.3908
 9469TIP3    H249899   1.980   4.148   3.682 -0.4526 -0.5096 -0.3502
 9470TIP3   OH249900   2.542   2.048   0.653  0.3333 -0.4046  0.2996
 9470TIP3    H149901   2.563   1.979   0.591  3.0762 -1.5597  2.3003
 9470TIP3    H249902   2.503   2.002   0.728 -0.4071  0.6105  0.5620
 9471TIP3   OH249903   2.685   2.787  13.594  0.4365 -0.5645  0.6627
 9471TIP3    H149904   2.636   2.719  13.641  1.0504 -0.6700  1.1726
 9471TIP3    H249905   2.701   2.751  13.507 -2.3109  0.3635 -0.3129
 9472TIP3   OH249906   4.693   0.046   3.109 -0.1333  0.1580  0.8881
 9472TIP3    H149907   4.679   0.060   3.203  0.5520  2.4244  0.6953
 9472TIP3    H249908   4.636   0.110   3.067  0.0829 -0.3726 -0.2318
 9473TIP3   OH249909   2.813   4.205  15.698  0.1705  0.1118  0.3484
 9473TIP3    H149910   2.835   4.296  15.718  1.6151 -0.2962  0.7055
 9473TIP3    H249911   2.746   4.212  15.629 -0.1702  1.4358  0.7759
 9474TIP3   OH249912   2.817   6.214   6.148 -0.5068 -0.3851  0.1170
 9474TIP3    H149913   2.775   6.287   6.193 -0.9745 -1.5095  1.5864
 9474TIP3    H249914   2.893   6.193   6.203  0.7895  0.2324 -1.3583
 9475TIP3   OH249915   1.434   4.731  14.394 -0.7156 -0.7153  0.0570
 9475TIP3    H149916   1.434   4.666  14.323 -1.0079 -0.4204 -0.2194
 9475TIP3    H249917   1.341   4.744  14.414 -0.6060 -1.5393  1.1900
 9476TIP3   OH249918   2.014   3.865  15.288  0.0862 -0.3129  0.1765
 9476TIP3    H149919   2.082   3.816  15.241 -0.1068 -1.5366  1.1176
 9476TIP3    H249920   1.932   3.830  15.253 -0.0736  0.6451 -0.4362
 9477TIP3   OH249921   4.110   1.676   2.884 -0.1963  0.5771 -0.2268
 9477TIP3    H149922   4.123   1.649   2.975 -0.5595 -0.5335 -0.4948
 9477TIP3    H249923   4.174   1.746   2.871  0.6911 -0.0672  0.5278
 9478TIP3   OH249924   6.310   4.599   4.044 -0.1406  0.1901 -0.0960
 9478TIP3    H149925   6.392   4.638   4.014  0.0665  0.4911  0.8282
 9478TIP3    H249926   6.311   4.510   4.008  0.3470  0.3623 -0.5143
 9479TIP3   OH249927   1.619   1.995   4.621  0.1659 -0.1625 -0.3410
 9479TIP3    H149928   1.632   2.017   4.528  0.3981  0.4798 -0.1625
 9479TIP3    H249929   1.575   2.072   4.657 -1.5414 -1.1357 -0.2939
 9480TIP3   OH249930   6.319   5.457   4.415 -0.1087 -0.1192 -0.8178
 9480TIP3    H149931   6.272   5.505   4.482 -0.0030  0.1875 -0.9640
 9480TIP3    H249932   6.254   5.441   4.346 -1.0863 -3.0291  0.5930
 9481TIP3   OH249933   5.835   3.048   0.047 -0.4011 -0.6282  0.0334
 9481TIP3    H149934   5.916   3.098   0.059 -1.4584  0.6665  2.5213
 9481TIP3    H249935   5.801   3.077  -0.038 -0.4967  2.3020  0.9491
 9482TIP3   OH249936   1.329   4.269  11.058  0.0549  0.4651 -0.3479
 9482TIP3    H149937   1.260   4.334  11.049 -0.5899  0.2726  2.2876
 9482TIP3    H249938   1.347   4.266  11.152  1.6336 -1.5648 -0.6311
 9483TIP3   OH249939   0.080   5.401   2.569 -0.1040 -0.0401  0.1257
 9483TIP3    H149940   0.103   5.417   2.478 -1.1650  0.7339 -0.0280
 9483TIP3    H249941   0.157   5.427   2.619  0.3044 -0.0025 -0.5177
 9484TIP3   OH249942   1.373   2.791  11.369  0.2334 -0.4052  0.3569
 9484TIP3    H149943   1.346   2.766  11.280 -2.1426 -0.9560  1.1699
 9484TIP3    H249944   1.459   2.752  11.379  0.9547  0.3771 -1.9839
 9485TIP3   OH249945   4.137   4.557  11.594 -0.1951  0.4324 -0.1518
 9485TIP3    H149946   4.102   4.607  11.520  1.4714  2.2125  0.1868
 9485TIP3    H249947   4.209   4.506  11.557 -1.8598 -1.8212 -0.4857
 9486TIP3   OH249948   2.377   5.545   1.573 -0.5018  0.0351 -0.5749
 9486TIP3    H149949   2.293   5.520   1.536  0.0128 -1.5949 -0.7088
 9486TIP3    H249950   2.433   5.564   1.498 -0.1765 -0.8555 -0.5666
 9487TIP3   OH249951   5.314   5.722  14.051 -0.0639 -0.4811  0.2465
 9487TIP3    H149952   5.251   5.682  13.991 -0.1087 -0.8479  0.5330
 9487TIP3    H249953   5.397   5.716  14.004 -0.0924 -0.7951  0.2307
 9488TIP3   OH249954   0.595   3.628   5.472  0.5426 -0.1394  0.3565
 9488TIP3    H149955   0.633   3.709   5.436 -0.5480  0.1952 -0.0830
 9488TIP3    H249956   0.640   3.616   5.556  1.0585  0.6650  0.2109
 9489TIP3   OH249957   4.966   0.253  13.527 -0.4255  0.2529 -0.4608
 9489TIP3    H149958   4.876   0.234  13.501 -0.6597 -0.7555  0.9713
 9489TIP3    H249959   5.018   0.232  13.449 -1.1066 -2.5513 -0.2676
 9490TIP3   OH249960   6.005   1.284   1.454 -0.3754 -0.4351  0.4552
 9490TIP3    H149961   6.065   1.273   1.528  0.8129 -0.8976 -0.5368
 9490TIP3    H249962   6.062   1.293   1.378 -1.4675  2.5838 -0.1600
 9491TIP3   OH249963   3.020   6.426  14.405 -0.2561  0.0058 -0.4767
 9491TIP3    H149964   2.980   6.357  14.459 -1.7984  0.9425 -0.3715
 9491TIP3    H249965   3.021   6.389  14.316 -1.0542 -0.1807 -0.4175
 9492TIP3   OH249966   5.272   6.624  15.013 -0.4489  0.6759 -0.1365
 9492TIP3    H149967   5.279   6.709  14.970  1.1341 -0.0631 -1.4562
 9492TIP3    H249968   5.321   6.633  15.094 -0.5590  1.1058 -0.1182
 9493TIP3   OH249969   4.507   3.234  12.822 -0.2100 -0.2208 -0.1932
 9493TIP3    H149970   4.455   3.310  12.850  1.5859  0.4822  1.4819
 9493TIP3    H249971   4.589   3.242  12.871  1.6495 -1.0808 -2.9306
 9494TIP3   OH249972   1.815   2.664  12.334  0.4948 -0.4058  1.3328
 9494TIP3    H149973   1.739   2.686  12.388 -0.9089  2.0840 -1.3577
 9494TIP3    H249974   1.868   2.744  12.334  0.1679 -0.1263 -1.2869
 9495TIP3   OH249975   4.464   3.732   0.061  0.3463  0.5243 -0.5618
 9495TIP3    H149976   4.431   3.704   0.146  2.0741 -0.3471 -0.1246
 9495TIP3    H249977   4.502   3.818   0.077  0.2150  0.5813 -0.5609
 9496TIP3   OH249978   1.534   4.740   1.715  0.3692  0.4308  0.1354
 9496TIP3    H149979   1.592   4.722   1.641 -1.2109  3.1445 -1.9576
 9496TIP3    H249980   1.576   4.813   1.761  0.1950  0.2839  0.5340
 9497TIP3   OH249981   3.551   2.107  13.545  0.2399  0.0527  0.5669
 9497TIP3    H149982   3.639   2.119  13.508  0.1808  0.0848  0.4371
 9497TIP3    H249983   3.564   2.113  13.640  0.5777 -1.1617  0.6194
 9498TIP3   OH249984   3.658   0.046  11.779  0.2457 -0.6352 -0.1761
 9498TIP3    H149985   3.682  -0.046  11.785 -0.1106 -0.7030  0.2582
 9498TIP3    H249986   3.576   0.053  11.828  0.1582 -0.1306 -0.3905
 9499TIP3   OH249987   1.990   3.621  17.184 -0.1738 -0.0617 -0.1915
 9499TIP3    H149988   1.907   3.619  17.138  0.7742 -1.7915 -1.9572
 9499TIP3    H249989   2.051   3.662  17.123  0.4996  0.3351  0.7076
 9500TIP3   OH249990   6.296   2.954   5.306  0.3149 -0.5253  0.3167
 9500TIP3    H149991   6.339   2.942   5.222  0.7039 -0.2313  0.4714
 9500TIP3    H249992   6.293   2.866   5.344  0.1266 -0.6584 -0.0107
 9501TIP3   OH249993   4.006   2.245  16.516  0.6885 -0.2446  0.3168
 9501TIP3    H149994   4.005   2.151  16.535 -1.2014 -0.1311  1.0102
 9501TIP3    H249995   3.941   2.257  16.447  0.6937  0.5886  0.4377
 9502TIP3   OH249996   3.929   4.875   0.542 -0.4298 -0.1050 -0.4937
 9502TIP3    H149997   3.838   4.905   0.535 -1.1515 -1.7253  0.8986
 9502TIP3    H249998   3.923   4.780   0.535  1.0652 -0.2941  0.3152
 9503TIP3   OH249999   2.883   6.720  12.086 -0.4254 -0.0725 -0.0654
 9503TIP3    H150000   2.929   6.802  12.072 -1.2173  0.1514 -1.5069
 9503TIP3    H250001   2.839   6.731  12.171 -0.6530  1.0583 -0.3192
 9504TIP3   OH250002   4.110   5.740  12.977 -0.0875 -0.3233  0.3665
 9504TIP3    H150003   4.068   5.655  12.960 -0.4873 -0.2392  0.9009
 9504TIP3    H250004   4.090   5.758  13.069  0.5894  0.0216  0.4493
 9505TIP3   OH250005   0.249   0.358  13.596 -0.5738 -0.2417 -0.3578
 9505TIP3    H150006   0.331   0.384  13.552  0.0264 -0.3841  0.6530
 9505TIP3    H250007   0.186   0.426  13.571  0.2362  0.6547 -0.0059
 9506TIP3   OH250008   2.147   5.266   1.991  0.0003 -0.1080  1.1023
 9506TIP3    H150009   2.056   5.260   1.963  0.1783 -0.1768  0.5160
 9506TIP3    H250010   2.189   5.323   1.926  0.1181  0.9059  2.0422
 9507TIP3   OH250011   4.172   6.095   1.595  0.4025  0.3648  0.2212
 9507TIP3    H150012   4.198   6.109   1.504 -0.0370 -3.0854 -0.5687
 9507TIP3    H250013   4.115   6.018   1.592 -1.4531  1.4586  3.1829
 9508TIP3   OH250014   0.547   4.420   4.105 -0.1471  0.0199  0.0773
 9508TIP3    H150015   0.589   4.422   4.019  0.6962 -2.0078  0.3811
 9508TIP3    H250016   0.615   4.450   4.166 -0.5755  0.9469  0.1167
 9509TIP3   OH250017   3.488   1.727  15.747 -0.0013  0.7542 -0.0787
 9509TIP3    H150018   3.513   1.732  15.840 -0.4070  0.4469  0.0487
 9509TIP3    H250019   3.402   1.768  15.743 -0.8741 -0.9404  0.0338
 9510TIP3   OH250020   2.288   5.095  11.872 -0.0004  0.3765  0.0474
 9510TIP3    H150021   2.237   5.034  11.819  0.6153  0.0627 -0.1867
 9510TIP3    H250022   2.297   5.053  11.957 -2.5947  1.6788  1.0772
 9511TIP3   OH250023   0.494   6.575   3.956 -0.0030  0.0313 -0.2606
 9511TIP3    H150024   0.507   6.669   3.965  3.1802 -0.0915 -1.8934
 9511TIP3    H250025   0.582   6.540   3.939 -0.9973 -3.2998  0.5992
 9512TIP3   OH250026   0.621   2.282   1.871 -0.0570 -0.0817 -0.0385
 9512TIP3    H150027   0.576   2.258   1.951  1.8030  1.2691  1.5269
 9512TIP3    H250028   0.554   2.324   1.817 -1.4782 -1.5519  0.5153
 9513TIP3   OH250029   4.835   6.085   5.562 -0.0110  0.8673 -0.1974
 9513TIP3    H150030   4.791   6.130   5.634  0.7048  1.8848 -0.3771
 9513TIP3    H250031   4.921   6.060   5.598  0.0709  0.7357 -0.4771
 9514TIP3   OH250032   2.963   3.424  14.361  0.5683 -0.1439 -0.2262
 9514TIP3    H150033   3.043   3.472  14.338 -0.5375  2.1242  0.3643
 9514TIP3    H250034   2.939   3.457  14.447 -0.9077 -0.9210 -0.3105
 9515TIP3   OH250035   1.083   3.233  12.681 -0.4290 -0.4587 -0.6430
 9515TIP3    H150036   1.173   3.222  12.711 -0.2120 -0.6440 -1.3593
 9515TIP3    H250037   1.064   3.326  12.697 -0.0480 -0.3717 -0.6799
 9516TIP3   OH250038   4.196   6.172  16.850 -0.6274  0.2382 -0.2288
 9516TIP3    H150039   4.149   6.119  16.786  0.1514  0.0813 -0.6860
 9516TIP3    H250040   4.139   6.173  16.928 -1.4031  0.1158 -0.7843
 9517TIP3   OH250041   2.129   3.234  11.621  0.0794  0.0928  0.2064
 9517TIP3    H150042   2.167   3.165  11.675 -0.3874 -1.0560 -0.8732
 9517TIP3    H250043   2.039   3.242  11.652 -1.3601 -3.0673 -2.5036
 9518TIP3   OH250044   3.809   1.094  17.094  0.1870 -0.5268  0.4061
 9518TIP3    H150045   3.772   1.026  17.151 -2.3971 -1.1165 -1.7894
 9518TIP3    H250046   3.820   1.051  17.010  1.1013  1.0900 -0.3422
 9519TIP3   OH250047   2.848   0.881   4.872 -0.5036 -0.0413  0.1038
 9519TIP3    H150048   2.942   0.875   4.853 -0.5047  1.5259 -0.5839
 9519TIP3    H250049   2.808   0.904   4.788 -1.4116  0.0413  0.5412
 9520TIP3   OH250050   0.518   5.576   0.561 -0.2297  0.2522 -0.4241
 9520TIP3    H150051   0.592   5.611   0.612 -0.3115  1.7750 -1.2672
 9520TIP3    H250052   0.516   5.631   0.482 -1.9595 -0.0774 -0.6445
 9521TIP3   OH250053   5.662   0.195  11.622  0.2401  0.2899 -0.0764
 9521TIP3    H150054   5.650   0.164  11.532  0.6220 -0.2503  0.0508
 9521TIP3    H250055   5.579   0.235  11.646 -1.2854 -3.0049  0.6939
 9522TIP3   OH250056   6.028   3.229   3.764  0.2321 -0.7574 -0.5519
 9522TIP3    H150057   5.954   3.182   3.804 -1.6111  0.6164 -2.1665
 9522TIP3    H250058   6.099   3.166   3.765 -1.3402 -2.6336 -0.1562
 9523TIP3   OH250059   2.664   4.516   3.954 -0.3130 -0.0496  0.0455
 9523TIP3    H150060   2.692   4.581   3.889  0.2928 -1.3761 -1.0778
 9523TIP3    H250061   2.726   4.527   4.026  0.4540 -0.0952 -0.5925
 9524TIP3   OH250062   4.800   2.087  12.318 -0.1565  0.0458 -0.0849
 9524TIP3    H150063   4.879   2.039  12.342  0.5429  0.6706 -1.0440
 9524TIP3    H250064   4.775   2.135  12.397  1.6159  1.4383 -0.3121
 9525TIP3   OH250065   5.434   0.407  13.448 -0.1954 -0.0983  0.3801
 9525TIP3    H150066   5.434   0.405  13.544 -1.7327 -0.5767  0.4105
 9525TIP3    H250067   5.489   0.334  13.422  1.4199  0.9070  0.8657
 9526TIP3   OH250068   5.535   3.099  13.634  0.0403  0.4474  0.6144
 9526TIP3    H150069   5.450   3.063  13.659  0.0792 -0.3480 -0.3335
 9526TIP3    H250070   5.569   3.138  13.714 -0.4768 -0.7218  1.4305
 9527TIP3   OH250071   0.042   3.139   4.292  0.1360 -0.5169 -0.4899
 9527TIP3    H150072  -0.025   3.150   4.360  0.6321  0.3813 -0.1306
 9527TIP3    H250073   0.071   3.048   4.302  2.2034  0.3261  2.4263
 9528TIP3   OH250074   1.221   5.236   0.068 -0.0652  0.2738  0.5951
 9528TIP3    H150075   1.290   5.298   0.046  1.1358 -0.7796  1.2380
 9528TIP3    H250076   1.141   5.275   0.032  0.9825  1.1181 -0.9420
 9529TIP3   OH250077   0.501   4.535  13.815 -0.2506  0.0745  0.5153
 9529TIP3    H150078   0.458   4.483  13.747  0.8153 -0.5464  0.2913
 9529TIP3    H250079   0.486   4.487  13.896  0.2498 -0.3046  0.3919
 9530TIP3   OH250080   4.839   1.363  15.054 -0.3949  0.1248 -0.3079
 9530TIP3    H150081   4.794   1.286  15.090  1.1698 -0.2537  0.9320
 9530TIP3    H250082   4.919   1.370  15.105  1.0133  0.7375 -2.4557
 9531TIP3   OH250083   2.718   0.297   3.512  0.1727 -0.8896 -0.3907
 9531TIP3    H150084   2.747   0.218   3.558  1.6315 -1.9994 -3.0320
 9531TIP3    H250085   2.789   0.318   3.453  0.6498  3.5594  1.3996
 9532TIP3   OH250086   0.972   1.185  17.070  0.3458  0.8039 -0.3741
 9532TIP3    H150087   0.960   1.106  17.017 -0.3501  0.7513 -0.1494
 9532TIP3    H250088   0.989   1.153  17.158  2.2780  0.8763 -0.6838
 9533TIP3   OH250089   3.459   3.968   4.087 -0.0718 -0.3734 -0.0948
 9533TIP3    H150090   3.402   4.041   4.065  0.2450 -0.3043 -0.7131
 9533TIP3    H250091   3.537   4.008   4.125 -1.0637 -0.5331  2.3334
 9534TIP3   OH250092   6.592   1.673   3.831  0.6166 -0.2860  0.7317
 9534TIP3    H150093   6.499   1.678   3.810  0.8738  0.9070 -0.1986
 9534TIP3    H250094   6.613   1.580   3.826 -0.3713 -0.4913  0.2496
 9535TIP3   OH250095   4.347   2.022  12.703 -0.7215 -0.1321 -0.1779
 9535TIP3    H150096   4.416   1.981  12.652  0.9311 -0.1961  1.9590
 9535TIP3    H250097   4.282   2.050  12.639  0.2520 -2.0200 -2.0768
 9536TIP3   OH250098   6.521   3.389   1.368 -0.5806 -0.2787 -0.7436
 9536TIP3    H150099   6.486   3.476   1.388  0.7606  0.0457  0.3323
 9536TIP3    H250100   6.466   3.330   1.420  1.6823  0.4096  2.7892
 9537TIP3   OH250101   0.637   2.386  11.070  0.0232  0.1301  0.2949
 9537TIP3    H150102   0.613   2.397  11.162 -0.4918 -0.3354  0.2218
 9537TIP3    H250103   0.554   2.372  11.026  0.2170  0.8610 -0.3262
 9538TIP3   OH250104   0.459   0.366  13.136  0.6321 -0.1118 -0.2857
 9538TIP3    H150105   0.416   0.429  13.195 -0.3130  0.7036 -1.7908
 9538TIP3    H250106   0.536   0.412  13.103 -0.1202  0.3420 -1.4730
 9539TIP3   OH250107   4.277   2.806  15.319  0.2896  0.1571 -0.0431
 9539TIP3    H150108   4.209   2.776  15.379  0.7663 -1.4935 -0.2862
 9539TIP3    H250109   4.300   2.894  15.350 -0.0978 -0.3159  1.6446
 9540TIP3   OH250110   6.790   1.932  12.183 -0.1621 -0.0720 -0.2438
 9540TIP3    H150111   6.699   1.926  12.214  0.0143 -1.9638  0.0278
 9540TIP3    H250112   6.802   1.855  12.129  0.9888  0.7244 -1.1654
 9541TIP3   OH250113   2.655   1.886   0.427  0.3434 -0.0029  0.2602
 9541TIP3    H150114   2.668   1.889   0.332  4.6745 -1.2561  0.6061
 9541TIP3    H250115   2.656   1.793   0.450  2.3199  0.3025  1.7133
 9542TIP3   OH250116   1.103   2.374  11.926 -0.6642 -0.2729 -0.3128
 9542TIP3    H150117   1.097   2.355  12.019 -0.1663  1.8371  0.2140
 9542TIP3    H250118   1.073   2.465  11.918  1.3278  0.3334 -1.8663
 9543TIP3   OH250119   1.334   4.300  12.995 -0.2260 -0.1488  0.1284
 9543TIP3    H150120   1.326   4.216  13.041  1.6456  0.1246  1.0417
 9543TIP3    H250121   1.422   4.299  12.958  0.7053  2.2687  2.0090
 9544TIP3   OH250122   5.110   5.070   5.213  0.3613  0.3931 -0.4526
 9544TIP3    H150123   5.166   5.061   5.290  2.4978 -0.0243 -1.9687
 9544TIP3    H250124   5.078   4.982   5.196 -0.2764  0.5206  0.0421
 9545TIP3   OH250125   2.304   4.211  14.375 -0.1099  0.9267 -0.5403
 9545TIP3    H150126   2.301   4.115  14.373  0.0610  0.8693  0.9760
 9545TIP3    H250127   2.231   4.235  14.432 -1.8019  1.8630 -2.9087
 9546TIP3   OH250128   0.594   2.095  15.551  0.0123  0.0127  0.3625
 9546TIP3    H150129   0.582   2.052  15.636  1.0195  2.3564  1.7859
 9546TIP3    H250130   0.687   2.115  15.546 -0.1362  0.5126 -1.0043
 9547TIP3   OH250131   2.122   2.261   2.353  0.8063  0.2712  0.1580
 9547TIP3    H150132   2.174   2.298   2.281 -0.5920 -2.8337 -2.7313
 9547TIP3    H250133   2.031   2.274   2.326  0.2245 -3.5179 -0.3427
 9548TIP3   OH250134   2.071   1.787   6.034 -0.1256  0.5575 -0.7443
 9548TIP3    H150135   2.003   1.854   6.033  1.3556  2.1881  0.9234
 9548TIP3    H250136   2.045   1.727   6.103 -0.5374  0.3897 -1.0381
 9549TIP3   OH250137   5.734   4.935  14.969 -0.0407 -0.0952  0.2225
 9549TIP3    H150138   5.733   4.839  14.962 -0.7430 -0.0644 -0.1572
 9549TIP3    H250139   5.642   4.961  14.963  0.0038  0.5212  1.6424
 9550TIP3   OH250140   5.034   0.589  11.295 -0.0974 -0.0050  0.3550
 9550TIP3    H150141   4.991   0.610  11.378  2.2439  0.3580  1.5587
 9550TIP3    H250142   4.985   0.639  11.230 -1.7602 -0.0041  1.5386
 9551TIP3   OH250143   4.135   3.658   1.658  0.1455  0.3166  0.0075
 9551TIP3    H150144   4.042   3.641   1.650 -0.0576  0.7417  1.2289
 9551TIP3    H250145   4.150   3.666   1.752  1.3590  0.5407 -0.1857
 9552TIP3   OH250146   5.228   6.086  17.034 -0.0358  0.0434 -0.0959
 9552TIP3    H150147   5.291   6.017  17.055 -1.6863 -1.3691  0.4117
 9552TIP3    H250148   5.246   6.109  16.943  2.0555  0.6460  0.4105
 9553TIP3   OH250149   1.219   6.216   3.596  0.6518 -0.5593 -0.3439
 9553TIP3    H150150   1.198   6.123   3.597  0.4994 -0.5321  0.6722
 9553TIP3    H250151   1.313   6.219   3.579  0.3762 -0.8047 -2.1021
 9554TIP3   OH250152   1.485   1.013   1.810  0.3106 -0.2677 -0.0213
 9554TIP3    H150153   1.442   0.959   1.876  0.2875 -0.1158  0.0898
 9554TIP3    H250154   1.556   1.057   1.858 -0.9325  1.4039  0.3983
 9555TIP3   OH250155   2.316   1.550  15.365 -0.1175  0.0345  0.4242
 9555TIP3    H150156   2.321   1.637  15.403 -0.8904  0.2947 -0.0525
 9555TIP3    H250157   2.250   1.504  15.417 -0.3207  0.0078  0.1458
 9556TIP3   OH250158   3.709   2.134   1.875 -0.4041  0.4845 -0.3296
 9556TIP3    H150159   3.717   2.095   1.962 -0.6714 -0.7325 -0.8356
 9556TIP3    H250160   3.744   2.223   1.886  0.9662 -0.1293  0.6867
 9557TIP3   OH250161   5.310   2.853  16.873 -0.6558 -0.5639 -0.0318
 9557TIP3    H150162   5.253   2.930  16.881  0.1564 -0.0140  0.6688
 9557TIP3    H250163   5.278   2.807  16.796 -2.0761 -0.2911  0.3570
 9558TIP3   OH250164   5.841   3.643  11.630 -0.3373  0.3347 -0.4441
 9558TIP3    H150165   5.854   3.650  11.536 -0.3796  0.5157 -0.4370
 9558TIP3    H250166   5.783   3.716  11.652 -0.1253  0.4453 -0.2415
 9559TIP3   OH250167   5.027   6.636  12.970  0.2364 -0.6736  0.2729
 9559TIP3    H150168   5.082   6.713  12.963  0.4454 -0.7821  0.6707
 9559TIP3    H250169   5.088   6.564  12.984 -0.0486 -0.6050  2.2226
 9560TIP3   OH250170   6.161   1.878  15.213  0.4423  0.0714  0.0547
 9560TIP3    H150171   6.152   1.847  15.123 -2.1237  1.4945 -0.2943
 9560TIP3    H250172   6.099   1.825  15.263  0.4188  0.5821  0.5813
 9561TIP3   OH250173   4.101   5.957  14.293 -0.3908 -0.2952  0.3787
 9561TIP3    H150174   4.019   5.944  14.246 -0.6183  0.9812  0.3864
 9561TIP3    H250175   4.169   5.949  14.226 -0.6125 -0.0414  0.1239
 9562TIP3   OH250176   5.707   1.659  15.215 -0.4065  0.6588 -0.0548
 9562TIP3    H150177   5.710   1.685  15.123  2.0812  2.6515  0.4771
 9562TIP3    H250178   5.722   1.565  15.213  0.4202  0.7773 -1.6700
 9563TIP3   OH250179   5.891   6.447  11.720 -0.4610 -0.2430 -0.6415
 9563TIP3    H150180   5.918   6.425  11.630 -0.8493  0.2841 -0.8901
 9563TIP3    H250181   5.803   6.481  11.711 -0.7819 -0.8556  0.0350
 9564TIP3   OH250182   3.720   1.988  16.600  0.0748 -0.2149  0.0843
 9564TIP3    H150183   3.796   1.938  16.570  0.6374  0.2719  0.6639
 9564TIP3    H250184   3.688   2.033  16.522  1.8035  1.4194  0.2397
 9565TIP3   OH250185   5.334   5.298  13.657  0.0994 -0.3401  0.1755
 9565TIP3    H150186   5.241   5.321  13.652  0.1741 -0.2535 -1.9685
 9565TIP3    H250187   5.344   5.228  13.593  1.5054 -0.3574  0.3890
 9566TIP3   OH250188   3.439   1.020  17.186  0.3467  0.2849  0.0111
 9566TIP3    H150189   3.365   1.045  17.130 -0.5753 -1.5207  0.3453
 9566TIP3    H250190   3.405   0.949  17.240  1.6100  1.0910  1.9668
 9567TIP3   OH250191   0.751   2.267  11.634 -0.1243  0.1784  0.0744
 9567TIP3    H150192   0.765   2.223  11.717 -1.0372  1.4986  0.9716
 9567TIP3    H250193   0.769   2.360  11.653 -1.4804  0.6729 -0.8827
 9568TIP3   OH250194   2.227   5.423   2.481  0.1720 -0.0188  0.9060
 9568TIP3    H150195   2.205   5.371   2.403  1.2923  0.1804  0.4407
 9568TIP3    H250196   2.223   5.514   2.451 -2.4664  0.2822  1.8859
 9569TIP3   OH250197   4.145   0.276   1.921 -0.5459 -0.6823 -0.0913
 9569TIP3    H150198   4.085   0.286   1.846 -0.6705 -1.6288 -0.1317
 9569TIP3    H250199   4.162   0.182   1.925  1.0650 -0.4087 -0.1620
 9570TIP3   OH250200   2.339   4.324  14.812 -0.1335 -0.3255  0.4814
 9570TIP3    H150201   2.343   4.418  14.800  0.3981 -0.5156 -1.1106
 9570TIP3    H250202   2.251   4.308  14.848 -0.7726  0.6642 -0.5477
 9571TIP3   OH250203   5.749   5.865  13.584 -0.8561  0.2072  0.3343
 9571TIP3    H150204   5.690   5.819  13.524  0.8500  0.6654 -1.8101
 9571TIP3    H250205   5.691   5.925  13.632 -2.2246  0.4441 -1.4764
 9572TIP3   OH250206   4.931   0.645  16.784 -0.1230  0.0185  0.0439
 9572TIP3    H150207   4.839   0.645  16.811 -0.0561  0.4297  0.2832
 9572TIP3    H250208   4.929   0.623  16.691 -0.2698 -2.8281  0.6244
 9573TIP3   OH250209   5.932   5.253   2.571  0.4559 -0.0845 -0.6689
 9573TIP3    H150210   5.962   5.344   2.581 -0.4188  0.1124  0.2776
 9573TIP3    H250211   5.838   5.257   2.589  0.6952 -1.4496  1.1555
 9574TIP3   OH250212   4.920   2.388  17.034  0.2512 -0.3955  0.3972
 9574TIP3    H150213   4.923   2.469  16.984  2.0001 -1.1853 -0.8822
 9574TIP3    H250214   5.006   2.381  17.075  0.1288 -1.5759  0.5036
 9575TIP3   OH250215   2.601   2.227  15.809 -0.0984 -1.1709 -0.1336
 9575TIP3    H150216   2.635   2.255  15.724 -2.4153  0.4693 -0.6525
 9575TIP3    H250217   2.650   2.279  15.873 -1.6287  1.3921 -0.8656
 9576TIP3   OH250218   1.995   1.218   3.635  0.4225 -0.1253 -0.6780
 9576TIP3    H150219   1.980   1.128   3.664  0.0261 -0.3963 -1.6835
 9576TIP3    H250220   2.087   1.218   3.606  0.3804 -0.2519 -0.8168
 9577TIP3   OH250221   3.748   2.739  16.372 -0.6913  0.1006  0.2224
 9577TIP3    H150222   3.687   2.677  16.332 -1.3386  1.7624 -1.5251
 9577TIP3    H250223   3.711   2.826  16.352  1.1746  1.1112  0.9009
 9578TIP3   OH250224   3.337   1.592   1.423 -0.1764 -0.3833 -0.5459
 9578TIP3    H150225   3.324   1.602   1.517 -0.1438  0.0052 -0.5791
 9578TIP3    H250226   3.417   1.642   1.404 -0.0687 -0.6292 -0.7469
 9579TIP3   OH250227   4.779   6.137  12.141  0.1175  0.5333 -0.2178
 9579TIP3    H150228   4.695   6.107  12.177  1.4040  0.8404  3.4349
 9579TIP3    H250229   4.834   6.059  12.140  0.2888  0.6547 -1.1134
 9580TIP3   OH250230   4.158   1.908   3.346 -0.5545  0.2443 -0.0762
 9580TIP3    H150231   4.186   1.929   3.435  1.0826  1.3459 -0.8046
 9580TIP3    H250232   4.129   1.991   3.310 -0.8526 -0.1266 -0.6962
 9581TIP3   OH250233   2.080   0.372   5.270 -0.1402  0.0698 -0.7992
 9581TIP3    H150234   2.151   0.309   5.287  1.4713  2.3384  1.7534
 9581TIP3    H250235   2.103   0.411   5.185  1.4570  0.3991 -0.2557
 9582TIP3   OH250236   4.072   4.147   4.221 -0.1468 -0.2268  0.0491
 9582TIP3    H150237   4.025   4.213   4.271  2.0323  1.5930 -0.1667
 9582TIP3    H250238   4.105   4.085   4.287 -0.2754  0.1838  0.5004
 9583TIP3   OH250239   2.996   1.595  13.016 -0.9155  0.1341 -0.3884
 9583TIP3    H150240   2.932   1.557  12.956 -1.2298  0.4554 -0.2623
 9583TIP3    H250241   2.943   1.639  13.082 -0.6127 -1.0904  0.7217
 9584TIP3   OH250242   2.071   4.842  11.967  0.0806  0.2190  0.4943
 9584TIP3    H150243   2.128   4.796  11.905 -1.6453 -2.8782  0.9980
 9584TIP3    H250244   2.123   4.847  12.047  0.6529 -0.0004  0.1436
 9585TIP3   OH250245   5.127   0.357  11.185 -0.7596  0.2932 -0.0264
 9585TIP3    H150246   5.106   0.444  11.219 -0.3235  0.5300 -0.3630
 9585TIP3    H250247   5.094   0.297  11.253  0.3653  0.7698  0.9859
 9586TIP3   OH250248   4.897   5.131  12.631  0.1751 -0.5242 -0.0447
 9586TIP3    H150249   4.926   5.045  12.603  1.2617  0.3136 -1.5956
 9586TIP3    H250250   4.878   5.120  12.725  1.4330 -2.1513  0.0676
 9587TIP3   OH250251   5.805   5.744  16.734  0.0494  0.3686  0.5272
 9587TIP3    H150252   5.857   5.729  16.655 -0.7599  0.3374 -0.0082
 9587TIP3    H250253   5.860   5.711  16.805  0.8790  0.6004  0.0054
 9588TIP3   OH250254   3.802   1.786   0.859  1.1687 -0.6036 -0.4700
 9588TIP3    H150255   3.860   1.733   0.804  1.3079 -2.1288  1.0748
 9588TIP3    H250256   3.805   1.744   0.945 -0.7549  0.4166  0.1497
 9589TIP3   OH250257   6.279   2.990  15.550  0.1755 -0.0737  0.0398
 9589TIP3    H150258   6.188   3.011  15.569  0.2910  0.3539  0.1216
 9589TIP3    H250259   6.275   2.939  15.469 -0.2183 -0.9158  0.5786
 9590TIP3   OH250260   3.851   2.357   5.961 -0.1481 -0.4002 -0.2008
 9590TIP3    H150261   3.898   2.401   6.031  3.0987 -0.7734 -1.9457
 9590TIP3    H250262   3.861   2.264   5.981  0.2233 -0.4902 -0.7755
 9591TIP3   OH250263   0.891   2.899  11.287  0.3939 -0.0445  0.1888
 9591TIP3    H150264   0.959   2.957  11.252 -0.7236  0.3873 -1.3746
 9591TIP3    H250265   0.821   2.958  11.315 -0.0950 -0.5682  0.0897
 9592TIP3   OH250266   2.190   1.021   5.233 -0.0803 -0.5904 -0.3073
 9592TIP3    H150267   2.122   1.078   5.270 -1.8573 -2.4557 -0.5208
 9592TIP3    H250268   2.142   0.958   5.180  1.9299 -1.5044 -1.1365
 9593TIP3   OH250269   4.134   5.076   1.258 -0.0115  0.1643  0.0612
 9593TIP3    H150270   4.112   5.040   1.344  4.3160  0.0050  1.3249
 9593TIP3    H250271   4.137   5.000   1.201  2.9141 -0.7976  1.2932
 9594TIP3   OH250272   4.185   2.207  12.170 -0.2662  0.4307  0.2591
 9594TIP3    H150273   4.235   2.194  12.089  0.8893  2.5846  0.5455
 9594TIP3    H250274   4.242   2.174  12.239 -1.0130 -0.8760  0.2800
 9595TIP3   OH250275   3.502   2.868   0.151 -0.0293 -0.2106 -0.0077
 9595TIP3    H150276   3.501   2.834   0.061 -1.9403  2.8149 -1.3034
 9595TIP3    H250277   3.411   2.864   0.179  0.2687  0.5278  1.1310
 9596TIP3   OH250278   4.811   6.020   6.085 -0.2542  0.1027 -0.2723
 9596TIP3    H150279   4.810   6.025   6.181 -1.9479 -0.9263 -0.2008
 9596TIP3    H250280   4.846   5.933   6.066 -3.6377 -1.3987 -0.3874
 9597TIP3   OH250281   0.711   3.800   5.275 -0.0170  0.5678  0.2191
 9597TIP3    H150282   0.665   3.726   5.235  0.4682  0.5377 -0.2999
 9597TIP3    H250283   0.796   3.803   5.230  0.6424  0.3933  1.4124
 9598TIP3   OH250284   0.858   2.026   3.774  0.3731 -0.2918  0.2603
 9598TIP3    H150285   0.794   1.958   3.794  1.3669 -1.1907  0.5231
 9598TIP3    H250286   0.847   2.090   3.844 -0.8453  0.0273 -0.2087
 9599TIP3   OH250287   3.583   1.238  13.652  0.6642 -0.2762  0.0355
 9599TIP3    H150288   3.566   1.282  13.736  0.4432  0.0785 -0.1918
 9599TIP3    H250289   3.584   1.309  13.588  0.3948 -0.5956 -0.3274
 9600TIP3   OH250290   4.057   0.195   0.628 -0.0350  0.4634  0.1248
 9600TIP3    H150291   4.100   0.116   0.661  0.3550  0.1536 -1.0634
 9600TIP3    H250292   4.116   0.227   0.559 -0.8665  0.9968 -0.3508
 9601TIP3   OH250293   1.499   5.700   0.723  0.1393  0.0585  0.0763
 9601TIP3    H150294   1.463   5.720   0.809  0.0956  1.0114 -0.1564
 9601TIP3    H250295   1.432   5.646   0.681 -1.1039  1.9199 -0.4082
 9602TIP3   OH250296   4.776   3.461   1.103 -0.1629  0.1712  0.0511
 9602TIP3    H150297   4.856   3.413   1.082 -1.1247 -1.3889 -0.2708
 9602TIP3    H250298   4.766   3.452   1.198  0.0254  0.3337  0.0858
 9603TIP3   OH250299   6.191   5.469   4.918 -0.0417 -0.5319 -0.2421
 9603TIP3    H150300   6.194   5.532   4.990  0.1563 -1.4726  0.5896
 9603TIP3    H250301   6.104   5.478   4.881 -0.0325  0.1908 -0.0958
 9604TIP3   OH250302   3.145   4.120   0.950 -0.3397  0.3946  0.2732
 9604TIP3    H150303   3.049   4.117   0.941 -0.6628  1.3104  2.6622
 9604TIP3    H250304   3.171   4.200   0.905 -0.6338 -0.0506 -0.7118
 9605TIP3   OH250305   0.510   5.800  15.124  0.0709  0.0418 -0.2150
 9605TIP3    H150306   0.602   5.789  15.097  0.4313 -2.5867  1.6457
 9605TIP3    H250307   0.462   5.738  15.069 -0.4104  0.4549 -0.2635
 9606TIP3   OH250308   3.933   3.307   5.929  0.1797 -0.3448  0.4256
 9606TIP3    H150309   3.865   3.251   5.966  1.9302 -2.1563  1.0765
 9606TIP3    H250310   3.984   3.248   5.873  0.5033  1.2476 -1.0384
 9607TIP3   OH250311   2.746   2.592  15.918  0.1139 -0.3166 -0.4733
 9607TIP3    H150312   2.744   2.511  15.969 -2.8586 -1.2221 -1.7693
 9607TIP3    H250313   2.660   2.632  15.935  0.5855  1.3242 -1.7539
 9608TIP3   OH250314   0.813   1.669   5.815  0.1254 -0.2498 -0.0494
 9608TIP3    H150315   0.829   1.599   5.878  0.5627  0.3760  0.5625
 9608TIP3    H250316   0.860   1.642   5.736  1.5271  0.0142  0.6567
 9609TIP3   OH250317   0.897   3.818  12.190 -0.3389 -0.9995 -0.3945
 9609TIP3    H150318   0.917   3.725  12.205  0.4445 -0.9106 -0.8379
 9609TIP3    H250319   0.892   3.826  12.094  0.9059 -0.3373 -0.4310
 9610TIP3   OH250320   2.069   0.938   0.722  0.4034 -0.3019 -0.2940
 9610TIP3    H150321   2.162   0.917   0.715 -0.0567 -2.9915  0.2939
 9610TIP3    H250322   2.025   0.854   0.709 -1.8718  0.6286  0.8747
 9611TIP3   OH250323   3.096   1.812  12.549 -0.0017  0.1342  0.6166
 9611TIP3    H150324   3.106   1.904  12.572 -2.4909  0.5754  0.3014
 9611TIP3    H250325   3.038   1.813  12.473 -0.2010 -1.6925  0.7000
 9612TIP3   OH250326   0.008   0.971   3.913  0.8044 -0.5150 -0.0360
 9612TIP3    H150327  -0.076   1.010   3.887 -0.3238  0.0904  3.9304
 9612TIP3    H250328  -0.016   0.888   3.953  2.4419 -1.5641 -1.0925
 9613TIP3   OH250329   3.592   1.446  14.839  0.0456  0.3317  0.3922
 9613TIP3    H150330   3.629   1.370  14.794  2.2821  1.2332  0.5890
 9613TIP3    H250331   3.511   1.413  14.877 -0.5624 -1.1541 -1.9962
 9614TIP3   OH250332   5.140   0.882  11.845 -0.2760  0.3968  0.2198
 9614TIP3    H150333   5.045   0.891  11.833 -0.1172  0.7208 -0.8616
 9614TIP3    H250334   5.176   0.966  11.818  0.4095 -0.1315 -0.5456
 9615TIP3   OH250335   6.118   3.571  13.110  0.5036  0.1256  0.6654
 9615TIP3    H150336   6.162   3.524  13.181  0.8485  1.5968  1.4734
 9615TIP3    H250337   6.154   3.660  13.114  0.5708  0.2450 -1.4078
 9616TIP3   OH250338   4.620   6.785  13.926 -0.0785  0.1931 -0.7936
 9616TIP3    H150339   4.686   6.776  13.857  0.7598 -1.8085  0.1815
 9616TIP3    H250340   4.667   6.767  14.007 -1.1348  2.0847  0.3195
 9617TIP3   OH250341   0.031   1.562   5.325  0.0093  0.2251  0.4626
 9617TIP3    H150342   0.081   1.637   5.292 -1.6026  1.0112 -0.2863
 9617TIP3    H250343  -0.059   1.594   5.330 -0.9017 -1.9624 -0.8878
 9618TIP3   OH250344   5.672   2.586   4.699  0.5212  0.2671 -0.3169
 9618TIP3    H150345   5.657   2.668   4.652 -1.0867  1.2107  1.7029
 9618TIP3    H250346   5.587   2.564   4.737  0.5633 -3.0459 -1.7973
 9619TIP3   OH250347   2.206   2.817  13.181 -0.4228 -0.1109 -0.4852
 9619TIP3    H150348   2.183   2.771  13.100 -1.5879 -1.6874  0.6649
 9619TIP3    H250349   2.138   2.884  13.190 -0.6770 -0.3721 -0.4640
 9620TIP3   OH250350   4.337   2.620  14.054 -0.1852 -0.1634 -0.2818
 9620TIP3    H150351   4.276   2.683  14.093  0.6362  0.5907 -0.1896
 9620TIP3    H250352   4.413   2.622  14.112  1.0021  0.8628 -1.8108
 9621TIP3   OH250353   3.741   1.100  12.057 -0.1150 -0.2429 -0.4396
 9621TIP3    H150354   3.786   1.153  11.992 -0.6767  0.0779 -0.5709
 9621TIP3    H250355   3.675   1.052  12.008  0.4493 -1.1460 -0.3374
 9622TIP3   OH250356   6.730   4.067   3.284  0.2915 -0.6280 -1.1556
 9622TIP3    H150357   6.806   4.075   3.342  0.2304 -1.7055 -0.9029
 9622TIP3    H250358   6.756   4.003   3.218 -0.3549 -0.9532 -1.1102
 9623TIP3   OH250359   5.994   5.805  13.083  0.8508  0.0084 -0.0497
 9623TIP3    H150360   5.958   5.724  13.120  1.3137 -1.1668 -2.0348
 9623TIP3    H250361   6.089   5.790  13.081  0.9757  0.7560 -0.1245
 9624TIP3   OH250362   6.073   0.067  14.024 -0.0478  0.7421 -0.2291
 9624TIP3    H150363   5.984   0.086  14.054 -0.7885  0.1177 -1.9430
 9624TIP3    H250364   6.072  -0.026  14.002  0.8459  0.8739 -0.8808
 9625TIP3   OH250365   0.611   0.750  15.857  0.1647 -0.2299 -0.2246
 9625TIP3    H150366   0.557   0.829  15.856  0.3684 -0.0869 -1.2216
 9625TIP3    H250367   0.550   0.679  15.837  0.2621 -0.1072 -1.0205
 9626TIP3   OH250368   1.490   1.981  12.596 -0.3773 -0.3201  0.2884
 9626TIP3    H150369   1.415   1.955  12.543 -0.0022  0.4201 -0.6373
 9626TIP3    H250370   1.556   1.913  12.581 -1.4180 -1.9592  2.4946
 9627TIP3   OH250371   3.951   0.161   0.266 -0.4070  0.7814  0.0936
 9627TIP3    H150372   4.005   0.091   0.301  1.0753  1.7070 -0.2737
 9627TIP3    H250373   3.877   0.167   0.326 -1.6300 -2.3537 -0.9053
 9628TIP3   OH250374   4.987   5.927  14.345 -0.2210 -0.6722 -0.0139
 9628TIP3    H150375   5.048   5.911  14.417 -1.4858  1.2597  1.6204
 9628TIP3    H250376   4.900   5.922  14.385 -0.9594  0.9859 -1.2583
 9629TIP3   OH250377   3.463   2.860   2.362 -0.1133 -0.7179 -0.3160
 9629TIP3    H150378   3.431   2.774   2.390 -0.2816  0.0516  2.1501
 9629TIP3    H250379   3.403   2.922   2.404  1.4345  0.6522 -0.0179
 9630TIP3   OH250380   3.839   2.237   1.223 -0.7641  0.0427 -0.3790
 9630TIP3    H150381   3.753   2.279   1.218 -1.0956 -0.0632  2.6625
 9630TIP3    H250382   3.896   2.302   1.264  0.8750  0.3551 -2.9377
 9631TIP3   OH250383   3.397   3.977  12.881 -0.5425 -0.1653 -0.2440
 9631TIP3    H150384   3.347   3.926  12.817  2.2712  0.1201 -2.8954
 9631TIP3    H250385   3.382   4.068  12.857  0.9652 -0.0696 -0.9699
 9632TIP3   OH250386   6.008   4.520  13.148  0.3739  0.2428  0.4356
 9632TIP3    H150387   6.006   4.454  13.078 -1.5865 -1.3744  1.9085
 9632TIP3    H250388   5.938   4.581  13.124  0.6814  0.5257  0.2476
 9633TIP3   OH250389   0.218   5.500  16.916 -0.3433 -0.2862  0.1557
 9633TIP3    H150390   0.250   5.474  17.002  0.5115  0.4742  0.0882
 9633TIP3    H250391   0.128   5.528  16.931 -0.2376 -0.2654  0.7769
 9634TIP3   OH250392   0.416   3.555  13.774  0.4623  0.4837 -0.1356
 9634TIP3    H150393   0.403   3.598  13.859 -0.5671 -1.2992  0.6552
 9634TIP3    H250394   0.454   3.470  13.795 -1.0806 -0.5602 -1.3229
 9635TIP3   OH250395   4.815   0.816   5.110 -0.1428 -0.6458  0.9903
 9635TIP3    H150396   4.891   0.758   5.101  0.2614 -0.0175  0.1912
 9635TIP3    H250397   4.811   0.863   5.026 -0.3313  0.6312  1.6907
 9636TIP3   OH250398   2.680   0.087   5.266 -0.4768 -0.1835 -0.2468
 9636TIP3    H150399   2.764   0.089   5.220 -0.2257 -0.4342  0.1962
 9636TIP3    H250400   2.666  -0.006   5.287  0.0658  0.0788  1.3722
 9637TIP3   OH250401   3.057   2.490  16.552  0.2747 -0.0850 -0.4807
 9637TIP3    H150402   2.993   2.517  16.618 -1.1192 -4.5176  0.2639
 9637TIP3    H250403   3.005   2.448  16.484  2.0745  0.5820 -2.3760
 9638TIP3   OH250404   4.769   6.312   2.461 -0.1146 -0.0564  0.7497
 9638TIP3    H150405   4.691   6.272   2.422  1.2801 -1.4287 -0.8011
 9638TIP3    H250406   4.797   6.250   2.529 -0.0349  0.1195  0.8787
 9639TIP3   OH250407   6.791   2.840   3.384 -0.6686 -0.3686  0.0460
 9639TIP3    H150408   6.754   2.928   3.391 -2.3057 -0.9121 -1.0642
 9639TIP3    H250409   6.883   2.851   3.406 -1.0328  1.4396  0.9137
 9640TIP3   OH250410   3.815   1.679   4.283  0.2213 -0.1956  0.1749
 9640TIP3    H150411   3.750   1.730   4.234  0.8631 -0.5590 -1.1176
 9640TIP3    H250412   3.825   1.726   4.365 -0.8684  0.4802 -0.0573
 9641TIP3   OH250413   3.516   5.566   2.676 -0.4053 -0.4049  0.4020
 9641TIP3    H150414   3.590   5.543   2.619 -0.7110  1.8257 -1.0238
 9641TIP3    H250415   3.557   5.602   2.755  0.0785  1.3687 -0.6242
 9642TIP3   OH250416   2.805   6.341   3.302  0.0679  0.1055 -0.7610
 9642TIP3    H150417   2.724   6.310   3.260 -1.3996 -0.0575  2.0098
 9642TIP3    H250418   2.851   6.260   3.326  0.9749  0.2003 -2.0765
 9643TIP3   OH250419   3.998   0.076  14.174 -0.2605  0.6965  0.3681
 9643TIP3    H150420   4.090   0.082  14.148 -0.3901  0.9375 -0.0320
 9643TIP3    H250421   3.959   0.016  14.110 -0.7697  1.9477 -0.5336
 9644TIP3   OH250422   6.079   3.136  10.528  0.0390  0.0917 -0.1044
 9644TIP3    H150423   6.030   3.054  10.531 -0.0895  0.1842  1.0553
 9644TIP3    H250424   6.143   3.124  10.458  0.0194 -0.9981  0.0522
 9645TIP3   OH250425   2.399   3.255   4.618  0.0162  0.3130  0.3817
 9645TIP3    H150426   2.305   3.247   4.602  0.3499 -0.1983 -1.5808
 9645TIP3    H250427   2.415   3.200   4.695 -1.1038 -0.6081 -0.0147
 9646TIP3   OH250428   4.338   0.189  12.896  0.0465 -0.4065 -0.5353
 9646TIP3    H150429   4.264   0.128  12.905 -0.3569  0.3334  2.1442
 9646TIP3    H250430   4.302   0.273  12.925  1.7217  0.1489  0.0164
 9647TIP3   OH250431   3.625   5.476  16.417 -0.1420 -0.3909 -0.4215
 9647TIP3    H150432   3.629   5.547  16.481  1.0266 -1.0049  0.2290
 9647TIP3    H250433   3.538   5.438  16.428 -0.1692 -0.1091  0.3945
 9648TIP3   OH250434   2.443   3.093   5.140  0.5805 -0.5148  0.0622
 9648TIP3    H150435   2.505   3.021   5.151  1.7221  0.3504 -0.4678
 9648TIP3    H250436   2.361   3.060   5.177  1.5028 -1.4798  1.3408
 9649TIP3   OH250437   2.165   2.854   2.236  0.0301  0.0739 -0.6830
 9649TIP3    H150438   2.151   2.787   2.304 -1.6353  2.2217  1.2484
 9649TIP3    H250439   2.077   2.882   2.212  0.6823  2.1355 -0.8135
 9650TIP3   OH250440   4.679   0.520   3.004  0.0552  0.3172  0.4452
 9650TIP3    H150441   4.668   0.593   2.943 -0.5220 -1.2556 -1.4304
 9650TIP3    H250442   4.773   0.502   3.004  0.2657  1.3373  1.2980
 9651TIP3   OH250443   4.302   0.187  14.776 -0.4867 -0.3755  0.4767
 9651TIP3    H150444   4.282   0.105  14.732  0.3104 -1.2722  1.7437
 9651TIP3    H250445   4.296   0.253  14.707  2.4381 -1.9130 -1.4117
 9652TIP3   OH250446   1.753   1.343   0.573  0.1011 -0.0141  0.6182
 9652TIP3    H150447   1.728   1.259   0.534  0.4865  0.2279 -0.1581
 9652TIP3    H250448   1.849   1.340   0.577  0.0718 -0.0749  1.6567
 9653TIP3   OH250449   3.470   4.176   4.394 -0.2293  0.3130 -0.0033
 9653TIP3    H150450   3.486   4.099   4.339 -1.0299  0.1927 -0.0844
 9653TIP3    H250451   3.451   4.246   4.332 -2.5876 -0.1545  0.0963
 9654TIP3   OH250452   2.292   4.739   3.093 -1.0071 -0.1837 -0.1822
 9654TIP3    H150453   2.226   4.722   3.025  0.2567 -0.0652 -1.4936
 9654TIP3    H250454   2.308   4.654   3.132 -1.3454 -0.3589 -0.4156
 9655TIP3   OH250455   0.935   5.250  13.777  0.0237  0.3182 -0.5437
 9655TIP3    H150456   0.996   5.176  13.771  0.8190  0.9697 -0.6282
 9655TIP3    H250457   0.972   5.316  13.719 -0.2781  1.0801  0.1212
 9656TIP3   OH250458   0.960   5.670   3.652 -0.5112 -0.1234  0.0964
 9656TIP3    H150459   0.915   5.689   3.735 -1.3543 -0.0716 -0.3708
 9656TIP3    H250460   0.890   5.649   3.590  0.0936  0.1424 -0.6899
 9657TIP3   OH250461   4.094   1.588   6.463 -0.8020  0.4361 -0.7606
 9657TIP3    H150462   4.125   1.597   6.553  1.0303  0.4940 -1.3696
 9657TIP3    H250463   4.073   1.495   6.454 -0.8080  0.3960 -0.3275
 9658TIP3   OH250464   3.647   2.677   2.073 -0.8119 -0.2158  0.1162
 9658TIP3    H150465   3.683   2.643   2.155 -1.5929  0.4472  0.7546
 9658TIP3    H250466   3.565   2.629   2.061 -1.4294  0.7177  0.5092
 9659TIP3   OH250467   1.897   2.103  12.493  0.1229 -0.4412  0.0631
 9659TIP3    H150468   1.957   2.103  12.418 -0.4616 -0.3111 -0.4124
 9659TIP3    H250469   1.811   2.124  12.456  0.2221  2.1408  1.0851
 9660TIP3   OH250470   1.347   3.968   6.025  0.1168 -0.6500 -0.2351
 9660TIP3    H150471   1.300   4.041   6.066  1.5340 -0.8273  1.8737
 9660TIP3    H250472   1.303   3.890   6.059  0.6760 -0.7928  0.1721
 9661TIP3   OH250473   1.037   0.633  11.363 -0.5075  0.3406 -0.1238
 9661TIP3    H150474   1.107   0.640  11.298 -1.4866  1.1246 -1.1349
 9661TIP3    H250475   1.071   0.679  11.440  1.9726 -3.2849  1.2117
 9662TIP3   OH250476   0.261   3.825   3.101 -0.2101 -0.2444  0.1994
 9662TIP3    H150477   0.290   3.764   3.034  0.3296 -1.7811  1.7531
 9662TIP3    H250478   0.207   3.772   3.160  1.5316  0.3461  2.4522
 9663TIP3   OH250479   5.042   1.124   0.843  0.2402  0.0771 -0.2502
 9663TIP3    H150480   5.052   1.040   0.887 -0.0912 -1.0984 -2.2615
 9663TIP3    H250481   4.964   1.163   0.882 -0.5408 -1.3129 -0.3574
 9664TIP3   OH250482   6.189   6.332  13.383  0.5204 -0.0855  0.0953
 9664TIP3    H150483   6.162   6.320  13.474 -2.0815  1.6259 -0.3540
 9664TIP3    H250484   6.202   6.426  13.374 -0.1642 -0.1125 -1.5229
 9665TIP3   OH250485   2.505   0.737   1.616 -0.0797  0.4554  0.3945
 9665TIP3    H150486   2.541   0.682   1.685 -1.7433 -1.7592 -0.3999
 9665TIP3    H250487   2.489   0.821   1.658  1.9629  0.2009  1.8202
 9666TIP3   OH250488   3.469   6.165  14.037 -0.0307  0.2979 -0.2178
 9666TIP3    H150489   3.504   6.173  13.949  0.6371 -0.3710 -0.0225
 9666TIP3    H250490   3.544   6.183  14.094 -0.1176 -0.6340  0.2113
 9667TIP3   OH250491   3.282   4.344   0.912 -0.2049  0.6245  0.1923
 9667TIP3    H150492   3.359   4.289   0.925 -1.2352 -0.5942  1.4114
 9667TIP3    H250493   3.290   4.413   0.978 -0.2421  0.3860  0.4478
 9668TIP3   OH250494   5.134   5.968   2.853 -0.9907  0.1087 -0.0280
 9668TIP3    H150495   5.072   5.898   2.829  1.1688 -1.3204 -1.8486
 9668TIP3    H250496   5.139   5.964   2.948  0.4559 -3.6464 -0.0924
 9669TIP3   OH250497   3.371   0.660  12.567  0.0245 -1.0277 -0.6174
 9669TIP3    H150498   3.331   0.689  12.485  1.8252  0.1587 -1.1206
 9669TIP3    H250499   3.462   0.642  12.545 -0.1590 -3.8188  0.4593
 9670TIP3   OH250500   3.154   4.227   5.604 -0.1524  0.1374 -1.1023
 9670TIP3    H150501   3.095   4.231   5.679  0.5136 -2.6536 -0.3322
 9670TIP3    H250502   3.097   4.242   5.528 -1.1762  1.0619 -0.1760
 9671TIP3   OH250503   0.581   2.188  12.890  0.1584  0.3588 -0.0373
 9671TIP3    H150504   0.517   2.155  12.952  1.7132 -0.7049  1.0829
 9671TIP3    H250505   0.537   2.186  12.805 -1.4275  0.1779  0.7614
 9672TIP3   OH250506   5.936   3.710   1.199  0.4686 -0.2129  0.2430
 9672TIP3    H150507   5.870   3.645   1.224  1.4440 -0.3118  2.8834
 9672TIP3    H250508   5.988   3.667   1.132 -0.0378 -1.4593  0.6277
 9673TIP3   OH250509   2.806   0.442  15.391  0.3350 -0.0842  0.0155
 9673TIP3    H150510   2.717   0.430  15.357  0.3099 -1.1861  0.4344
 9673TIP3    H250511   2.841   0.353  15.398  1.2351  0.2956  0.4897
 9674TIP3   OH250512   1.381   6.153  11.536  0.1441  0.2418 -0.2595
 9674TIP3    H150513   1.361   6.084  11.473  0.6081  0.1703 -0.3290
 9674TIP3    H250514   1.464   6.128  11.575 -0.4680 -0.0677  0.8896
 9675TIP3   OH250515   4.671   5.152  13.562  0.0072 -0.3128  0.4786
 9675TIP3    H150516   4.748   5.197  13.597  0.4463  0.2099 -1.0545
 9675TIP3    H250517   4.704   5.103  13.487 -0.9679 -1.0018  0.4773
 9676TIP3   OH250518   5.122   2.448   3.156  0.0478 -0.0105  0.1036
 9676TIP3    H150519   5.146   2.455   3.063  1.7032  0.5235  0.5389
 9676TIP3    H250520   5.027   2.453   3.156  0.0331  0.5271 -1.5331
 9677TIP3   OH250521   4.953   2.695  14.884  0.4188  0.0774  0.1397
 9677TIP3    H150522   5.023   2.692  14.950  1.8664  0.5927 -1.2894
 9677TIP3    H250523   4.956   2.608  14.843  2.0092  0.8768 -1.6022
 9678TIP3   OH250524   2.260   2.070   3.363  0.3259 -0.1927  0.4827
 9678TIP3    H150525   2.287   2.121   3.439 -0.4372  0.0596  0.6021
 9678TIP3    H250526   2.206   2.131   3.312 -0.2752 -0.7636  0.4222
 9679TIP3   OH250527   1.806   2.479  12.694  0.4497 -0.6550 -0.0430
 9679TIP3    H150528   1.870   2.427  12.742  0.5205 -0.0872  0.4864
 9679TIP3    H250529   1.724   2.429  12.701  0.3949 -0.4318  0.9105
 9680TIP3   OH250530   5.790   1.019   1.883 -0.6029 -0.3902  0.0060
 9680TIP3    H150531   5.698   1.034   1.863 -0.6039 -0.3985  0.0036
 9680TIP3    H250532   5.801   0.924   1.873 -1.1036 -0.7112  2.0685
 9681TIP3   OH250533   0.197   2.788  15.520 -0.2515  0.2576  0.3062
 9681TIP3    H150534   0.218   2.709  15.570 -0.9074 -0.1443 -0.0390
 9681TIP3    H250535   0.274   2.843  15.529  0.5865 -0.7967 -0.1875
 9682TIP3   OH250536   1.646   5.132   0.379 -0.8415  0.4512 -0.3694
 9682TIP3    H150537   1.601   5.052   0.407  0.4620 -0.1177  0.1975
 9682TIP3    H250538   1.600   5.158   0.299 -0.9535 -1.1824 -0.8810
 9683TIP3   OH250539   5.654   6.614  14.144 -0.1444  0.8685 -0.4235
 9683TIP3    H150540   5.566   6.584  14.121  0.6608 -1.7391 -0.5085
 9683TIP3    H250541   5.697   6.628  14.060  0.6842 -1.9242 -0.5914
 9684TIP3   OH250542   4.729   0.316  15.017 -0.7629 -0.6452 -0.3196
 9684TIP3    H150543   4.724   0.325  14.922 -0.1359 -0.0185 -0.3065
 9684TIP3    H250544   4.781   0.237  15.031 -1.5101 -1.1768 -0.4840
 9685TIP3   OH250545   1.879   5.715  14.737 -0.0573  0.7436  0.0840
 9685TIP3    H150546   1.876   5.625  14.771  1.8773  1.0746  1.2820
 9685TIP3    H250547   1.972   5.736  14.734 -0.5142  3.2988  1.4340
 9686TIP3   OH250548   5.382   6.490   4.942  0.6547 -0.3763 -0.1995
 9686TIP3    H150549   5.362   6.428   5.012  0.2462 -1.9548 -1.6300
 9686TIP3    H250550   5.418   6.435   4.872  0.7385  1.0872 -1.3510
 9687TIP3   OH250551   2.022   0.836   3.253  0.3229 -0.1307  0.3068
 9687TIP3    H150552   1.992   0.789   3.175  0.3815 -1.0170  0.7991
 9687TIP3    H250553   1.971   0.798   3.324  0.8556  0.0857  0.8078
 9688TIP3   OH250554   6.552   6.181  15.429  0.5754 -0.1832  0.3167
 9688TIP3    H150555   6.520   6.211  15.514  0.8112  1.1116 -0.0385
 9688TIP3    H250556   6.483   6.124  15.396 -0.2035  0.5350  0.6937
 9689TIP3   OH250557   6.520   1.972  15.632  0.5841  0.5347 -0.1232
 9689TIP3    H150558   6.606   1.988  15.669  1.3171 -1.2146 -0.9278
 9689TIP3    H250559   6.519   2.021  15.549  1.3839 -0.5443 -0.7986
 9690TIP3   OH250560   1.375   2.987   1.010  0.5522  0.2636 -0.2175
 9690TIP3    H150561   1.427   2.929   0.954  0.8667  0.4593 -0.1328
 9690TIP3    H250562   1.288   2.987   0.970  0.7287  0.2673 -0.6111
 9691TIP3   OH250563   0.846   0.759  15.056  0.0304  0.2825  0.5794
 9691TIP3    H150564   0.898   0.679  15.063 -0.0836  0.1251 -0.3441
 9691TIP3    H250565   0.789   0.745  14.980  1.7306  2.1931 -1.1691
 9692TIP3   OH250566   1.947   2.764  11.715  0.0523  0.8529 -0.5255
 9692TIP3    H150567   1.969   2.826  11.785  1.8288  0.8376 -1.0437
 9692TIP3    H250568   2.020   2.769  11.654 -0.1027 -1.2284 -0.9509
 9693TIP3   OH250569   2.591   0.566   0.203  0.0502 -0.2452  0.4192
 9693TIP3    H150570   2.619   0.497   0.143 -0.3337 -0.1306  0.1021
 9693TIP3    H250571   2.625   0.647   0.164 -1.5950  0.0263 -0.5602
 9694TIP3   OH250572   3.395   5.798  12.015 -0.6763  0.3047  0.0485
 9694TIP3    H150573   3.480   5.805  11.972  0.3427  0.0602  1.9193
 9694TIP3    H250574   3.378   5.885  12.051 -0.4391 -0.0152  0.9897
 9695TIP3   OH250575   4.378   4.661   5.037  0.4671  0.5600  0.4298
 9695TIP3    H150576   4.431   4.595   5.082  1.5556 -1.1529 -3.0252
 9695TIP3    H250577   4.309   4.611   4.993 -0.2804  2.0610 -0.1858
 9696TIP3   OH250578   0.583   0.385   2.181  0.5422 -0.2276  0.5681
 9696TIP3    H150579   0.591   0.339   2.097  0.6980 -2.5150  1.7733
 9696TIP3    H250580   0.495   0.423   2.179 -0.3626 -2.2003  0.2462
 9697TIP3   OH250581   1.076   6.097  11.123  0.4325  0.1856  0.2418
 9697TIP3    H150582   1.127   6.170  11.087  0.8021 -0.4738 -0.6238
 9697TIP3    H250583   1.094   6.099  11.217  0.1326  1.4299  0.2996
 9698TIP3   OH250584   4.232   2.166  15.405 -0.1155  0.0283 -0.0807
 9698TIP3    H150585   4.151   2.216  15.416 -0.2830 -0.2071 -0.2198
 9698TIP3    H250586   4.299   2.232  15.388  0.0297  0.3592  1.6139
 9699TIP3   OH250587   2.344   0.944  16.635 -0.4148 -0.3774 -0.7100
 9699TIP3    H150588   2.270   0.989  16.593 -0.7249 -0.4496 -0.2520
 9699TIP3    H250589   2.414   0.949  16.570 -0.3722  0.9458 -0.5967
 9700TIP3   OH250590   3.289   5.164   4.817  0.1296 -0.1300  0.0213
 9700TIP3    H150591   3.340   5.232   4.861  0.0725  1.0067 -1.5858
 9700TIP3    H250592   3.283   5.194   4.726  0.2119 -2.3540 -0.7784
 9701TIP3   OH250593   2.531   5.883   0.751  0.2873  0.0208 -0.1106
 9701TIP3    H150594   2.521   5.868   0.657 -0.8921  0.5821 -0.0931
 9701TIP3    H250595   2.570   5.970   0.757 -0.1361  0.2122 -0.0810
 9702TIP3   OH250596   2.285   1.911  16.431  0.5036 -1.2540  0.1858
 9702TIP3    H150597   2.263   1.906  16.338  0.6117 -0.6041  0.1201
 9702TIP3    H250598   2.225   1.850  16.473  0.0622 -1.1245 -0.2437
 9703TIP3   OH250599   6.565   4.594   5.410 -0.4381 -0.1937  0.3507
 9703TIP3    H150600   6.485   4.608   5.460 -0.9382 -1.0168 -0.1844
 9703TIP3    H250601   6.623   4.547   5.470 -0.2414  0.6334  0.8265
 9704TIP3   OH250602   2.431   5.136   1.672 -0.8831 -0.1239 -0.2560
 9704TIP3    H150603   2.369   5.209   1.677  0.5215  1.0054  2.6123
 9704TIP3    H250604   2.507   5.172   1.626 -0.2132  0.2684  1.1072
 9705TIP3   OH250605   2.951   4.359   2.431 -0.7758 -0.2925  0.1676
 9705TIP3    H150606   2.894   4.361   2.354  0.5210  0.4279 -0.7999
 9705TIP3    H250607   3.022   4.420   2.410  0.2468 -1.0072  1.4341
 9706TIP3   OH250608   6.405   6.454   1.367  0.0169 -0.0511 -0.5833
 9706TIP3    H150609   6.455   6.392   1.421 -0.9855  0.2950  0.7814
 9706TIP3    H250610   6.380   6.523   1.427 -0.7401  0.5944 -1.6169
 9707TIP3   OH250611   1.151   0.557  15.349  0.0966 -0.8848 -0.6521
 9707TIP3    H150612   1.224   0.580  15.406  0.0075 -2.4834  0.1508
 9707TIP3    H250613   1.120   0.472  15.381 -1.6221 -0.6243 -1.4589
 9708TIP3   OH250614   5.054   0.201   5.628 -0.5911 -0.9001 -0.8590
 9708TIP3    H150615   5.122   0.253   5.585 -1.1714  0.7634  0.1514
 9708TIP3    H250616   5.100   0.124   5.662  1.1033  0.8195  0.9559
 9709TIP3   OH250617   4.127   4.095   4.586  0.1004 -0.9269  0.1283
 9709TIP3    H150618   4.152   4.004   4.569 -2.3691 -2.0233  1.7949
 9709TIP3    H250619   4.192   4.147   4.538  1.8955 -3.5273 -0.4821
 9710TIP3   OH250620   6.503   2.183  13.493  0.2902 -0.3862 -0.0336
 9710TIP3    H150621   6.442   2.177  13.567 -2.3715  0.4765 -1.9661
 9710TIP3    H250622   6.540   2.272  13.499 -0.6932  0.0547 -0.2295
 9711TIP3   OH250623   4.918   5.216  11.884 -0.5942 -0.2546  0.3655
 9711TIP3    H150624   4.953   5.279  11.947 -2.6501 -0.3389  1.7276
 9711TIP3    H250625   4.914   5.134  11.933  0.1619 -0.9514 -0.7311
 9712TIP3   OH250626   4.660   1.289   3.487 -0.5909 -0.6134  0.1619
 9712TIP3    H150627   4.724   1.218   3.487  0.7895  0.5500  1.7611
 9712TIP3    H250628   4.584   1.253   3.531  1.0429 -0.4418  3.4659
 9713TIP3   OH250629   0.985   2.038  11.368 -0.1197 -0.1127 -0.2337
 9713TIP3    H150630   0.896   2.038  11.403  0.1008 -1.0962  0.3710
 9713TIP3    H250631   1.007   1.946  11.358  0.8814  0.1142 -0.2594
 9714TIP3   OH250632   4.181   5.232  16.363  0.5385  0.5777 -0.1907
 9714TIP3    H150633   4.263   5.214  16.409  0.1448 -0.0117  0.2988
 9714TIP3    H250634   4.208   5.281  16.286  1.2857  0.9709  0.2990
 9715TIP3   OH250635   0.592   3.504   3.703  0.6785  0.1237 -0.2736
 9715TIP3    H150636   0.556   3.491   3.615 -0.8249  1.3823  0.1020
 9715TIP3    H250637   0.514   3.506   3.760  1.4153  1.7613  0.7539
 9716TIP3   OH250638   3.649   2.920  13.126  0.0256  0.1728 -0.2941
 9716TIP3    H150639   3.713   2.991  13.132  0.2129 -0.0932  1.4009
 9716TIP3    H250640   3.656   2.888  13.037  1.0633  1.2500 -0.6197
 9717TIP3   OH250641   6.416   6.635  13.122 -0.5101  0.3926  0.0189
 9717TIP3    H150642   6.369   6.619  13.040  0.6153  0.8806 -0.7566
 9717TIP3    H250643   6.425   6.731  13.126  0.5105  0.3066  0.0713
 9718TIP3   OH250644   1.430   2.134  15.684 -0.1738 -0.1709  0.4910
 9718TIP3    H150645   1.414   2.147  15.777 -0.6853 -3.7040  1.0108
 9718TIP3    H250646   1.373   2.062  15.659  1.8740 -1.0884 -1.9334
 9719TIP3   OH250647   1.900   5.119   2.176  0.1507  0.2125  0.1916
 9719TIP3    H150648   1.864   5.111   2.088 -0.4511  0.8336  0.3728
 9719TIP3    H250649   1.953   5.040   2.187 -2.7951 -1.8992  0.6500
 9720TIP3   OH250650   5.196   2.027  15.216  0.1285  0.1520  0.3542
 9720TIP3    H150651   5.268   1.964  15.221  1.8446  2.0234  0.9686
 9720TIP3    H250652   5.240   2.110  15.196 -1.9580  1.2664  0.1652
 9721TIP3   OH250653   4.457   1.579  12.448 -1.0659  0.6988  0.0534
 9721TIP3    H150654   4.474   1.505  12.506  0.9279  0.2198 -1.0414
 9721TIP3    H250655   4.385   1.550  12.392  0.2941 -0.8603 -0.9861
 9722TIP3   OH250656   1.857   4.042   0.011  0.3693  0.1356 -0.5532
 9722TIP3    H150657   1.935   3.994  -0.018  1.1660  1.8224 -1.3034
 9722TIP3    H250658   1.871   4.056   0.105 -0.4499 -2.0756 -0.0324
 9723TIP3   OH250659   6.015   3.581   1.444 -0.2045 -0.2603 -0.5394
 9723TIP3    H150660   5.929   3.621   1.457 -0.7443 -1.5512  0.0836
 9723TIP3    H250661   6.018   3.559   1.351 -0.0544  0.8183 -0.8098
 9724TIP3   OH250662   2.865   4.500  14.147  0.5403 -0.1266  0.1482
 9724TIP3    H150663   2.954   4.509  14.113  0.4465  0.6198  0.0914
 9724TIP3    H250664   2.867   4.540  14.233  0.2886 -0.2333  0.2057
 9725TIP3   OH250665   2.159   5.996   4.778  0.3965 -0.1709 -0.5059
 9725TIP3    H150666   2.113   6.079   4.793  0.2070 -0.1095 -1.3793
 9725TIP3    H250667   2.250   6.022   4.760  0.5021 -0.2079 -0.0425
 9726TIP3   OH250668   2.192   3.311   1.674  0.2481 -0.0949 -0.8874
 9726TIP3    H150669   2.206   3.401   1.702  1.7478 -0.1862 -1.2404
 9726TIP3    H250670   2.126   3.317   1.605 -1.1823  0.4718  0.4789
 9727TIP3   OH250671   5.521   0.832  12.064  0.2156 -0.2039 -0.1431
 9727TIP3    H150672   5.585   0.793  12.124  1.3731 -1.0404 -1.8298
 9727TIP3    H250673   5.570   0.901  12.019 -0.3665 -0.1830 -0.7616
 9728TIP3   OH250674   3.097   0.632   5.722 -0.1371 -0.1623  0.9758
 9728TIP3    H150675   3.169   0.691   5.745  0.6714 -0.7363 -0.0172
 9728TIP3    H250676   3.135   0.570   5.660 -1.0966 -1.4227  1.5971
 9729TIP3   OH250677   3.126   0.990  16.662  0.1852 -0.2674  0.1964
 9729TIP3    H150678   3.035   1.006  16.686  0.6640  1.3450  1.0913
 9729TIP3    H250679   3.149   0.908  16.706 -0.1353  0.5853  2.0565
 9730TIP3   OH250680   5.389   5.866  16.302  0.0510 -0.1935 -0.1387
 9730TIP3    H150681   5.403   5.953  16.339 -0.0298  0.2902 -1.2383
 9730TIP3    H250682   5.476   5.827  16.297  0.2303  0.2749 -0.7327
 9731TIP3   OH250683   0.930   4.284  16.864 -0.7423  0.2864 -0.7546
 9731TIP3    H150684   0.912   4.256  16.774  1.3527  0.2857 -1.2421
 9731TIP3    H250685   0.845   4.311  16.899 -1.7430 -0.5160 -2.4405
 9732TIP3   OH250686   3.980   1.977  14.668  1.2115  0.5268  0.0689
 9732TIP3    H150687   3.913   1.948  14.730  1.2367  0.1276 -0.0837
 9732TIP3    H250688   3.983   2.072  14.678  1.6175  0.4174  1.0878
 9733TIP3   OH250689   3.143   1.846  15.443  0.4674  0.2897 -0.2003
 9733TIP3    H150690   3.128   1.765  15.491 -1.2661  1.1787  0.8769
 9733TIP3    H250691   3.104   1.831  15.357  0.7187 -0.2148 -0.2281
 9734TIP3   OH250692   1.844   2.045   4.978 -0.5873 -0.0906 -0.3274
 9734TIP3    H150693   1.894   2.008   4.905 -0.8399 -0.3236 -0.3826
 9734TIP3    H250694   1.761   1.996   4.978 -1.1719  0.8498 -0.7738
 9735TIP3   OH250695   5.577   5.459   4.914  0.2396  0.3198  0.0443
 9735TIP3    H150696   5.513   5.410   4.965  0.8512 -1.2320 -0.6186
 9735TIP3    H250697   5.529   5.487   4.836  0.0053  0.4019  0.2160
 9736TIP3   OH250698   6.199   3.190   5.939 -0.5490  0.6183 -0.2764
 9736TIP3    H150699   6.110   3.224   5.946 -0.7388  0.4282 -1.5040
 9736TIP3    H250700   6.244   3.254   5.884 -0.5220 -0.3402 -1.4207
 9737TIP3   OH250701   3.522   3.011   3.449 -0.5643  0.1216 -0.2014
 9737TIP3    H150702   3.516   2.970   3.363 -1.1770  1.3050 -0.7471
 9737TIP3    H250703   3.436   3.051   3.463 -0.2433  0.5474  0.6539
 9738TIP3   OH250704   0.433   3.954  14.112 -0.5569  0.0496  0.3570
 9738TIP3    H150705   0.429   4.008  14.034  1.4863 -0.4416 -0.1333
 9738TIP3    H250706   0.479   4.007  14.176  1.9993 -1.2059 -0.3116
 9739TIP3   OH250707   6.617   2.354   4.989  0.1907 -0.0013 -0.2913
 9739TIP3    H150708   6.608   2.424   4.923 -1.7480  0.2539  0.1811
 9739TIP3    H250709   6.711   2.344   5.000  0.6033  0.1382 -2.9061
 9740TIP3   OH250710   4.067   1.137   0.180  0.0089 -0.7280  0.1951
 9740TIP3    H150711   4.129   1.155   0.251 -0.4100 -0.1887  0.4321
 9740TIP3    H250712   4.110   1.070   0.127  0.9539 -0.1120  0.1561
 9741TIP3   OH250713   5.030   2.589  16.473  0.1991 -0.6566 -0.1898
 9741TIP3    H150714   5.029   2.625  16.561 -0.9603 -0.8152 -0.1229
 9741TIP3    H250715   4.954   2.532  16.469 -0.0764 -0.2294 -1.4582
 9742TIP3   OH250716   4.589   1.793   5.803 -0.2267  0.0863  0.0265
 9742TIP3    H150717   4.655   1.845   5.757 -0.5786 -0.4856 -1.1811
 9742TIP3    H250718   4.509   1.807   5.752 -0.2091 -2.0414 -0.6669
 9743TIP3   OH250719   2.698   6.822  13.088 -0.0002  0.2662  0.0645
 9743TIP3    H150720   2.752   6.884  13.138 -1.0241  0.0015  1.5639
 9743TIP3    H250721   2.612   6.825  13.131 -0.9181 -0.0167 -1.6898
 9744TIP3   OH250722   4.781   4.997  13.937 -0.1173 -0.0258  0.0730
 9744TIP3    H150723   4.807   4.963  14.023  0.0761  0.4947  0.2207
 9744TIP3    H250724   4.763   5.090  13.951  1.1714  0.3714 -0.7001
 9745TIP3   OH250725   5.493   4.039  13.848 -0.4080 -0.0690 -0.6902
 9745TIP3    H150726   5.493   4.037  13.753 -0.4431 -0.3409 -0.6838
 9745TIP3    H250727   5.509   3.949  13.875 -1.0273 -0.1106 -0.4358
 9746TIP3   OH250728   4.038   1.526  11.342 -0.0060  0.1259 -0.6638
 9746TIP3    H150729   4.001   1.456  11.395  0.4239 -0.1244 -0.6941
 9746TIP3    H250730   4.131   1.524  11.362  0.2018 -0.1553 -1.6421
 9747TIP3   OH250731   0.451   2.400   3.453  0.4708  0.0687 -0.4610
 9747TIP3    H150732   0.384   2.342   3.415  0.6057 -0.0616 -0.5002
 9747TIP3    H250733   0.534   2.359   3.429  0.6145 -2.2086  3.2319
 9748TIP3   OH250734   0.177   0.693  15.735  0.5950 -0.1620 -0.0307
 9748TIP3    H150735   0.207   0.777  15.768 -2.7737  2.0740 -2.0529
 9748TIP3    H250736   0.095   0.676  15.781  0.7724 -1.9475 -0.2842
 9749TIP3   OH250737   6.232   3.788   0.291 -0.3540 -0.2248  0.1591
 9749TIP3    H150738   6.156   3.808   0.236 -1.7325  1.8796  2.5795
 9749TIP3    H250739   6.208   3.705   0.333 -1.2676  0.2814  0.6948
 9750TIP3   OH250740   3.630   0.679   4.361  0.4653  0.4849  0.2727
 9750TIP3    H150741   3.636   0.587   4.387  0.5002 -0.5402 -2.9304
 9750TIP3    H250742   3.536   0.694   4.350  0.5797 -0.4206 -2.8004
 9751TIP3   OH250743   2.678   2.841  16.137 -0.1854  0.0599  1.2116
 9751TIP3    H150744   2.682   2.885  16.223 -1.9761  1.0066  0.8511
 9751TIP3    H250745   2.657   2.750  16.158 -0.4438  0.2435  1.7827
 9752TIP3   OH250746   0.089   3.944   2.602 -0.2467 -0.0256 -0.0667
 9752TIP3    H150747   0.111   3.867   2.653  0.3584  0.7976  0.9517
 9752TIP3    H250748   0.170   3.967   2.556  0.6526  1.9722  2.3110
 9753TIP3   OH250749   1.281   1.579   2.386 -0.0989  0.6415  0.0621
 9753TIP3    H150750   1.351   1.518   2.363 -0.6385 -0.0329  0.1579
 9753TIP3    H250751   1.292   1.595   2.479 -0.2020  0.3554  0.1256
 9754TIP3   OH250752   2.243   5.344  15.371  0.4199  0.4571 -0.2704
 9754TIP3    H150753   2.247   5.359  15.276  0.3607  0.8677 -0.2121
 9754TIP3    H250754   2.153   5.317  15.387  0.2167  1.1446 -0.2309
 9755TIP3   OH250755   4.979   3.880   0.854 -0.0861  0.9465 -0.2128
 9755TIP3    H150756   5.016   3.792   0.861 -0.3171  0.9468  1.3806
 9755TIP3    H250757   4.885   3.867   0.843 -0.0276  0.9972 -0.8268
 9756TIP3   OH250758   1.796   1.272   0.099 -0.3911  0.0949  0.2130
 9756TIP3    H150759   1.717   1.219   0.096  0.1098 -0.7945  1.5920
 9756TIP3    H250760   1.796   1.311   0.186 -0.3060  1.7002 -0.4743
 9757TIP3   OH250761   3.795   2.267  12.123  0.4264  1.1157 -0.6191
 9757TIP3    H150762   3.713   2.231  12.155  0.9700 -0.5040 -0.9710
 9757TIP3    H250763   3.862   2.232  12.181  1.1353  0.2739 -1.8849
 9758TIP3   OH250764   1.269   6.009  12.098  0.4258  0.0754  0.0905
 9758TIP3    H150765   1.298   5.932  12.147  3.1186  0.9959  0.1491
 9758TIP3    H250766   1.330   6.078  12.124 -0.1681  1.5056 -2.0021
 9759TIP3   OH250767   6.349   1.109  13.678 -0.3248  0.1035 -0.3390
 9759TIP3    H150768   6.313   1.067  13.756  0.5027  0.2294  0.1345
 9759TIP3    H250769   6.394   1.187  13.713  2.8244 -1.4944 -0.4887
 9760TIP3   OH250770   4.675   5.501   3.481  0.3224  0.0093  0.1447
 9760TIP3    H150771   4.677   5.543   3.567 -0.6358  1.3298 -0.4372
 9760TIP3    H250772   4.767   5.485   3.460  0.5581 -0.5356  1.4911
 9761TIP3   OH250773   0.774   3.055   0.213 -0.1846 -0.1102 -0.0174
 9761TIP3    H150774   0.710   3.066   0.142 -1.0730 -1.4084  0.5366
 9761TIP3    H250775   0.858   3.079   0.173 -0.7922  0.1178 -1.2269
 9762TIP3   OH250776   2.644   0.197   5.514 -0.0041  0.4103  0.3191
 9762TIP3    H150777   2.671   0.148   5.437  1.2230  0.7383  0.5245
 9762TIP3    H250778   2.710   0.266   5.523 -0.7433  1.0522  1.0289
 9763TIP3   OH250779   1.484   2.342  11.248  0.2407 -0.5231  0.1410
 9763TIP3    H150780   1.404   2.377  11.210  1.1546 -0.1815 -1.5421
 9763TIP3    H250781   1.466   2.250  11.263 -0.9264 -0.1625  1.1201
 9764TIP3   OH250782   0.318   2.687  16.500  0.6534 -0.6066 -0.4674
 9764TIP3    H150783   0.347   2.778  16.492  1.3740 -0.7983 -0.0802
 9764TIP3    H250784   0.301   2.674  16.593 -2.1166 -0.0919 -0.8039
 9765TIP3   OH250785   6.458   2.229  17.157  0.1056 -0.6326  0.6147
 9765TIP3    H150786   6.545   2.266  17.144  0.0880 -0.7017  0.2878
 9765TIP3    H250787   6.464   2.139  17.124 -0.1741 -0.5355  0.2851
 9766TIP3   OH250788   5.448   5.113  14.954  0.0607  0.4342  0.1018
 9766TIP3    H150789   5.524   5.165  14.925  1.5419 -1.4659  0.3804
 9766TIP3    H250790   5.413   5.076  14.873 -0.3860  1.0434  0.0088
 9767TIP3   OH250791   2.086   2.717   4.143  0.2454 -0.1389 -0.4651
 9767TIP3    H150792   2.167   2.745   4.185  1.4774 -2.3715 -1.1941
 9767TIP3    H250793   2.058   2.640   4.193 -1.4241  0.5569 -0.2666
 9768TIP3   OH250794   5.557   2.355   3.847  0.1574 -0.1900 -0.4975
 9768TIP3    H150795   5.598   2.359   3.934  1.6560  1.1773 -1.1984
 9768TIP3    H250796   5.632   2.355   3.786 -0.8682  1.1482 -1.8258
 9769TIP3   OH250797   2.188   5.517   0.465 -0.3465 -0.0351  0.5374
 9769TIP3    H150798   2.096   5.491   0.469  0.1285 -2.0392 -0.4976
 9769TIP3    H250799   2.210   5.536   0.556 -1.5385 -0.4796  0.9481
 9770TIP3   OH250800   3.669   3.033   1.409  0.1823 -0.8298 -0.0010
 9770TIP3    H150801   3.729   2.962   1.434 -0.3439 -1.2872 -0.0031
 9770TIP3    H250802   3.683   3.044   1.315  1.2824  0.0518  0.2463
 9771TIP3   OH250803   4.363   3.836  12.357  0.1045 -0.3355  0.3820
 9771TIP3    H150804   4.375   3.910  12.418  0.2270 -0.5606  0.6346
 9771TIP3    H250805   4.434   3.847  12.294 -1.1884  1.0378 -0.9093
 9772TIP3   OH250806   3.215   3.643   5.221  0.2159 -0.2904 -0.2685
 9772TIP3    H150807   3.224   3.548   5.229 -0.3977 -0.2025  2.2037
 9772TIP3    H250808   3.304   3.676   5.230  0.4073 -0.6027 -0.9349
 9773TIP3   OH250809   4.387   2.495  16.080  0.1363 -0.2727  0.2491
 9773TIP3    H150810   4.468   2.538  16.052  0.6564 -1.8505 -0.8237
 9773TIP3    H250811   4.415   2.429  16.143 -0.4540 -0.0949  0.7018
 9774TIP3   OH250812   2.981   3.488   3.863  0.2295 -0.4396  0.0177
 9774TIP3    H150813   2.919   3.461   3.931  0.5313  0.6083  0.7258
 9774TIP3    H250814   3.020   3.569   3.896 -1.1095  1.2741 -2.3055
 9775TIP3   OH250815   2.401   5.276  14.518 -0.4168  0.1826  0.6459
 9775TIP3    H150816   2.412   5.352  14.575 -1.6897 -0.7342  2.1793
 9775TIP3    H250817   2.309   5.253  14.526 -0.4187 -0.5369 -1.0978
 9776TIP3   OH250818   4.185   1.569   1.485 -0.1987 -0.3251 -0.0873
 9776TIP3    H150819   4.254   1.525   1.535 -1.3150 -0.1478  1.7014
 9776TIP3    H250820   4.233   1.628   1.426  1.1939 -0.5994  0.7074
 9777TIP3   OH250821   0.611   6.642   2.671  0.1065  0.3060  0.3134
 9777TIP3    H150822   0.665   6.662   2.595  0.5045 -1.5638  0.0585
 9777TIP3    H250823   0.580   6.727   2.702  2.3572  1.3589 -0.1435
 9778TIP3   OH250824   0.699   4.979  11.312 -0.2284  0.1662 -0.1527
 9778TIP3    H150825   0.717   4.957  11.404  0.2299 -1.0803 -0.5195
 9778TIP3    H250826   0.782   5.011  11.278  0.6449 -2.7999 -1.0606
 9779TIP3   OH250827   5.030   0.416   4.387  0.1420 -0.5293 -0.4046
 9779TIP3    H150828   4.937   0.431   4.404  0.3638  1.0605 -0.4512
 9779TIP3    H250829   5.070   0.503   4.390  1.6715 -1.1978 -0.2005
 9780TIP3   OH250830   4.260   2.365  13.388 -0.1209 -0.1420 -0.2188
 9780TIP3    H150831   4.264   2.452  13.428  1.5172  0.0841 -0.8233
 9780TIP3    H250832   4.249   2.305  13.462  2.8784  0.2719  0.6889
 9781TIP3   OH250833   0.043   4.109  14.109 -0.2198  0.1926  0.6635
 9781TIP3    H150834   0.113   4.061  14.065 -0.9837  0.5070 -0.9837
 9781TIP3    H250835   0.078   4.197  14.120 -0.3794  0.3823 -0.2650
 9782TIP3   OH250836   5.094   5.980  13.418  0.2305 -0.1735 -0.3629
 9782TIP3    H150837   5.012   5.932  13.422 -0.1952  0.6033  0.4786
 9782TIP3    H250838   5.069   6.070  13.396  1.0345 -0.3461 -2.1750
 9783TIP3   OH250839   0.850   4.181   4.365 -0.4363  0.1073  0.5108
 9783TIP3    H150840   0.943   4.164   4.350 -0.2863  1.1755  0.1614
 9783TIP3    H250841   0.814   4.096   4.390  0.4464 -0.5196 -0.2844
 9784TIP3   OH250842   0.684   5.546   6.010 -0.4343  0.3839 -0.1612
 9784TIP3    H150843   0.776   5.574   6.003 -0.1826  0.9185  3.3864
 9784TIP3    H250844   0.633   5.622   5.983  0.2221  1.2057  0.8476
 9785TIP3   OH250845   0.538   3.911  17.054  0.2898 -0.3222  0.2797
 9785TIP3    H150846   0.596   3.841  17.023  0.6664  0.2500 -0.3215
 9785TIP3    H250847   0.591   3.990  17.049 -0.7811  0.3415 -1.0438
 9786TIP3   OH250848   4.951   1.088  15.253 -0.5880  0.2982 -0.7025
 9786TIP3    H150849   4.890   1.014  15.248  0.9283 -0.9739 -0.9667
 9786TIP3    H250850   4.992   1.079  15.339 -1.4461  1.7433 -0.1019
 9787TIP3   OH250851   5.797   1.472  14.366 -0.1907  0.3067 -0.5712
 9787TIP3    H150852   5.730   1.539  14.378  0.9318  0.9791  3.5439
 9787TIP3    H250853   5.758   1.393  14.405  0.4817  0.0532 -0.4085
 9788TIP3   OH250854   1.776   4.991   3.111  0.1421 -0.1548 -0.4363
 9788TIP3    H150855   1.783   5.072   3.061 -0.8164  0.0877 -0.1999
 9788TIP3    H250856   1.775   5.019   3.202  1.7156 -0.5834 -0.2551
 9789TIP3   OH250857   3.336   4.232  16.825 -0.1900 -0.0163  0.5413
 9789TIP3    H150858   3.426   4.248  16.854 -0.1345 -0.2803  0.5147
 9789TIP3    H250859   3.346   4.176  16.747 -0.2546  1.8601 -0.8957
 9790TIP3   OH250860   0.734   5.512   1.091  0.5451  0.3369  0.1495
 9790TIP3    H150861   0.812   5.491   1.143  0.0318  1.1524  1.2849
 9790TIP3    H250862   0.733   5.607   1.087 -0.1913  0.3204 -0.1744
 9791TIP3   OH250863   2.029   4.137  16.265 -0.1097 -0.0542 -0.5360
 9791TIP3    H150864   1.934   4.126  16.258 -0.3900  2.0331 -0.7219
 9791TIP3    H250865   2.042   4.171  16.354  0.1065  2.2016 -1.3538
 9792TIP3   OH250866   1.561   6.447   3.385  0.3287  0.1355 -0.3614
 9792TIP3    H150867   1.474   6.475   3.360  0.9023  4.2000  1.5079
 9792TIP3    H250868   1.620   6.502   3.334  1.9922 -2.6691 -1.7625
 9793TIP3   OH250869   4.484   0.883  15.081 -0.1946  0.8000 -0.0612
 9793TIP3    H150870   4.400   0.839  15.092 -0.7753  1.7139 -0.6128
 9793TIP3    H250871   4.538   0.821  15.032 -0.1309 -0.2632  1.3075
 9794TIP3   OH250872   3.457   5.759   5.083  0.4250 -0.5635  0.3546
 9794TIP3    H150873   3.424   5.728   5.168 -1.9566  0.7132 -0.0359
 9794TIP3    H250874   3.409   5.708   5.018  2.0994 -1.3934 -0.3167
 9795TIP3   OH250875   0.863   5.258   1.402  0.6556 -0.2774 -0.1509
 9795TIP3    H150876   0.847   5.350   1.419  0.4693 -0.2284 -0.5690
 9795TIP3    H250877   0.956   5.254   1.379  0.7315 -0.2368  0.1506
 9796TIP3   OH250878   2.431   6.358  15.523  0.1963 -0.0524 -0.6402
 9796TIP3    H150879   2.421   6.452  15.537 -0.6473 -0.1213 -0.7375
 9796TIP3    H250880   2.524   6.347  15.502  1.1372  0.3230  2.7292
 9797TIP3   OH250881   2.930   4.917   2.742  0.3355  0.3512  0.5604
 9797TIP3    H150882   2.845   4.945   2.778 -0.0677  1.7190 -1.3058
 9797TIP3    H250883   2.952   4.984   2.678  2.1141 -0.7834 -0.0877
 9798TIP3   OH250884   2.357   3.148  14.830 -0.0543  0.3053 -0.0070
 9798TIP3    H150885   2.308   3.230  14.825 -1.6531 -0.5106  1.4876
 9798TIP3    H250886   2.345   3.118  14.920  1.0833 -1.2373 -0.3258
 9799TIP3   OH250887   2.817   5.270   5.238  0.4158  0.3277 -0.8913
 9799TIP3    H150888   2.728   5.243   5.260  0.6900 -0.1513 -0.3343
 9799TIP3    H250889   2.867   5.188   5.237  0.9824  0.6645 -0.5368
 9800TIP3   OH250890   2.574   2.073  11.474 -0.3895 -0.4543 -0.9225
 9800TIP3    H150891   2.660   2.073  11.433  0.1470 -1.5662  0.1427
 9800TIP3    H250892   2.512   2.069  11.401  0.4840 -0.4521 -1.6716
 9801TIP3   OH250893   5.328   2.345  14.840  0.3933 -0.1105  0.6268
 9801TIP3    H150894   5.308   2.287  14.766 -2.9636 -2.2278  2.9254
 9801TIP3    H250895   5.423   2.344  14.846  0.7055 -1.4536 -2.3943
 9802TIP3   OH250896   6.623   0.038  17.207 -0.1878 -0.0250 -0.1790
 9802TIP3    H150897   6.614   0.115  17.264 -1.2780 -0.7741  0.6938
 9802TIP3    H250898   6.595   0.069  17.121  0.6832  0.8976 -0.1603
 9803TIP3   OH250899   0.803   3.400  12.740 -0.4551  0.7427  0.2257
 9803TIP3    H150900   0.782   3.329  12.679 -0.6878  0.6928  0.3606
 9803TIP3    H250901   0.883   3.438  12.706 -1.1911  1.4589 -0.7709
 9804TIP3   OH250902   6.764   4.124  11.841  0.1759 -0.1352  0.0734
 9804TIP3    H150903   6.827   4.066  11.883  1.1732  0.8603  0.0033
 9804TIP3    H250904   6.749   4.194  11.905 -0.1924  0.0760 -0.2416
 9805TIP3   OH250905   0.194   2.004  14.170  0.4170  0.1224 -0.0478
 9805TIP3    H150906   0.264   2.042  14.117 -1.1635  0.7982 -1.7564
 9805TIP3    H250907   0.194   1.911  14.147  0.3632  0.2368 -0.5261
 9806TIP3   OH250908   2.110   5.350  12.012 -0.2856 -0.2874 -0.4643
 9806TIP3    H150909   2.136   5.442  12.013 -0.9719 -0.0767  1.3151
 9806TIP3    H250910   2.168   5.309  12.077  0.3375 -1.2210 -1.5836
 9807TIP3   OH250911   4.921   0.601  16.518  0.3365  0.5501  0.3469
 9807TIP3    H150912   4.975   0.674  16.488  0.1648  0.7673  0.5678
 9807TIP3    H250913   4.831   0.626  16.494  0.0259  1.3005  2.1157
 9808TIP3   OH250914   1.938   2.023   2.648  0.4456  0.3364 -0.7070
 9808TIP3    H150915   2.009   2.034   2.584  0.9490  0.2246 -0.1788
 9808TIP3    H250916   1.932   1.928   2.661  1.1743  0.4084  0.3057
 9809TIP3   OH250917   4.923   5.749  11.968 -0.1742 -0.0051 -0.1396
 9809TIP3    H150918   4.842   5.702  11.949 -0.4996  0.1747  0.7532
 9809TIP3    H250919   4.907   5.792  12.052  0.5588  0.6961 -0.3416
 9810TIP3   OH250920   1.796   1.200  11.194 -0.5727 -0.0425 -0.1188
 9810TIP3    H150921   1.760   1.128  11.142 -0.2637 -1.3408  1.3794
 9810TIP3    H250922   1.850   1.249  11.132  0.1293 -1.7725 -0.9581
 9811TIP3   OH250923   5.604   2.809  13.705  0.1689 -0.2456 -0.4721
 9811TIP3    H150924   5.643   2.878  13.759  1.9566 -1.4681 -0.1306
 9811TIP3    H250925   5.677   2.770  13.658 -1.0379 -0.8121 -1.9755
 9812TIP3   OH250926   1.869   4.965   1.660  0.1165 -0.5571  0.5861
 9812TIP3    H150927   1.779   4.993   1.644  0.1356 -0.0721  1.2977
 9812TIP3    H250928   1.862   4.871   1.678 -0.1467 -0.6817 -0.1720
 9813TIP3   OH250929   6.799   1.056   3.119  0.1864 -0.4451 -0.3538
 9813TIP3    H150930   6.841   1.083   3.037  0.1503  0.0548 -0.2106
 9813TIP3    H250931   6.749   1.133   3.146  0.5471 -0.4621  0.3683
 9814TIP3   OH250932   4.783   4.968   3.959  0.4831 -0.1194 -0.1239
 9814TIP3    H150933   4.736   4.966   3.876 -1.3218 -1.1210  0.8785
 9814TIP3    H250934   4.718   4.996   4.023  1.7012  0.0843  1.0643
 9815TIP3   OH250935   2.895   3.889  11.927  0.3564  0.4078 -0.1517
 9815TIP3    H150936   2.968   3.881  11.866 -0.3260  0.9312 -1.0513
 9815TIP3    H250937   2.817   3.880  11.873 -0.2622 -0.1431  0.7934
 9816TIP3   OH250938   4.401   0.884   6.419  0.2659  0.2974  0.1726
 9816TIP3    H150939   4.453   0.853   6.345 -0.8997  1.3353 -1.1405
 9816TIP3    H250940   4.323   0.922   6.379 -0.0813  1.5326  1.9100
 9817TIP3   OH250941   1.787   0.377  16.837  0.2653  0.2380  0.4046
 9817TIP3    H150942   1.766   0.289  16.867 -2.7270  0.2790 -1.2174
 9817TIP3    H250943   1.723   0.433  16.881  1.2131  1.4291  0.3127
 9818TIP3   OH250944   6.251   3.169  17.107  0.3948  0.1403  0.0033
 9818TIP3    H150945   6.252   3.251  17.058  1.4677  0.7831  1.0561
 9818TIP3    H250946   6.281   3.103  17.044 -2.0213  0.2042 -1.3377
 9819TIP3   OH250947   5.187   4.976   1.164 -0.3734 -0.6262 -0.1647
 9819TIP3    H150948   5.189   5.033   1.241 -0.0339 -1.2811  0.3293
 9819TIP3    H250949   5.197   4.887   1.200 -1.3849 -1.0451 -0.8665
 9820TIP3   OH250950   3.940   1.188   6.213 -0.5175 -0.0152 -0.2948
 9820TIP3    H150951   3.947   1.117   6.149 -0.3082 -0.5830  0.3504
 9820TIP3    H250952   3.855   1.227   6.196 -1.5006 -1.6672  0.6056
 9821TIP3   OH250953   4.295   2.564   1.578 -0.3750 -0.6486  0.0820
 9821TIP3    H150954   4.358   2.504   1.538 -0.7270 -0.7261 -0.3753
 9821TIP3    H250955   4.332   2.651   1.563 -2.0709 -0.3363 -3.5884
 9822TIP3   OH250956   0.770   4.779   4.261 -0.5475  0.3392 -0.2334
 9822TIP3    H150957   0.849   4.775   4.315 -0.0651  0.4764 -0.9177
 9822TIP3    H250958   0.777   4.704   4.202 -1.2273  0.0075  0.0945
 9823TIP3   OH250959   3.930   6.307  11.841  0.2111  0.2891 -0.1400
 9823TIP3    H150960   3.980   6.239  11.885 -0.2104  0.3934  0.5156
 9823TIP3    H250961   3.905   6.367  11.911  0.3584  0.9810 -0.6704
 9824TIP3   OH250962   3.379   4.785  16.468  0.2676 -0.2495  0.1368
 9824TIP3    H150963   3.363   4.698  16.504 -0.4026 -1.0675 -1.9539
 9824TIP3    H250964   3.304   4.837  16.496  0.5328 -0.4066  1.1706
 9825TIP3   OH250965   1.199   5.514  16.241 -0.1123 -0.3946  0.1759
 9825TIP3    H150966   1.176   5.550  16.327  0.1286  1.3767 -0.4594
 9825TIP3    H250967   1.114   5.505  16.197 -0.5389 -3.6539  1.3633
 9826TIP3   OH250968   3.872   3.102  14.427 -0.3735  0.1301  0.2485
 9826TIP3    H150969   3.827   3.184  14.408 -0.6112 -0.0444  0.0553
 9826TIP3    H250970   3.851   3.083  14.518 -2.4652 -1.0461 -0.4138
 9827TIP3   OH250971   1.113   4.523   2.678  0.2441  0.2390  0.7419
 9827TIP3    H150972   1.041   4.460   2.668 -0.0970  0.1574  3.0796
 9827TIP3    H250973   1.191   4.476   2.649 -0.3886 -0.2763 -0.1807
 9828TIP3   OH250974   4.344   1.741   1.353 -0.0680 -0.1598  0.6643
 9828TIP3    H150975   4.433   1.705   1.356 -0.3329 -0.9672 -0.3865
 9828TIP3    H250976   4.336   1.774   1.263 -0.7962  0.0004  0.7888
 9829TIP3   OH250977   6.813   2.536  13.078 -0.0495  0.2134  0.2246
 9829TIP3    H150978   6.761   2.455  13.076 -0.9771  0.7984  0.0904
 9829TIP3    H250979   6.750   2.604  13.104  0.9738  0.7062  1.5510
 9830TIP3   OH250980   6.198   1.909  14.340  0.0636  0.0759  0.4775
 9830TIP3    H150981   6.242   1.865  14.267 -1.3399 -1.3044  0.3987
 9830TIP3    H250982   6.123   1.954  14.300 -0.7012 -0.6683  1.0111
 9831TIP3   OH250983   2.145   4.318  12.678  0.2688  0.0556  0.2022
 9831TIP3    H150984   2.143   4.228  12.646 -4.6007  0.7580 -2.4018
 9831TIP3    H250985   2.212   4.361  12.625  0.1408 -1.2948 -1.1227
 9832TIP3   OH250986   1.591   6.753   1.716 -0.0779  0.6834 -0.5431
 9832TIP3    H150987   1.558   6.717   1.634 -0.1247  0.9953 -0.6635
 9832TIP3    H250988   1.531   6.825   1.737  0.0819  0.7690 -0.3692
 9833TIP3   OH250989   6.153   2.763  11.851 -0.0910  0.0986  0.0327
 9833TIP3    H150990   6.147   2.676  11.812 -1.2532 -0.2542  0.9755
 9833TIP3    H250991   6.068   2.778  11.891  0.6683  0.9373  1.4106
 9834TIP3   OH250992   5.118   5.433   2.763  0.3350  0.2413  0.2787
 9834TIP3    H150993   5.079   5.455   2.678  1.6233  1.7317  0.0155
 9834TIP3    H250994   5.072   5.354   2.791 -1.8818  1.1294 -0.6225
 9835TIP3   OH250995   0.526   0.750   2.232  0.2305 -0.2939  0.1834
 9835TIP3    H150996   0.511   0.715   2.144  0.4941  0.9966 -0.3964
 9835TIP3    H250997   0.621   0.762   2.237  0.3918 -1.7796  1.2252
 9836TIP3   OH250998   5.618   4.409   0.464  0.5764 -0.2099 -0.0631
 9836TIP3    H150999   5.594   4.425   0.372 -0.3687  1.5809  0.4549
 9836TIP3    H251000   5.539   4.370   0.502  0.7254 -0.2800  0.1730
 9837TIP3   OH251001   1.305   1.688  14.525 -0.2301  0.5572  0.2148
 9837TIP3    H151002   1.317   1.779  14.497 -2.4317  1.1161  0.8301
 9837TIP3    H251003   1.234   1.693  14.590 -1.8722 -1.8294 -1.2657
 9838TIP3   OH251004   5.807   1.403  16.397 -0.3413 -0.2369  0.0100
 9838TIP3    H151005   5.743   1.404  16.326  0.1388  0.6963 -0.4260
 9838TIP3    H251006   5.792   1.320  16.442 -0.5084 -0.9498 -1.3266
 9839TIP3   OH251007   5.482   0.195  15.511  0.3506  0.1293  0.1992
 9839TIP3    H151008   5.448   0.186  15.423  0.8919  2.6717 -0.3607
 9839TIP3    H251009   5.512   0.107  15.535  0.6810 -0.5330 -2.3454
 9840TIP3   OH251010   4.989   4.343   3.129 -0.1945  0.3528 -0.6740
 9840TIP3    H151011   5.077   4.316   3.156  0.3408 -0.2987 -2.8969
 9840TIP3    H251012   5.001   4.431   3.094 -0.3541  0.1142 -1.3342
 9841TIP3   OH251013   4.263   0.593  11.532 -0.5409  0.3578 -0.4725
 9841TIP3    H151014   4.317   0.642  11.470 -0.3504 -0.1215 -0.6880
 9841TIP3    H251015   4.327   0.549  11.588 -0.6445  2.4782  1.4770
 9842TIP3   OH251016   1.111   6.582   2.350 -0.4830 -0.3262 -0.8360
 9842TIP3    H151017   1.030   6.583   2.299  0.0088  0.2892 -1.6342
 9842TIP3    H251018   1.170   6.525   2.300  0.0055  0.2841 -0.9578
 9843TIP3   OH251019   5.080   0.621  12.797  0.0110 -0.2584 -0.7769
 9843TIP3    H151020   5.046   0.653  12.880 -2.3814 -1.7612 -1.0739
 9843TIP3    H251021   5.015   0.648  12.732  1.7556  0.7504 -2.1970
 9844TIP3   OH251022   0.755   5.709  15.789 -0.6218 -0.3891 -0.1347
 9844TIP3    H151023   0.673   5.688  15.835 -0.9061 -0.4401 -0.6535
 9844TIP3    H251024   0.803   5.626  15.786  0.4210  0.0642  2.0252
 9845TIP3   OH251025   4.409   6.737  14.824 -0.0257  0.1229 -0.3351
 9845TIP3    H151026   4.395   6.818  14.873  1.5635  0.7848 -0.9238
 9845TIP3    H251027   4.504   6.730  14.816 -0.1890 -1.0737 -1.5098
 9846TIP3   OH251028   5.739   5.097   2.197 -0.3323 -0.0875 -0.1068
 9846TIP3    H151029   5.829   5.081   2.225 -0.6276 -1.9588 -0.0583
 9846TIP3    H251030   5.737   5.189   2.171  1.2266  0.3571  1.2140
 9847TIP3   OH251031   0.561   3.283  12.472 -0.6116  0.0197 -0.4368
 9847TIP3    H151032   0.489   3.225  12.495 -0.8042  0.5574  0.3486
 9847TIP3    H251033   0.640   3.230  12.486 -0.8446 -0.5399 -1.2163
 9848TIP3   OH251034   0.614   5.135   1.164  0.8325 -0.0869 -0.3638
 9848TIP3    H151035   0.528   5.096   1.150  2.4362 -4.5413  0.7284
 9848TIP3    H251036   0.627   5.132   1.259  2.3633  0.1455 -0.5378
 9849TIP3   OH251037   3.047   5.198   2.324 -0.3990  0.0498  0.0349
 9849TIP3    H151038   3.042   5.169   2.233 -0.6163  0.5868 -0.1316
 9849TIP3    H251039   3.035   5.293   2.319  2.1439  0.4679  0.3560
 9850TIP3   OH251040   6.152   1.192  13.346 -0.3442 -0.3433 -0.8609
 9850TIP3    H151041   6.189   1.109  13.377 -1.6226 -1.3105 -1.7520
 9850TIP3    H251042   6.090   1.165  13.278 -1.3339  1.3006 -0.6560
 9851TIP3   OH251043   3.806   2.433  16.001 -1.0346  0.3620 -0.2945
 9851TIP3    H151044   3.832   2.391  15.919  0.5069  0.9891 -0.1555
 9851TIP3    H251045   3.802   2.362  16.065  2.0726  0.3880  0.0637
 9852TIP3   OH251046   5.621   5.623   5.740 -0.3375  0.1562  0.3531
 9852TIP3    H151047   5.637   5.623   5.645  0.2301  0.1982  0.4442
 9852TIP3    H251048   5.595   5.533   5.760  2.5206 -0.7103  0.6224
 9853TIP3   OH251049   4.866   4.733  12.156  0.3650  0.2589 -0.1717
 9853TIP3    H151050   4.857   4.812  12.209  1.1010  0.3230 -0.1382
 9853TIP3    H251051   4.901   4.667  12.216 -0.2717 -0.1026 -0.1921
 9854TIP3   OH251052   5.846   6.796  11.620  0.4191  0.0175  0.4220
 9854TIP3    H151053   5.893   6.799  11.536  1.6179  0.2041  1.0875
 9854TIP3    H251054   5.779   6.864  11.611 -0.9594 -1.4346 -1.2092
 9855TIP3   OH251055   1.486   0.964   0.686 -0.0537 -0.5181  0.1034
 9855TIP3    H151056   1.539   0.994   0.611 -0.7658  0.1392 -0.1551
 9855TIP3    H251057   1.433   0.893   0.650 -0.2921 -0.2980  0.0170
 9856TIP3   OH251058   5.991   5.115   1.983  0.0134 -0.0040  0.1731
 9856TIP3    H151059   5.935   5.045   1.951  0.0777  0.4561 -0.9636
 9856TIP3    H251060   6.074   5.071   2.004 -0.1767 -0.3836  0.1394
 9857TIP3   OH251061   3.365   4.527   3.265 -0.0467  0.4632  0.7063
 9857TIP3    H151062   3.384   4.434   3.265 -0.4414  0.3291 -1.6019
 9857TIP3    H251063   3.323   4.543   3.349 -2.7814 -2.0688 -0.0184
 9858TIP3   OH251064   4.669   6.475   0.084  0.5844 -0.3864 -0.1309
 9858TIP3    H151065   4.591   6.498   0.135  1.7232  1.1289  1.0360
 9858TIP3    H251066   4.740   6.474   0.148  1.9980  1.0809 -1.5736
 9859TIP3   OH251067   2.819   4.992  11.343 -0.4008 -0.1615 -0.2690
 9859TIP3    H151068   2.753   4.924  11.361  0.6541 -1.6329 -1.6802
 9859TIP3    H251069   2.892   4.970  11.401  0.1826 -0.6431 -1.1571
 9860TIP3   OH251070   0.025   0.150   1.864 -0.3016 -0.2968 -0.1598
 9860TIP3    H151071  -0.066   0.122   1.873 -0.2219 -0.3042  0.7657
 9860TIP3    H251072   0.046   0.190   1.948  0.9337 -1.4467  0.1112
 9861TIP3   OH251073   3.675   0.411  11.863  0.8985  0.6308  0.7363
 9861TIP3    H151074   3.620   0.381  11.936  0.2837  1.6029  0.6915
 9861TIP3    H251075   3.676   0.506  11.872  1.2910  0.7203 -0.1934
 9862TIP3   OH251076   3.264   4.294   0.511 -0.4079 -0.8969 -0.1090
 9862TIP3    H151077   3.295   4.347   0.584 -0.6839  1.0654 -1.3151
 9862TIP3    H251078   3.227   4.216   0.551  0.2370 -0.2899  1.7678
 9863TIP3   OH251079   3.629   2.317   2.188 -0.4322 -0.4350  0.8447
 9863TIP3    H151080   3.607   2.225   2.172 -2.2221  0.1743 -0.3852
 9863TIP3    H251081   3.697   2.337   2.124 -1.2187 -0.4536 -0.0004
 9864TIP3   OH251082   6.760   2.017   5.406  0.6038  0.1371 -0.2232
 9864TIP3    H151083   6.717   2.019   5.491  1.1631  1.7683  0.0432
 9864TIP3    H251084   6.710   2.078   5.352  1.2842  0.4069 -0.5526
 9865TIP3   OH251085   5.555   0.665  11.071  0.1390 -0.2655  0.0658
 9865TIP3    H151086   5.561   0.661  10.975 -0.8182  0.4159 -0.0311
 9865TIP3    H251087   5.462   0.678  11.089  0.2827 -0.5916  1.1044
 9866TIP3   OH251088   2.238   0.439   0.060  0.4960  0.6327 -0.6919
 9866TIP3    H151089   2.249   0.533   0.072  0.2240  0.5757  0.1056
 9866TIP3    H251090   2.202   0.409   0.143  2.0205 -0.4102 -0.3575
 9867TIP3   OH251091   6.556   4.251  15.357 -0.1164 -0.1628 -0.2748
 9867TIP3    H151092   6.570   4.265  15.263  0.5348 -0.2601 -0.2015
 9867TIP3    H251093   6.487   4.185  15.362 -1.5560  1.2748 -0.6556
 9868TIP3   OH251094   1.164   2.975  15.819  0.0206 -0.3008  0.0479
 9868TIP3    H151095   1.171   3.071  15.815 -1.5551 -0.1902 -0.6930
 9868TIP3    H251096   1.253   2.946  15.839  0.8761  1.2497 -1.1903
 9869TIP3   OH251097   0.153   1.573  13.045 -0.1009  0.3324 -0.2399
 9869TIP3    H151098   0.207   1.553  12.969  0.5537 -1.2283  0.5919
 9869TIP3    H251099   0.172   1.664  13.065  3.3262 -0.4944  0.8350
 9870TIP3   OH251100   6.775   4.597  17.089 -0.2042  0.0307  0.4243
 9870TIP3    H151101   6.734   4.598  17.003  0.4769  1.0110  0.0951
 9870TIP3    H251102   6.823   4.514  17.091 -0.0896  0.0733 -0.2181
 9871TIP3   OH251103   6.759   4.537  15.306  0.3937 -0.0425 -0.3168
 9871TIP3    H151104   6.732   4.589  15.230 -1.5732 -0.0875  0.3042
 9871TIP3    H251105   6.680   4.529  15.359  1.0057 -2.4208  0.3574
 9872TIP3   OH251106   1.175   0.597   1.448  0.1408  0.0802  0.0697
 9872TIP3    H151107   1.101   0.653   1.424  0.6788  0.8342  0.1538
 9872TIP3    H251108   1.145   0.551   1.526  0.5006  1.9423  1.3743
 9873TIP3   OH251109   1.340   2.139  12.216  0.5215 -0.1908 -0.1473
 9873TIP3    H151110   1.430   2.163  12.237  0.3069  0.2782  0.2539
 9873TIP3    H251111   1.344   2.045  12.198  1.2687  0.0242 -1.1769
 9874TIP3   OH251112   3.770   3.630  10.974 -0.5210  0.4270 -0.1456
 9874TIP3    H151113   3.704   3.697  10.992  0.2616  1.1307  0.1839
 9874TIP3    H251114   3.838   3.647  11.039  0.4539  0.3626 -1.1372
 9875TIP3   OH251115   3.505   0.268  14.937  0.3383  0.0243  0.3863
 9875TIP3    H151116   3.599   0.273  14.956  1.3924 -1.9327 -3.2021
 9875TIP3    H251117   3.477   0.359  14.928  2.1418  0.6393  0.5323
 9876TIP3   OH251118   5.960   2.233  12.351  0.1063 -0.1785  0.1642
 9876TIP3    H151119   5.869   2.242  12.322  0.3504  0.5338 -0.3945
 9876TIP3    H251120   6.011   2.285  12.289  0.6939  0.9575  1.5416
 9877TIP3   OH251121   0.433   6.422  12.631  0.2454 -0.2322  0.1254
 9877TIP3    H151122   0.413   6.449  12.721 -0.2972  0.6588 -0.2507
 9877TIP3    H251123   0.484   6.341  12.641 -0.1413 -0.3554  1.2181
 9878TIP3   OH251124   1.284   1.279  17.050 -0.3053  0.5718 -0.1713
 9878TIP3    H151125   1.229   1.235  16.985 -0.9226  0.7416  0.2222
 9878TIP3    H251126   1.367   1.294  17.005  0.7098 -2.8245  0.3037
 9879TIP3   OH251127   6.282   3.059   3.167  0.1829  0.6481  0.1951
 9879TIP3    H151128   6.231   3.135   3.197 -0.2494 -0.2643  1.8674
 9879TIP3    H251129   6.216   2.995   3.140  0.5506  1.0436 -1.8133
 9880TIP3   OH251130   2.222   2.880  15.110  0.2637  0.4741 -0.2925
 9880TIP3    H151131   2.278   2.957  15.118 -0.1153  0.6841  0.4189
 9880TIP3    H251132   2.159   2.888  15.182 -2.0448  1.3650 -2.2637
 9881TIP3   OH251133   1.629   3.737   2.812 -0.3459 -0.2653  0.3986
 9881TIP3    H151134   1.569   3.811   2.805 -0.4039 -0.3389  0.0965
 9881TIP3    H251135   1.674   3.734   2.727  0.3156 -0.0204  0.7322
 9882TIP3   OH251136   1.236   4.232   6.184  0.3688 -0.2884  0.1187
 9882TIP3    H151137   1.140   4.229   6.180  0.4185 -1.4822 -0.8219
 9882TIP3    H251138   1.257   4.325   6.190 -0.8142  0.0580 -0.8140
 9883TIP3   OH251139   6.392   0.134  14.636 -0.2934 -0.2132  0.4258
 9883TIP3    H151140   6.336   0.090  14.572  0.8376 -0.7068 -0.2648
 9883TIP3    H251141   6.343   0.130  14.718 -1.3655 -0.3993 -0.2069
 9884TIP3   OH251142   3.124   3.417  13.530  0.4558  0.5995 -0.5767
 9884TIP3    H151143   3.146   3.508  13.514  1.1393  0.6312  0.4822
 9884TIP3    H251144   3.162   3.370  13.455 -0.8866  1.2739 -1.7322
 9885TIP3   OH251145   1.423   5.455  16.005  1.1464 -0.2590  0.4031
 9885TIP3    H151146   1.500   5.484  16.055 -0.0833  2.9474  0.6213
 9885TIP3    H251147   1.351   5.457  16.068  0.2113  0.3922 -0.6566
 9886TIP3   OH251148   4.063   5.813   4.923 -0.6401  0.3178  0.6842
 9886TIP3    H151149   4.070   5.800   4.829  1.3622 -1.5438  1.0048
 9886TIP3    H251150   3.996   5.752   4.951 -0.3762 -0.0135  0.6002
 9887TIP3   OH251151   6.056   4.121  11.213 -0.3706  0.1438  0.4703
 9887TIP3    H151152   6.064   4.206  11.168 -0.7864 -0.9708 -1.9009
 9887TIP3    H251153   6.145   4.088  11.217 -0.0868  0.9969  2.1730
 9888TIP3   OH251154   3.851   1.033  15.408  0.0886 -0.3296 -0.2793
 9888TIP3    H151155   3.909   1.070  15.475 -0.1987  0.0253 -0.2198
 9888TIP3    H251156   3.767   1.077  15.423 -0.5709 -1.7806  0.4680
 9889TIP3   OH251157   1.465   5.738   6.219 -0.1571  0.1952  0.5575
 9889TIP3    H151158   1.531   5.805   6.238  0.5112 -0.6712  1.4026
 9889TIP3    H251159   1.513   5.672   6.169 -0.7921  0.2892 -0.1946
 9890TIP3   OH251160   2.264   2.214   0.974  0.1323 -0.3582  0.1334
 9890TIP3    H151161   2.214   2.238   0.896  0.8080 -0.0861 -0.2210
 9890TIP3    H251162   2.290   2.123   0.958 -2.1460 -1.3282  1.3300
 9891TIP3   OH251163   6.443   2.041   3.640  0.2246  0.4171 -0.0130
 9891TIP3    H151164   6.388   2.084   3.575  0.2206  1.4248  0.6398
 9891TIP3    H251165   6.457   2.107   3.707  1.0046 -0.3081  0.5577
 9892TIP3   OH251166   0.490   5.913  16.526  0.2731  0.4533  0.7500
 9892TIP3    H151167   0.406   5.878  16.555  0.2230  1.3321  1.7392
 9892TIP3    H251168   0.515   5.974  16.595  1.8769 -0.0271  0.6361
 9893TIP3   OH251169   6.776   1.699   0.589  0.4320  0.0660  0.2255
 9893TIP3    H151170   6.811   1.644   0.519  0.8682 -0.0795  0.5529
 9893TIP3    H251171   6.747   1.637   0.656 -0.1316  0.1989  0.1080
 9894TIP3   OH251172   6.633   5.151   4.005  0.0774 -0.3338 -0.1205
 9894TIP3    H151173   6.696   5.079   3.994 -0.5074 -1.0509  0.9973
 9894TIP3    H251174   6.625   5.190   3.918  1.7085 -0.5201 -0.3816
 9895TIP3   OH251175   0.487   0.893   4.961 -0.3214  0.0125 -0.6363
 9895TIP3    H151176   0.398   0.890   4.928 -0.6868  4.0617 -0.4387
 9895TIP3    H251177   0.479   0.876   5.055 -0.6203 -1.0748 -0.8408
 9896TIP3   OH251178   4.161   0.718  16.327 -0.5385 -0.1157  0.3333
 9896TIP3    H151179   4.075   0.757  16.309 -1.3071  0.1634  3.8442
 9896TIP3    H251180   4.212   0.735  16.248 -2.9895  1.7881 -0.9942
 9897TIP3   OH251181   2.294   3.342   6.555 -0.5229 -0.0625  0.0185
 9897TIP3    H151182   2.311   3.258   6.599  1.2999 -0.0040 -0.4783
 9897TIP3    H251183   2.372   3.356   6.501 -0.0539  2.7079  1.2706
 9898TIP3   OH251184   2.696   5.067   2.818 -0.4645  0.3842  0.1447
 9898TIP3    H151185   2.731   5.105   2.737 -0.9145  0.3731 -0.0580
 9898TIP3    H251186   2.626   5.009   2.789  0.5167 -0.9698  0.4190
 9899TIP3   OH251187   2.088   3.982   1.346 -0.3907  0.3811  0.2260
 9899TIP3    H151188   2.036   3.970   1.425  0.8254  0.6111  1.0746
 9899TIP3    H251189   2.026   4.017   1.282 -1.2112  0.9916  1.3208
 9900TIP3   OH251190   3.290   0.058  11.481  0.1964 -0.2385  0.0322
 9900TIP3    H151191   3.352   0.090  11.415  0.1193 -0.0719  0.0391
 9900TIP3    H251192   3.213   0.031  11.430  0.0008  0.2202  0.0820
 9901TIP3   OH251193   4.685   5.825   1.130 -0.1104 -0.1015 -0.4200
 9901TIP3    H151194   4.676   5.868   1.045  1.2940 -0.0468 -0.5660
 9901TIP3    H251195   4.656   5.890   1.194  2.4664  1.3410 -0.5919
 9902TIP3   OH251196   6.476   5.063  10.468  0.1933 -0.0162 -0.0411
 9902TIP3    H151197   6.425   5.055  10.387 -2.2674  1.3944  1.2544
 9902TIP3    H251198   6.533   4.987  10.467 -1.1809 -1.1442 -2.1370
 9903TIP3   OH251199   2.962   0.821   0.272 -0.3837 -0.0350  0.3656
 9903TIP3    H151200   2.891   0.863   0.321 -0.6482  1.5130 -1.2414
 9903TIP3    H251201   2.998   0.891   0.217  2.1079 -0.8910  0.7763
 9904TIP3   OH251202   3.093   1.610  16.462  0.1082 -0.1656  0.4604
 9904TIP3    H151203   3.106   1.516  16.448 -0.1506 -0.3296  1.2264
 9904TIP3    H251204   3.039   1.614  16.542  3.4567  0.6892  2.9062
 9905TIP3   OH251205   1.078   3.472   3.864 -0.0681 -0.2159  0.8178
 9905TIP3    H151206   1.122   3.553   3.889  1.4823 -0.7173 -0.1008
 9905TIP3    H251207   1.147   3.406   3.867 -0.9040 -1.1620 -0.0875
 9906TIP3   OH251208   4.647   1.364  11.168 -0.5520 -0.6585 -0.0448
 9906TIP3    H151209   4.669   1.291  11.225 -2.0569 -2.1253 -1.2393
 9906TIP3    H251210   4.707   1.356  11.094 -0.6523 -0.6427 -0.1288
 9907TIP3   OH251211   5.236   3.108   0.846 -0.5032  0.1552  0.4294
 9907TIP3    H151212   5.297   3.174   0.879  0.2906 -0.3460  0.0006
 9907TIP3    H251213   5.174   3.157   0.791 -0.6419  0.7033  1.0610
 9908TIP3   OH251214   3.135   3.336   5.653  0.2670 -0.6144  0.5403
 9908TIP3    H151215   3.134   3.373   5.741  0.9865 -0.6804  0.5763
 9908TIP3    H251216   3.214   3.283   5.650  0.7483  0.1418 -0.4689
 9909TIP3   OH251217   2.439   5.886  14.289 -0.7896  0.1056 -0.5723
 9909TIP3    H151218   2.472   5.806  14.328 -2.3717 -0.3568 -0.1112
 9909TIP3    H251219   2.499   5.954  14.319 -0.9154 -0.5182  1.1523
 9910TIP3   OH251220   0.021   0.717   4.017 -0.3667 -0.2307  0.1069
 9910TIP3    H151221  -0.038   0.643   4.034  0.1120 -0.5882  0.2365
 9910TIP3    H251222   0.092   0.680   3.965 -0.4496  0.2817 -0.3792
 9911TIP3   OH251223   6.199   4.449  15.203 -0.5526  0.5585 -0.5526
 9911TIP3    H151224   6.217   4.355  15.203 -2.0239  0.2509  0.0116
 9911TIP3    H251225   6.184   4.470  15.296 -1.9531  0.9759 -0.8481
 9912TIP3   OH251226   1.150   0.267   2.240  0.3313 -0.9007 -0.0241
 9912TIP3    H151227   1.099   0.208   2.297 -0.0355 -0.5926 -0.0261
 9912TIP3    H251228   1.118   0.354   2.263  0.8629 -0.7037 -0.0325
 9913TIP3   OH251229   4.778   4.748  11.811 -0.6009  0.5355  0.4857
 9913TIP3    H151230   4.753   4.711  11.895 -2.2927  0.2356 -0.1233
 9913TIP3    H251231   4.741   4.836  11.811  0.0488  0.8199  0.3403
 9914TIP3   OH251232   0.637   6.398   2.001  0.0488  0.0873 -0.0789
 9914TIP3    H151233   0.710   6.345   1.969 -0.4073 -0.1527 -0.7641
 9914TIP3    H251234   0.676   6.458   2.064  0.5856 -1.0841  0.7556
 9915TIP3   OH251235   5.213   2.226   6.475 -0.2456 -0.4633 -0.1479
 9915TIP3    H151236   5.292   2.278   6.491 -0.6159  0.3211 -0.7756
 9915TIP3    H251237   5.197   2.181   6.558  1.8052 -2.0032 -0.5083
 9916TIP3   OH251238   0.964   3.460   4.212  1.0116 -0.4854 -0.1566
 9916TIP3    H151239   0.978   3.548   4.179  1.4267 -0.8182 -0.8997
 9916TIP3    H251240   1.051   3.431   4.240  0.8048 -0.5082  0.4574
 9917TIP3   OH251241   0.563   2.229   4.960  0.4031  0.5431 -0.0089
 9917TIP3    H151242   0.638   2.243   5.017  0.0281  0.6674  0.4626
 9917TIP3    H251243   0.598   2.234   4.871  0.6706  2.2019  0.1676
 9918TIP3   OH251244   0.056   3.279   5.303  0.0363  0.0711 -0.1670
 9918TIP3    H151245   0.123   3.225   5.347  0.5657  1.4164  0.7386
 9918TIP3    H251246  -0.013   3.217   5.281  1.9820 -1.5620 -2.0587
 9919TIP3   OH251247   4.428   5.926  13.297 -0.4709  0.2257  0.3792
 9919TIP3    H151248   4.386   6.010  13.276 -3.0193 -0.9559  0.3748
 9919TIP3    H251249   4.489   5.911  13.225 -2.3222  0.6093 -1.3664
 9920TIP3   OH251250   1.747   4.899   6.487 -0.1959 -0.2689 -0.3923
 9920TIP3    H151251   1.716   4.988   6.469 -1.1090 -0.5120 -0.0766
 9920TIP3    H251252   1.839   4.910   6.512 -0.1919  0.5406 -0.7498
 9921TIP3   OH251253   3.890   4.644   3.044 -0.9656  0.8010  0.1358
 9921TIP3    H151254   3.933   4.577   3.097  1.7994  2.1517 -0.2709
 9921TIP3    H251255   3.946   4.653   2.967 -2.7291  1.7372 -1.1004
 9922TIP3   OH251256   3.209   2.752   2.237  0.1575 -0.0189 -0.4959
 9922TIP3    H151257   3.266   2.755   2.313  0.0618 -0.1940 -0.4167
 9922TIP3    H251258   3.259   2.706   2.170 -0.7098 -2.1913  0.2753
 9923TIP3   OH251259   6.344   2.457   0.033 -0.0808  0.1143  0.0932
 9923TIP3    H151260   6.385   2.373   0.012 -0.8184  0.2734 -2.2658
 9923TIP3    H251261   6.381   2.519  -0.030 -1.3786  0.9915  0.1395
 9924TIP3   OH251262   2.656   5.142  16.104  0.4144 -0.1327 -0.8413
 9924TIP3    H151263   2.681   5.216  16.048  2.2950  0.7363  1.0170
 9924TIP3    H251264   2.738   5.115  16.145 -0.8477 -0.8493  1.3426
 9925TIP3   OH251265   5.075   5.087   0.900 -0.4316  0.0722  0.3497
 9925TIP3    H151266   4.984   5.106   0.922 -0.1913 -0.3086  1.7378
 9925TIP3    H251267   5.111   5.045   0.978  0.6388 -0.8019 -0.5674
 9926TIP3   OH251268   1.130   5.813  15.170 -0.0461 -0.5021 -0.2822
 9926TIP3    H151269   1.193   5.759  15.218 -0.6312 -0.2577  0.7968
 9926TIP3    H251270   1.143   5.901  15.205 -1.8323 -0.6620  0.8873
 9927TIP3   OH251271   2.314   0.045   4.913  0.5619 -0.0463  0.1826
 9927TIP3    H151272   2.262  -0.031   4.939  1.0587 -0.5328 -0.2122
 9927TIP3    H251273   2.263   0.121   4.941 -0.1998 -0.5210  0.0892
 9928TIP3   OH251274   1.712   3.749   2.520 -0.3027 -0.4466  0.3522
 9928TIP3    H151275   1.638   3.738   2.461  1.1070 -0.2964 -1.5189
 9928TIP3    H251276   1.752   3.832   2.495  1.9080 -1.6423 -0.3967
 9929TIP3   OH251277   5.896   6.294   5.069 -0.0639  0.0716  0.3314
 9929TIP3    H151278   5.916   6.384   5.044  1.2556 -0.2865  0.0084
 9929TIP3    H251279   5.809   6.299   5.108 -0.8157  1.1739 -1.3757
 9930TIP3   OH251280   4.151   1.088  12.509 -0.4301 -0.7151  0.2880
 9930TIP3    H151281   4.112   1.175  12.506  0.5376 -0.2642  0.4401
 9930TIP3    H251282   4.183   1.079  12.598  0.7530 -0.6381 -0.1069
 9931TIP3   OH251283   0.129   6.587  13.769  0.1647 -0.3095 -0.3086
 9931TIP3    H151284   0.054   6.614  13.717  1.0277 -0.3481 -1.6235
 9931TIP3    H251285   0.132   6.492  13.761  0.2315 -0.3263 -0.0952
 9932TIP3   OH251286   4.235   5.716   3.444  0.3361  0.2736  0.0898
 9932TIP3    H151287   4.301   5.660   3.402  2.7154  2.6525  0.3979
 9932TIP3    H251288   4.225   5.790   3.385  0.3386  1.4934  1.5607
 9933TIP3   OH251289   2.671   4.593  13.922  1.0932  0.0500 -0.3262
 9933TIP3    H151290   2.664   4.535  13.846  0.1099 -0.9093  0.4844
 9933TIP3    H251291   2.724   4.543  13.985  0.5322  0.1722  0.2430
 9934TIP3   OH251292   2.591   3.946   0.271 -0.2456  0.0623 -0.7119
 9934TIP3    H151293   2.686   3.963   0.272 -0.5283  2.0552  1.8209
 9934TIP3    H251294   2.557   4.005   0.204  0.2242 -0.2863 -1.2684
 9935TIP3   OH251295   5.066   2.032  12.018 -0.0602 -0.1368 -0.3919
 9935TIP3    H151296   4.991   2.087  12.040  0.1264  0.2728 -0.7392
 9935TIP3    H251297   5.043   1.945  12.049  0.1778  0.3880  1.3659
 9936TIP3   OH251298   4.741   5.646  13.917 -0.0509  0.0829 -0.3115
 9936TIP3    H151299   4.706   5.592  13.847  0.0861 -1.5744  0.8452
 9936TIP3    H251300   4.721   5.598  13.998  1.1698  1.1416  0.6799
 9937TIP3   OH251301   5.671   2.286  11.792  0.0788 -0.0856 -0.4382
 9937TIP3    H151302   5.704   2.274  11.703  0.0325  0.1248 -0.4846
 9937TIP3    H251303   5.739   2.249  11.848 -0.4937 -1.4626 -0.6092
 9938TIP3   OH251304   1.341   3.427  15.315 -0.0938 -0.0845  0.3574
 9938TIP3    H151305   1.290   3.504  15.290  0.4873  0.0111 -0.6085
 9938TIP3    H251306   1.340   3.372  15.237 -2.8731 -2.4482  1.8541
 9939TIP3   OH251307   6.729   4.442   4.966 -0.4517 -0.4024  0.2454
 9939TIP3    H151308   6.752   4.511   5.029  0.7039  0.5666 -1.1568
 9939TIP3    H251309   6.671   4.383   5.015  0.3769  0.2987  2.1935
 9940TIP3   OH251310   1.787   2.423  14.723  0.4377  0.4346  0.0231
 9940TIP3    H151311   1.797   2.504  14.774  2.2017  0.2726 -0.0060
 9940TIP3    H251312   1.830   2.356  14.777  0.5136 -0.1367 -0.7364
 9941TIP3   OH251313   2.524   3.471   5.575  0.2491 -0.2250 -0.4096
 9941TIP3    H151314   2.442   3.492   5.530  0.1908  1.3727  0.3710
 9941TIP3    H251315   2.542   3.380   5.551 -1.7944 -0.6444 -0.5243
 9942TIP3   OH251316   2.116   1.550   3.231 -0.3102 -0.5529 -0.0509
 9942TIP3    H151317   2.112   1.590   3.317 -0.0568 -0.9481  0.1509
 9942TIP3    H251318   2.197   1.585   3.192  0.0124 -0.9987  0.1999
 9943TIP3   OH251319   0.460   1.980  14.807 -0.0050 -0.0939 -0.2805
 9943TIP3    H151320   0.481   1.912  14.871 -0.6707 -1.6444 -1.6348
 9943TIP3    H251321   0.389   2.030  14.847  0.1018 -0.5467  0.4941
 9944TIP3   OH251322   0.815   1.744   0.619 -0.1823 -1.0224 -0.3609
 9944TIP3    H151323   0.824   1.759   0.524  0.6963 -0.3499 -0.1909
 9944TIP3    H251324   0.905   1.746   0.652 -0.4437 -1.7358  0.4298
 9945TIP3   OH251325   4.571   0.665  15.343  0.0449  0.1724 -0.1875
 9945TIP3    H151326   4.566   0.713  15.260 -2.0764 -1.7264 -1.2564
 9945TIP3    H251327   4.647   0.608  15.333  1.4237  1.8285  0.3332
 9946TIP3   OH251328   5.602   4.006   3.527  0.1356 -0.0664 -0.8337
 9946TIP3    H151329   5.606   3.916   3.494  0.4892  0.2298 -1.6236
 9946TIP3    H251330   5.693   4.036   3.526 -0.1765  0.9563 -2.4869
 9947TIP3   OH251331   2.548   1.585   2.634  0.4704  0.4035  0.0921
 9947TIP3    H151332   2.560   1.525   2.707 -2.0529  0.1676  0.3913
 9947TIP3    H251333   2.567   1.533   2.556  0.6233 -0.0902  0.4588
 9948TIP3   OH251334   4.850   2.942   5.802  0.4581  0.7393  0.3248
 9948TIP3    H151335   4.791   2.929   5.727  0.5215 -0.9737  0.5287
 9948TIP3    H251336   4.934   2.966   5.762  1.3003 -2.8611 -0.4883
 9949TIP3   OH251337   2.883   3.978  11.347  0.3077  0.4731  0.4263
 9949TIP3    H151338   2.846   4.055  11.303 -0.7215 -1.1399 -1.7206
 9949TIP3    H251339   2.809   3.938  11.392  0.7163  0.3903  1.0426
 9950TIP3   OH251340   2.779   6.327  17.119 -0.0315 -0.2937  0.4580
 9950TIP3    H151341   2.825   6.410  17.108  0.7854 -0.6285  1.2405
 9950TIP3    H251342   2.830   6.279  17.184 -1.3600 -0.7816  1.1932
 9951TIP3   OH251343   2.360   2.015  12.846 -0.0141  0.9703 -0.0111
 9951TIP3    H151344   2.312   2.086  12.890 -0.8566 -0.0583  0.7908
 9951TIP3    H251345   2.309   1.936  12.866 -0.4016  0.4251 -2.8368
 9952TIP3   OH251346   3.870   3.072  14.698  0.3318  0.2557  0.2649
 9952TIP3    H151347   3.940   3.013  14.725 -1.5866 -1.6048  1.5137
 9952TIP3    H251348   3.841   3.114  14.780 -0.9311 -0.1186  0.0347
 9953TIP3   OH251349   3.034   5.362  16.064 -0.0085  0.4667 -0.0354
 9953TIP3    H151350   2.969   5.394  16.126 -2.3479 -1.9652 -0.9873
 9953TIP3    H251351   2.986   5.357  15.981  1.5260 -0.9880 -0.8825
 9954TIP3   OH251352   2.599   4.026  16.431  0.5835  0.4704  0.1076
 9954TIP3    H151353   2.595   3.930  16.438 -0.5200  0.5442  0.5667
 9954TIP3    H251354   2.663   4.041  16.360  1.9439 -0.5554  1.0488
 9955TIP3   OH251355   0.615   1.845  12.775 -0.2865  0.5462  0.2520
 9955TIP3    H151356   0.524   1.841  12.804 -0.5222 -0.1871 -0.5504
 9955TIP3    H251357   0.650   1.758  12.793 -0.3727  0.1431 -1.4090
 9956TIP3   OH251358   2.091   4.442  14.301 -0.3144  0.0391 -0.6051
 9956TIP3    H151359   2.106   4.394  14.383 -0.3017 -0.5569 -0.9505
 9956TIP3    H251360   2.045   4.522  14.328  0.3555  0.2063  0.0648
 9957TIP3   OH251361   0.812   3.561   3.023  0.2750 -0.1522 -0.1761
 9957TIP3    H151362   0.783   3.502   2.953  0.8896 -1.8978  0.9643
 9957TIP3    H251363   0.732   3.584   3.070 -0.1486  1.0624 -1.4158
 9958TIP3   OH251364   2.258   0.515  11.671  0.1645  0.1419 -0.0182
 9958TIP3    H151365   2.247   0.538  11.763 -0.0751 -0.7204  0.1740
 9958TIP3    H251366   2.317   0.439  11.672 -0.8465 -0.6639 -0.4913
 9959TIP3   OH251367   4.959   3.866   1.659 -0.1736 -0.1959 -0.6455
 9959TIP3    H151368   4.869   3.888   1.682  0.1507  0.1969  0.2796
 9959TIP3    H251369   4.973   3.779   1.697 -0.4524 -0.6758 -1.6054
 9960TIP3   OH251370   6.530   2.904   4.359 -0.2216  0.2389  0.4599
 9960TIP3    H151371   6.528   2.811   4.335  0.9813  0.7182 -1.7025
 9960TIP3    H251372   6.621   2.920   4.384 -0.2721  0.9879  0.1684
 9961TIP3   OH251373   1.173   1.174   2.855  0.0690 -0.1202  0.3988
 9961TIP3    H151374   1.191   1.091   2.898 -1.0059  0.1187  1.3533
 9961TIP3    H251375   1.092   1.159   2.806 -1.5418  0.9904  2.5528
 9962TIP3   OH251376   0.845   1.062  16.621  0.2012 -0.0189  0.0307
 9962TIP3    H151377   0.868   0.989  16.563  0.2227  1.0504 -1.3372
 9962TIP3    H251378   0.754   1.081  16.601 -0.3568 -0.7802  1.6590
 9963TIP3   OH251379   3.895   2.307  15.004  0.0330  0.2071 -0.5519
 9963TIP3    H151380   3.868   2.215  14.996  1.0826 -0.2160  0.4387
 9963TIP3    H251381   3.984   2.302  15.039 -0.7891  1.6178  2.0132
 9964TIP3   OH251382   4.524   6.799   2.020  0.0820  0.0747 -0.0018
 9964TIP3    H151383   4.589   6.828   2.085  0.2980 -1.8060  0.6566
 9964TIP3    H251384   4.577   6.774   1.944  0.1518 -1.4243  0.5218
 9965TIP3   OH251385   6.260   5.414   1.684  0.4115  0.5313 -0.2607
 9965TIP3    H151386   6.345   5.391   1.721 -0.5050  0.0967  1.6878
 9965TIP3    H251387   6.209   5.333   1.687 -0.2108  0.8660 -1.1007
 9966TIP3   OH251388   1.989   5.274  12.785 -0.1254  0.0420  0.6408
 9966TIP3    H151389   2.061   5.335  12.798 -0.3435  0.9181 -1.7042
 9966TIP3    H251390   2.030   5.188  12.781  0.9112  0.5661 -1.0141
 9967TIP3   OH251391   0.440   1.144   4.390 -0.0844  0.4703  0.2254
 9967TIP3    H151392   0.483   1.196   4.321  0.7821  0.7002  0.9245
 9967TIP3    H251393   0.367   1.199   4.419  0.2655  0.8933  0.3148
 9968TIP3   OH251394   3.458   0.247  16.556  0.1734  0.0193 -0.2649
 9968TIP3    H151395   3.448   0.289  16.642 -0.2181 -0.1873 -0.2111
 9968TIP3    H251396   3.369   0.240  16.522  0.3832  0.7856 -1.0190
 9969TIP3   OH251397   0.669   2.138  14.777  0.0126  0.2459 -0.3928
 9969TIP3    H151398   0.588   2.088  14.768 -1.5775  2.4982  0.6031
 9969TIP3    H251399   0.733   2.088  14.726 -1.9135 -1.7140 -1.0707
 9970TIP3   OH251400   6.581   4.389  16.254  0.3492  0.0463  0.1337
 9970TIP3    H151401   6.536   4.364  16.174 -0.8235 -0.4421  0.9049
 9970TIP3    H251402   6.549   4.327  16.320 -0.0403  1.4525  1.3405
 9971TIP3   OH251403   5.162   3.762   4.661  0.1619  0.4535  0.1543
 9971TIP3    H151404   5.119   3.731   4.741 -2.6261  1.0905 -0.9581
 9971TIP3    H251405   5.217   3.835   4.690  0.7414 -0.5495  1.7067
 9972TIP3   OH251406   1.217   6.311   1.033  0.0625 -0.1785  1.0634
 9972TIP3    H151407   1.214   6.344   0.944 -0.9590 -2.0306  0.3658
 9972TIP3    H251408   1.292   6.251   1.035 -0.3212 -0.6547  1.2622
 9973TIP3   OH251409   6.324   3.305   1.581 -0.2558  0.1629  0.2830
 9973TIP3    H151410   6.398   3.274   1.632 -1.3332 -2.4194  0.4001
 9973TIP3    H251411   6.277   3.364   1.641 -0.2171 -0.9810  1.4774
 9974TIP3   OH251412   1.569   6.209  13.734 -0.0141  0.1931  0.2179
 9974TIP3    H151413   1.586   6.262  13.812 -1.4457  0.9443  0.0400
 9974TIP3    H251414   1.558   6.272  13.663  2.4715 -0.4998 -0.9208
 9975TIP3   OH251415   2.297   2.464  10.599 -0.5824 -0.9112  0.1072
 9975TIP3    H151416   2.274   2.485  10.690  0.8986 -0.3941  0.3889
 9975TIP3    H251417   2.254   2.533  10.547  0.6427  0.3158  0.6584
 9976TIP3   OH251418   3.915   1.900  13.962 -0.5148 -0.5925 -0.5019
 9976TIP3    H151419   3.833   1.875  13.919 -0.4119 -0.1617 -0.9607
 9976TIP3    H251420   3.901   1.880  14.054 -0.7667 -1.4667 -0.7258
 9977TIP3   OH251421   1.346   1.897  11.739  0.1244  0.5910  0.0139
 9977TIP3    H151422   1.336   1.949  11.659 -2.5755 -0.5839 -0.5524
 9977TIP3    H251423   1.287   1.939  11.802  0.3404  0.0570  0.5787
 9978TIP3   OH251424   3.078   5.012   5.543 -0.3191  0.3886  0.1838
 9978TIP3    H151425   3.109   4.922   5.531  0.1896  0.6922 -0.9094
 9978TIP3    H251426   3.136   5.065   5.488 -0.9244  1.3267  0.4249
 9979TIP3   OH251427   3.788   4.399   4.721  0.3478  0.0890 -0.0072
 9979TIP3    H151428   3.860   4.460   4.705 -0.3489  0.6318 -1.2579
 9979TIP3    H251429   3.714   4.455   4.745 -0.2780 -0.2414 -1.0803
 9980TIP3   OH251430   1.639   2.364  14.376 -0.1078 -0.3471 -0.2273
 9980TIP3    H151431   1.572   2.323  14.320 -0.4885  0.3955 -0.3387
 9980TIP3    H251432   1.598   2.369  14.462 -0.2247  0.1687 -0.3107
 9981TIP3   OH251433   4.565   0.591   0.618 -0.3281  0.2833 -0.5392
 9981TIP3    H151434   4.508   0.643   0.562 -0.0610  1.8288  0.5389
 9981TIP3    H251435   4.558   0.633   0.704  2.1061  0.3091 -0.2769
 9982TIP3   OH251436   6.030   2.005   6.429  0.5417 -0.2882 -0.2412
 9982TIP3    H151437   6.035   2.098   6.451  1.2999 -0.4139  0.1367
 9982TIP3    H251438   5.941   1.979   6.455  0.3402  0.3185 -0.3157
 9983TIP3   OH251439   5.822   4.368  14.757  0.0113  0.3466 -0.0751
 9983TIP3    H151440   5.785   4.283  14.779 -2.3079  1.5710  1.2176
 9983TIP3    H251441   5.901   4.349  14.707  0.9214 -2.5861  2.2219
 9984TIP3   OH251442   1.475   6.498   6.202 -0.4615 -0.0120 -0.5042
 9984TIP3    H151443   1.484   6.587   6.170  0.3017 -0.2690 -1.0152
 9984TIP3    H251444   1.397   6.464   6.157 -0.5147  0.2605 -0.6174
 9985TIP3   OH251445   4.341   3.380   4.029 -0.1025 -0.3770 -0.1908
 9985TIP3    H151446   4.393   3.364   4.107  1.2626  2.5575 -0.3585
 9985TIP3    H251447   4.387   3.334   3.959 -0.0421 -1.1386  0.3507
 9986TIP3   OH251448   0.343   6.321  15.112 -0.0331 -0.0811  0.0119
 9986TIP3    H151449   0.263   6.288  15.154  0.5306 -0.7960  0.5528
 9986TIP3    H251450   0.403   6.246  15.112  0.7744  0.5470 -0.0428
 9987TIP3   OH251451   6.602   4.880   3.762  0.3441 -0.0160  0.3350
 9987TIP3    H151452   6.669   4.901   3.698 -1.5330  1.2172 -1.3560
 9987TIP3    H251453   6.599   4.784   3.764  1.0738 -0.0705 -0.7209
 9988TIP3   OH251454   4.251   4.341  10.923 -0.1164 -0.4801  0.3833
 9988TIP3    H151455   4.326   4.292  10.890 -0.0128  0.1485 -0.3381
 9988TIP3    H251456   4.279   4.374  11.008  0.9746  0.9184 -0.4622
 9989TIP3   OH251457   3.077   4.609   2.305 -0.2597 -0.5942  0.8669
 9989TIP3    H151458   3.030   4.623   2.222  0.8781  1.0404  0.4595
 9989TIP3    H251459   3.036   4.670   2.366 -0.9512 -1.6459  1.4903
 9990TIP3   OH251460   6.042   6.795   1.664  0.3864 -0.1684 -0.3767
 9990TIP3    H151461   5.999   6.812   1.580  2.7030  1.9267 -1.2562
 9990TIP3    H251462   6.136   6.796   1.643  1.0836  1.5808  2.3849
 9991TIP3   OH251463   0.994   2.216  13.631 -0.3624 -0.8224  0.1166
 9991TIP3    H151464   0.905   2.234  13.660 -0.2790 -0.3034  0.0512
 9991TIP3    H251465   1.011   2.126  13.661  0.4370  0.3133  3.3883
 9992TIP3   OH251466   6.787   0.960   1.162  0.6248 -0.1108 -1.3095
 9992TIP3    H151467   6.803   1.048   1.196  1.2282 -0.2383 -1.2640
 9992TIP3    H251468   6.872   0.930   1.130  1.1843 -1.9242  1.5794
 9993TIP3   OH251469   6.515   1.057  14.584 -0.2864 -0.0976 -0.5873
 9993TIP3    H151470   6.533   1.131  14.642 -1.3451 -0.2482 -0.0344
 9993TIP3    H251471   6.592   1.051  14.527 -0.7558  2.3389 -1.6157
 9994TIP3   OH251472   2.757   6.285  11.835  0.2269  0.3117 -0.3078
 9994TIP3    H151473   2.816   6.245  11.899  1.6323  1.9492 -0.5099
 9994TIP3    H251474   2.688   6.325  11.889  1.1700  1.3154  0.1984
 9995TIP3   OH251475   6.729   0.251  13.898  0.2334  0.3098 -0.3961
 9995TIP3    H151476   6.783   0.201  13.837  0.1327 -0.1518 -0.1119
 9995TIP3    H251477   6.705   0.188  13.966  0.4904  0.8668  0.2194
 9996TIP3   OH251478   2.277   2.733   0.420 -0.0101  0.2764  0.0045
 9996TIP3    H151479   2.232   2.803   0.371  0.1544  0.1871 -0.2782
 9996TIP3    H251480   2.370   2.752   0.408  0.0367  0.8566  1.1653
 9997TIP3   OH251481   3.545   3.777  14.296  0.3574  0.1802 -0.7175
 9997TIP3    H151482   3.514   3.687  14.299  0.4102  0.1904  1.5457
 9997TIP3    H251483   3.629   3.775  14.342  1.0075  1.1650 -1.8095
 9998TIP3   OH251484   2.869   6.058   5.679 -0.4791 -0.2152  0.3577
 9998TIP3    H151485   2.931   6.052   5.752  0.0670 -3.5960 -0.2045
 9998TIP3    H251486   2.809   5.985   5.694 -1.7052  0.3962 -1.4064
 9999TIP3   OH251487   4.813   0.133   5.525 -0.2192 -0.6053 -0.2300
 9999TIP3    H151488   4.895   0.153   5.572 -2.0392  0.4094  2.7797
 9999TIP3    H251489   4.818   0.039   5.507  0.8483 -0.9577  1.6034
10000TIP3   OH251490   0.065   1.959   3.345  0.3042 -0.2616  0.2782
10000TIP3    H151491   0.120   2.004   3.281 -0.6969 -0.3007 -0.6461
10000TIP3    H251492   0.053   2.023   3.415  0.0390  0.4117 -0.3719
10001TIP3   OH251493   3.876   1.719  14.795  0.1670 -0.1740  0.1418
10001TIP3    H151494   3.827   1.774  14.733 -1.0588 -1.1845  0.1685
10001TIP3    H251495   3.947   1.682  14.742 -1.3809 -1.7309 -0.9606
10002TIP3   OH251496   3.803   1.638  14.489  0.0109 -0.3812 -0.0537
10002TIP3    H151497   3.788   1.559  14.437 -1.1679 -0.1367 -0.1283
10002TIP3    H251498   3.892   1.629  14.524  0.1972 -1.3281 -0.7579
10003TIP3   OH251499   0.072   3.694  15.239  0.0809  0.1392 -0.1797
10003TIP3    H151500   0.073   3.656  15.151 -2.0996  2.0130 -1.1044
10003TIP3    H251501   0.049   3.786  15.226  1.9890  1.0582  2.2092
10004TIP3   OH251502   4.119   5.054   1.558  0.5239  0.1702 -0.0659
10004TIP3    H151503   4.104   5.042   1.652  0.3637 -0.6182 -0.1854
10004TIP3    H251504   4.089   5.142   1.540 -0.8895 -0.2096  0.3363
10005TIP3   OH251505   5.820   4.366  11.855 -0.6460  0.0840  0.2126
10005TIP3    H151506   5.875   4.355  11.778 -1.3466  0.3558 -0.3381
10005TIP3    H251507   5.859   4.308  11.921 -0.8071 -1.1844 -0.7661
10006TIP3   OH251508   5.754   4.017   5.199 -0.3264 -0.5294  0.3895
10006TIP3    H151509   5.781   3.927   5.181 -1.4439 -0.5353 -1.5967
10006TIP3    H251510   5.811   4.071   5.144 -2.6364 -0.4051 -2.0804
10007TIP3   OH251511   3.163   1.803  16.032 -0.1806  0.0864  0.3957
10007TIP3    H151512   3.182   1.823  15.941  1.2019  2.0968  1.0657
10007TIP3    H251513   3.140   1.710  16.032 -3.2331  0.6647 -2.3960
10008TIP3   OH251514   3.345   3.824   1.329 -0.0378  0.4093 -0.0990
10008TIP3    H151515   3.268   3.767   1.328  0.9494 -1.0090 -1.8521
10008TIP3    H251516   3.357   3.847   1.421 -1.1523 -1.3069  0.5227
10009TIP3   OH251517   1.375   0.632  17.041 -0.2979  0.2682 -0.8927
10009TIP3    H151518   1.288   0.605  17.010 -0.3861 -0.4467 -0.0422
10009TIP3    H251519   1.359   0.673  17.126  0.2689 -0.4962 -0.4092
10010TIP3   OH251520   6.097   2.923  12.621 -0.0927 -0.0717 -0.0925
10010TIP3    H151521   6.132   3.011  12.613  0.9912 -0.5691 -1.1535
10010TIP3    H251522   6.003   2.933  12.605 -0.1888  1.0300  0.9820
10011TIP3   OH251523   1.348   6.500  12.651 -0.4191 -0.1901  0.7089
10011TIP3    H151524   1.390   6.414  12.651 -0.4905 -0.2378  1.5089
10011TIP3    H251525   1.286   6.497  12.579  0.4112 -0.3862 -0.0146
10012TIP3   OH251526   3.129   1.054   5.646 -0.4554  0.4205 -0.3018
10012TIP3    H151527   3.076   1.035   5.569 -0.0473 -1.6252 -0.1236
10012TIP3    H251528   3.085   1.008   5.717  0.6822 -0.0250  0.1372
10013TIP3   OH251529   0.659   6.560  11.869  0.8157 -0.5750 -0.0866
10013TIP3    H151530   0.570   6.563  11.904  0.5457 -0.6887 -0.7433
10013TIP3    H251531   0.671   6.645  11.826  0.0811 -1.4774 -2.1985
10014TIP3   OH251532   1.531   5.272   2.197 -0.2558  0.2714 -0.4052
10014TIP3    H151533   1.464   5.219   2.153  0.3506 -0.7657 -0.1023
10014TIP3    H251534   1.519   5.254   2.290  0.3762  0.1646 -0.3427
10015TIP3   OH251535   1.350   4.589  10.400  0.3237  0.1787  0.3513
10015TIP3    H151536   1.421   4.592  10.336  1.1172  1.3717  1.2497
10015TIP3    H251537   1.326   4.681  10.413 -0.9653 -0.1650  0.5436
10016TIP3   OH251538   0.475   0.066  13.178  0.5118 -0.2420 -0.1386
10016TIP3    H151539   0.510   0.155  13.181 -0.3718  0.1230 -0.2884
10016TIP3    H251540   0.480   0.042  13.086 -1.2340  0.5049 -0.4871
10017TIP3   OH251541   1.986   6.173   5.003  0.0347 -0.0693  0.1059
10017TIP3    H151542   1.902   6.155   5.045 -1.0792  0.8359 -1.6025
10017TIP3    H251543   1.975   6.260   4.964  2.3411  0.7863  1.1716
10018TIP3   OH251544   4.694   1.475  16.516 -0.3985  0.3848 -0.1130
10018TIP3    H151545   4.672   1.386  16.490  0.5666  0.1461 -0.1554
10018TIP3    H251546   4.648   1.489  16.599 -0.6564 -0.1082 -0.1749
10019TIP3   OH251547   6.828   6.110   2.547 -0.1973  0.2788  0.3591
10019TIP3    H151548   6.749   6.102   2.599  1.3365 -0.8005  2.6475
10019TIP3    H251549   6.853   6.202   2.556 -1.0897  0.6064 -0.3124
10020TIP3   OH251550   2.581   6.526   4.515  0.2510 -0.0523  0.1248
10020TIP3    H151551   2.512   6.469   4.549  1.3595 -1.1271  0.6552
10020TIP3    H251552   2.583   6.508   4.421 -1.2488  1.1890 -0.1755
10021TIP3   OH251553   1.507   3.037  17.165 -0.7719  0.1983 -0.3627
10021TIP3    H151554   1.559   3.109  17.201 -1.1362 -0.1597  0.9776
10021TIP3    H251555   1.435   3.027  17.229 -2.4805  0.6552 -2.1057
10022TIP3   OH251556   3.759   2.331  12.962 -0.0800 -0.1566 -0.3143
10022TIP3    H151557   3.823   2.356  13.029 -0.3051  0.9649 -0.4877
10022TIP3    H251558   3.745   2.238  12.976  1.3726 -0.3677 -0.0851
10023TIP3   OH251559   4.004   1.520   3.299 -0.0896 -0.0933 -0.4790
10023TIP3    H151560   3.998   1.430   3.267 -0.3162 -0.0839 -0.4637
10023TIP3    H251561   4.050   1.513   3.382 -1.3652 -0.3727  0.2327
10024TIP3   OH251562   3.408   6.283  15.352  0.3428 -0.2713 -0.1849
10024TIP3    H151563   3.483   6.276  15.292 -0.0383  1.8079 -0.9773
10024TIP3    H251564   3.447   6.286  15.439  1.0533 -1.0169 -0.4627
10025TIP3   OH251565   1.942   6.190   1.145  0.1178  0.2768  0.1008
10025TIP3    H151566   1.994   6.259   1.186 -1.5489  1.9108 -0.4275
10025TIP3    H251567   1.854   6.202   1.181 -0.7497 -0.0026 -1.8269
10026TIP3   OH251568   5.404   5.954  16.630 -0.3132  0.0744  0.4973
10026TIP3    H151569   5.367   5.883  16.682 -0.0764  1.1569  2.2386
10026TIP3    H251570   5.438   6.016  16.695  1.3835  0.7844 -0.9761
10027TIP3   OH251571   0.480   0.333  11.975 -0.0335 -0.3729  0.1403
10027TIP3    H151572   0.453   0.416  12.016  0.9538  0.3256 -0.5639
10027TIP3    H251573   0.436   0.266  12.026  0.0853  0.5259  1.4959
10028TIP3   OH251574   0.848   3.541  15.216 -0.4803  0.2281  0.4686
10028TIP3    H151575   0.784   3.518  15.149  0.2159  1.5201 -0.6830
10028TIP3    H251576   0.838   3.473  15.283 -0.9309 -1.3267 -1.1071
10029TIP3   OH251577   4.952   1.845   4.409  0.0560 -0.4084 -0.6307
10029TIP3    H151578   4.996   1.913   4.359 -1.9501  0.8746 -0.7499
10029TIP3    H251579   4.886   1.891   4.461 -2.2678 -2.3014 -1.6868
10030TIP3   OH251580   5.358   3.615  14.358 -0.5668 -0.2049  0.2942
10030TIP3    H151581   5.265   3.605  14.379 -0.9333 -0.4450 -1.3484
10030TIP3    H251582   5.361   3.617  14.263  1.2679 -1.6320  0.2714
10031TIP3   OH251583   0.927   3.790  14.373 -0.5341  0.0809 -0.0443
10031TIP3    H151584   0.962   3.779  14.285  0.8048 -0.5616  0.5326
10031TIP3    H251585   0.837   3.819  14.360 -0.8284 -1.3672 -1.6446
10032TIP3   OH251586   0.091   5.067  11.628 -0.7234  0.1135  0.8455
10032TIP3    H151587   0.153   5.123  11.581 -0.2456 -0.9656  0.1465
10032TIP3    H251588   0.092   4.985  11.579 -2.5542 -0.0001  0.9607
10033TIP3   OH251589   6.181   3.427   4.812 -0.0632  0.1177 -0.2304
10033TIP3    H151590   6.190   3.518   4.787  1.3721  0.6561  1.9929
10033TIP3    H251591   6.265   3.387   4.790 -0.0485 -0.2272  0.4256
10034TIP3   OH251592   3.031   4.490  15.451  0.1202  0.1924  0.2554
10034TIP3    H151593   2.985   4.428  15.507 -0.6123 -0.2821 -0.8450
10034TIP3    H251594   2.995   4.575  15.475 -1.4350 -0.1757 -0.6348
10035TIP3   OH251595   6.720   4.721  13.149 -0.1096  0.4784  0.6746
10035TIP3    H151596   6.736   4.666  13.073  0.8509  1.7189 -0.0470
10035TIP3    H251597   6.654   4.672  13.200 -2.3467  0.5480 -1.9169
10036TIP3   OH251598   5.326   0.761  17.187  0.7045  0.2513 -0.0561
10036TIP3    H151599   5.285   0.682  17.222  1.5511 -0.0665  0.2441
10036TIP3    H251600   5.311   0.827  17.254  1.3092 -0.0608  0.4122
10037TIP3   OH251601   2.016   0.013   2.460  0.1518  0.1283  0.5393
10037TIP3    H151602   2.034  -0.066   2.407  3.4683  0.6746  0.5943
10037TIP3    H251603   1.926   0.036   2.439 -0.7904 -3.3295  0.0813
10038TIP3   OH251604   0.189   1.305  10.987 -0.1929  0.2515 -0.3222
10038TIP3    H151605   0.132   1.286  10.912 -0.3090 -0.5453 -0.0372
10038TIP3    H251606   0.277   1.306  10.950 -0.3247  0.7567 -0.6310
10039TIP3   OH251607   2.407   5.883   0.154  0.0947 -0.3683  0.1149
10039TIP3    H151608   2.372   5.849   0.072 -1.2047  0.0920  0.4486
10039TIP3    H251609   2.360   5.835   0.222 -1.5539  1.7532  0.5934
10040TIP3   OH251610   0.371   3.111   5.610 -0.0141  0.2752 -0.0247
10040TIP3    H151611   0.287   3.127   5.652 -0.9814  0.3488 -1.8718
10040TIP3    H251612   0.385   3.188   5.554  1.0840  0.0699 -0.0689
10041TIP3   OH251613   3.862   0.630  15.920  0.5003  0.0232 -0.2857
10041TIP3    H151614   3.918   0.565  15.963 -0.7846 -0.3088  0.9870
10041TIP3    H251615   3.858   0.603  15.829 -0.4599 -2.0967  0.3035
10042TIP3   OH251616   3.488   5.296   2.795  0.4197 -0.0830  0.1769
10042TIP3    H151617   3.557   5.338   2.745 -0.0571  0.6016  0.0912
10042TIP3    H251618   3.410   5.303   2.740  0.2511 -0.7594  0.3178
10043TIP3   OH251619   3.539   3.301  11.659 -0.2029  0.1269 -0.1869
10043TIP3    H151620   3.615   3.333  11.708  0.2382  1.2406 -1.5113
10043TIP3    H251621   3.541   3.206  11.671  1.2706  0.1505  0.0001
10044TIP3   OH251622   3.962   4.457  11.767  0.2517  0.0167 -0.3653
10044TIP3    H151623   3.974   4.363  11.761 -1.4617 -0.2351 -0.2369
10044TIP3    H251624   4.019   4.493  11.698  0.5888 -1.1253 -0.6984
10045TIP3   OH251625   5.983   2.354  12.846 -0.1933  0.0418  0.0131
10045TIP3    H151626   6.065   2.402  12.858 -0.2461 -0.1464  1.2424
10045TIP3    H251627   5.982   2.331  12.753  2.1591 -1.7818  0.3556
10046TIP3   OH251628   3.795   3.677   1.308  0.1832  0.5715  0.1085
10046TIP3    H151629   3.817   3.585   1.292 -1.5820  0.2184 -0.5295
10046TIP3    H251630   3.736   3.674   1.384  1.4647  1.3741  1.1795
10047TIP3   OH251631   4.074   4.688  12.876  0.1079  0.0207  0.2049
10047TIP3    H151632   4.085   4.750  12.948  0.7221  1.6432 -1.2146
10047TIP3    H251633   3.981   4.693  12.853  0.2049  0.6507 -0.0761
10048TIP3   OH251634   5.527   6.768  17.014 -0.0810  0.0709  0.7005
10048TIP3    H151635   5.622   6.784  17.014 -0.2984  1.5714  0.4518
10048TIP3    H251636   5.494   6.818  17.088 -0.6875 -0.4324  0.7784
10049TIP3   OH251637   5.008   2.233  14.617 -0.4186  0.5313  0.4032
10049TIP3    H151638   5.002   2.220  14.522  1.9558 -0.7436  0.3423
10049TIP3    H251639   4.967   2.155  14.654  3.0760 -1.6274  0.2195
10050TIP3   OH251640   5.150   2.354  12.202  0.6938 -0.2980 -0.2760
10050TIP3    H151641   5.182   2.264  12.204 -0.7261 -0.9406 -2.6808
10050TIP3    H251642   5.068   2.352  12.251  0.3385 -0.4624 -0.8765
10051TIP3   OH251643   1.818   4.669  11.547  0.6676 -0.0136  0.3766
10051TIP3    H151644   1.880   4.719  11.493 -0.6669  1.1037 -0.1840
10051TIP3    H251645   1.800   4.726  11.622 -1.0445  0.5011 -0.3842
10052TIP3   OH251646   2.048   5.745  16.704 -0.3683 -0.7789 -0.1169
10052TIP3    H151647   2.119   5.757  16.767  0.6392  0.2713 -1.3951
10052TIP3    H251648   2.092   5.736  16.619 -1.7723  0.6430 -1.0427
10053TIP3   OH251649   2.075   3.639   1.280  0.1481 -0.0707 -0.5225
10053TIP3    H151650   2.048   3.690   1.203  1.0200  1.4910  0.1589
10053TIP3    H251651   2.052   3.549   1.258 -0.8283  0.5106 -2.0669
10054TIP3   OH251652   1.349   2.582   2.895  0.1011  0.8306  0.3313
10054TIP3    H151653   1.401   2.509   2.929  0.5420  1.1743  0.3984
10054TIP3    H251654   1.347   2.568   2.801  1.3184  1.4637  0.1993
10055TIP3   OH251655   5.070   0.641  15.667  0.4575 -0.5330 -0.4620
10055TIP3    H151656   5.005   0.708  15.691  0.5634  0.6014 -3.0429
10055TIP3    H251657   5.129   0.685  15.606  0.1134 -3.1154 -2.8556
10056TIP3   OH251658   6.531   4.185  12.050  0.1627 -0.1217 -0.9574
10056TIP3    H151659   6.442   4.170  12.018 -0.3241  3.1375 -1.5050
10056TIP3    H251660   6.523   4.189  12.145 -0.3336  0.3466 -1.0154
10057TIP3   OH251661   4.434   6.225  11.906  0.0650 -0.0987 -0.5670
10057TIP3    H151662   4.353   6.193  11.867 -1.1273 -3.4982  3.8054
10057TIP3    H251663   4.407   6.295  11.965  0.1832 -1.2054  0.8688
10058TIP3   OH251664   0.039   1.559  17.157 -0.2552  0.3201 -0.0990
10058TIP3    H151665   0.008   1.647  17.135 -2.7260 -0.7297 -1.3356
10058TIP3    H251666  -0.021   1.501  17.109 -2.0212 -2.1691  4.4888
10059TIP3   OH251667   5.481   3.077  14.237  0.0265  0.1919 -0.0750
10059TIP3    H151668   5.444   3.164  14.254 -0.1668  0.1665 -0.3580
10059TIP3    H251669   5.455   3.057  14.147 -0.2151 -0.3051  0.1035
10060TIP3   OH251670   6.297   3.478   0.674  0.3859  0.2807  0.0246
10060TIP3    H151671   6.392   3.466   0.673  0.0523 -3.6138 -1.2057
10060TIP3    H251672   6.272   3.485   0.581 -0.6621 -0.7176  0.2055
10061TIP3   OH251673   6.813   5.482  14.762  0.3119 -0.1360 -0.1084
10061TIP3    H151674   6.859   5.411  14.807  0.1485  0.5222  1.1602
10061TIP3    H251675   6.844   5.562  14.806 -2.5567  0.3045  1.3194
10062TIP3   OH251676   4.959   0.795   4.373 -0.2563  0.1361 -0.6314
10062TIP3    H151677   5.021   0.868   4.374  0.5278 -0.5198 -0.2668
10062TIP3    H251678   5.014   0.716   4.366 -1.1307 -0.3911 -2.0384
10063TIP3   OH251679   0.434   1.387   3.519  0.1227  0.0767 -0.4987
10063TIP3    H151680   0.458   1.479   3.525  0.2655 -0.0270  1.1624
10063TIP3    H251681   0.512   1.340   3.549  0.1766 -0.6139 -1.6723
10064TIP3   OH251682   0.592   0.190  14.536  0.1939 -0.3253 -0.1463
10064TIP3    H151683   0.528   0.255  14.508 -0.0840 -1.2858 -1.9494
10064TIP3    H251684   0.571   0.112  14.484  2.3129 -0.9226 -0.2163
10065TIP3   OH251685   4.324   3.575   6.007  0.0234 -0.0562 -0.2418
10065TIP3    H151686   4.363   3.503   5.957  1.6032  0.7410 -0.2224
10065TIP3    H251687   4.385   3.590   6.080  0.5519  2.2336 -1.0534
10066TIP3   OH251688   6.341   5.062  13.818  0.2668 -0.0645 -0.0572
10066TIP3    H151689   6.399   5.024  13.752 -0.5652  1.2368 -1.6088
10066TIP3    H251690   6.257   5.018  13.804  0.4946 -1.0058  1.3169
10067TIP3   OH251691   2.350   0.911   0.718  0.1532 -0.2226  0.1978
10067TIP3    H151692   2.371   0.818   0.723  2.2812  0.1763 -0.2798
10067TIP3    H251693   2.407   0.952   0.784 -1.0478  0.7119  0.6938
10068TIP3   OH251694   5.160   2.037   1.133 -0.1914 -0.5080 -0.2437
10068TIP3    H151695   5.246   2.072   1.110 -0.1517  0.2124  0.9333
10068TIP3    H251696   5.099   2.089   1.081  0.0226 -0.4124 -0.4035
10069TIP3   OH251697   5.935   5.353   5.709  0.3402  0.4469  0.1772
10069TIP3    H151698   6.012   5.406   5.690  0.5373 -0.1994 -0.9423
10069TIP3    H251699   5.871   5.379   5.643  0.2836 -0.3785 -0.1106
10070TIP3   OH251700   0.498   1.862  10.984  0.9029  0.0129  0.5703
10070TIP3    H151701   0.553   1.932  11.021  0.7719  0.3030  0.2163
10070TIP3    H251702   0.543   1.836  10.904  1.1203 -0.5329  0.8640
10071TIP3   OH251703   0.656   2.906   5.439 -0.1191 -0.0976 -0.3671
10071TIP3    H151704   0.686   2.867   5.521  0.2337  0.2343 -0.3371
10071TIP3    H251705   0.631   2.831   5.385  0.6349 -0.3760 -0.3401
10072TIP3   OH251706   0.464   0.162  16.788 -0.3857 -0.6115  0.0431
10072TIP3    H151707   0.434   0.098  16.854 -0.4592 -0.1586  0.4558
10072TIP3    H251708   0.469   0.245  16.836 -0.4905 -0.2644 -0.5400
10073TIP3   OH251709   6.476   0.782   3.124 -0.6629 -0.1552 -0.1563
10073TIP3    H151710   6.519   0.822   3.199  0.3115 -0.7524 -0.3688
10073TIP3    H251711   6.545   0.776   3.058 -1.5385  0.4999 -1.1612
10074TIP3   OH251712   4.965   3.084  16.444 -0.1736  0.7756 -0.3869
10074TIP3    H151713   5.029   3.013  16.437 -0.8266  0.2824 -1.9687
10074TIP3    H251714   5.017   3.163  16.456  0.6005  0.1206  0.7230
10075TIP3   OH251715   5.722   1.632   0.907 -0.5341  0.0273 -0.0026
10075TIP3    H151716   5.817   1.637   0.909 -0.5232 -0.1398 -0.0735
10075TIP3    H251717   5.693   1.673   0.989 -0.3676 -0.7977  0.4748
10076TIP3   OH251718   5.007   0.462   3.794 -0.7655 -0.1855 -0.5225
10076TIP3    H151719   4.966   0.443   3.878 -1.1694  1.6467 -0.2697
10076TIP3    H251720   4.934   0.487   3.737 -0.4108 -0.7096 -1.2263
10077TIP3   OH251721   3.293   1.231  13.436 -0.2106  0.0665 -0.5618
10077TIP3    H151722   3.285   1.304  13.498  0.7295  0.6404 -1.1032
10077TIP3    H251723   3.339   1.268  13.361  0.4167 -1.1297 -0.7796
10078TIP3   OH251724   2.114   3.248   5.568  0.0985 -0.1387  0.4442
10078TIP3    H151725   2.045   3.265   5.504  0.9956 -0.7572 -0.7348
10078TIP3    H251726   2.193   3.285   5.529  0.5381  0.1504  1.5523
10079TIP3   OH251727   0.168   5.264   3.957 -0.4473 -0.5447  0.6931
10079TIP3    H151728   0.262   5.277   3.943 -0.1563 -2.2458  0.8780
10079TIP3    H251729   0.163   5.189   4.017 -1.9358 -1.0444 -0.0207
10080TIP3   OH251730   3.366   0.725   5.512 -0.5891 -0.0397 -0.1304
10080TIP3    H151731   3.402   0.811   5.535 -1.8461  0.4920 -0.0405
10080TIP3    H251732   3.319   0.740   5.430  0.3335 -0.9697 -0.8410
10081TIP3   OH251733   1.388   6.088   1.042 -0.2077  0.2682  0.3928
10081TIP3    H151734   1.436   6.101   0.960  0.0742 -0.4222  0.4383
10081TIP3    H251735   1.436   6.019   1.087 -0.9200 -0.0424  0.6997
10082TIP3   OH251736   0.418   4.489   2.263  0.0233 -0.9220 -0.4443
10082TIP3    H151737   0.407   4.394   2.271 -2.4021 -0.8388 -1.8113
10082TIP3    H251738   0.342   4.525   2.308  1.8328  0.5034  1.6125
10083TIP3   OH251739   3.252   4.640  15.092 -1.0578 -0.8481 -0.1897
10083TIP3    H151740   3.182   4.689  15.049 -0.0331 -0.0216 -0.9724
10083TIP3    H251741   3.304   4.706  15.137 -0.2579 -1.3343 -0.3858
10084TIP3   OH251742   0.212   4.128   2.779 -0.7411 -0.3424  0.0818
10084TIP3    H151743   0.292   4.153   2.826  0.1605  0.6988 -1.8552
10084TIP3    H251744   0.152   4.098   2.847  1.0153 -0.3988  1.6911
10085TIP3   OH251745   5.505   5.571   3.100  0.1967 -0.2188  0.2694
10085TIP3    H151746   5.438   5.546   3.036 -0.4286 -0.3195  0.9469
10085TIP3    H251747   5.502   5.501   3.166  2.1389 -1.1167 -0.5255
10086TIP3   OH251748   2.076   0.713  13.655 -1.2798  0.1862  0.1578
10086TIP3    H151749   2.076   0.632  13.706 -0.3641 -0.8855 -1.4580
10086TIP3    H251750   1.984   0.728  13.633 -1.5279 -0.0302  1.0400
10087TIP3   OH251751   5.020   3.570   0.694 -0.5931 -0.3539  0.8244
10087TIP3    H151752   5.107   3.550   0.661  0.2588 -0.5671  3.0248
10087TIP3    H251753   4.960   3.535   0.628  0.9740 -0.9372 -0.3340
10088TIP3   OH251754   1.598   3.314   6.511  0.4811  0.6192  0.3490
10088TIP3    H151755   1.648   3.245   6.556 -0.9104  0.3807  1.6179
10088TIP3    H251756   1.590   3.384   6.576 -0.8201  0.6410  0.1906
10089TIP3   OH251757   5.080   1.571   4.855  0.0872 -0.0301  0.3185
10089TIP3    H151758   5.020   1.617   4.797 -1.0993  0.6891  2.0435
10089TIP3    H251759   5.036   1.490   4.877  1.3612 -1.2100 -1.2112
10090TIP3   OH251760   4.088   6.224  11.171 -0.1394 -0.4517  0.6048
10090TIP3    H151761   4.105   6.222  11.077 -1.4523 -1.0166  0.3443
10090TIP3    H251762   4.074   6.316  11.191  0.4552 -0.2956  0.3107
10091TIP3   OH251763   1.059   1.339   3.851  0.0781  0.1496 -0.0140
10091TIP3    H151764   0.972   1.367   3.822 -0.1397  0.5765  1.0004
10091TIP3    H251765   1.119   1.402   3.811 -0.2027  0.6231  0.2900
10092TIP3   OH251766   6.019   4.105   0.616 -0.3183 -0.2212  0.3941
10092TIP3    H151767   6.012   4.077   0.708 -1.0177 -0.1873  0.3516
10092TIP3    H251768   6.013   4.024   0.566  1.3522 -0.3998  0.4101
10093TIP3   OH251769   4.291   2.336   0.052  0.3512  0.1699  0.3430
10093TIP3    H151770   4.305   2.266  -0.012  2.0067  1.4285 -0.7709
10093TIP3    H251771   4.370   2.336   0.105  0.4303  1.2288  0.2550
10094TIP3   OH251772   2.260   6.370  16.847 -0.0067 -0.7246 -1.0571
10094TIP3    H151773   2.203   6.442  16.876 -0.7338 -0.3963 -3.1201
10094TIP3    H251774   2.210   6.291  16.865 -0.4057 -0.5325 -1.2985
10095TIP3   OH251775   4.758   0.376   5.817 -0.2513  0.3102 -0.3427
10095TIP3    H151776   4.685   0.402   5.874  1.9654  0.5160  2.6723
10095TIP3    H251777   4.802   0.458   5.796  2.1679 -0.0706  2.5468
10096TIP3   OH251778   3.725   3.309  16.274  0.5188 -0.0160  0.0633
10096TIP3    H151779   3.804   3.362  16.263 -0.2782  1.0572 -0.7517
10096TIP3    H251780   3.653   3.369  16.254 -0.5060 -1.0030  0.6496
10097TIP3   OH251781   4.290   3.693   5.068 -0.2863 -0.4188  0.1054
10097TIP3    H151782   4.345   3.615   5.062  0.6407  0.2316  0.0785
10097TIP3    H251783   4.289   3.714   5.161  0.7187  0.4093 -0.0523
10098TIP3   OH251784   2.146   0.097  14.988  0.0514  0.5033 -0.0104
10098TIP3    H151785   2.085   0.063  14.922  0.4428 -0.1484 -0.0473
10098TIP3    H251786   2.177   0.180  14.952 -0.6175  0.7136 -0.1093
10099TIP3   OH251787   2.677   1.127  13.485 -0.4861 -0.3442  0.2325
10099TIP3    H151788   2.648   1.055  13.541 -1.8361 -0.2967 -0.3662
10099TIP3    H251789   2.647   1.206  13.531 -0.6422 -0.2597 -0.0128
10100TIP3   OH251790   2.285   0.958  13.503 -0.1399 -0.4551  0.2262
10100TIP3    H151791   2.302   0.945  13.596 -2.0629 -0.0575  0.6765
10100TIP3    H251792   2.212   1.020  13.500 -1.0095 -1.4916 -1.5272
10101TIP3   OH251793   3.696   1.199   5.205 -0.3867  0.3219 -0.0473
10101TIP3    H151794   3.772   1.195   5.264 -0.2409  0.6343 -0.2154
10101TIP3    H251795   3.734   1.213   5.119 -0.6399  0.4983 -0.1287
10102TIP3   OH251796   6.741   1.544  13.902 -0.2242  0.1969  0.2544
10102TIP3    H151797   6.819   1.521  13.953 -1.3554 -3.4567  0.6174
10102TIP3    H251798   6.771   1.547  13.812  0.7170  1.1053  0.5753
10103TIP3   OH251799   2.142   4.644  16.652 -0.3642 -0.0036  0.1996
10103TIP3    H151800   2.122   4.682  16.566 -0.6038  0.3594  0.4125
10103TIP3    H251801   2.207   4.704  16.690 -0.7986  0.2448  0.5661
10104TIP3   OH251802   3.202   2.825  12.198  0.5565  0.4447  0.6309
10104TIP3    H151803   3.249   2.744  12.216  0.2551  0.2413  0.5088
10104TIP3    H251804   3.265   2.879  12.150  0.5667  0.0572  0.2045
10105TIP3   OH251805   3.797   3.517  14.025  0.4892  0.3080  0.0962
10105TIP3    H151806   3.869   3.506  13.962  0.4344  2.2712 -0.3639
10105TIP3    H251807   3.835   3.567  14.097 -0.0293  0.0029  0.5891
10106TIP3   OH251808   4.107   5.505  13.389  0.0526 -0.8756 -0.6567
10106TIP3    H151809   4.084   5.443  13.319 -0.0718 -1.6899  0.0801
10106TIP3    H251810   4.036   5.497  13.452  0.4939 -0.6521 -0.1221
10107TIP3   OH251811   0.722   3.625   5.724  0.4973 -0.0923 -0.5660
10107TIP3    H151812   0.732   3.610   5.818  1.2361  1.3827 -0.3853
10107TIP3    H251813   0.641   3.676   5.716  0.6483  0.1307 -0.6884
10108TIP3   OH251814   1.148   5.906   3.449 -0.0546 -0.1501  0.4227
10108TIP3    H151815   1.147   5.810   3.449 -0.5463 -0.1665 -0.8962
10108TIP3    H251816   1.154   5.930   3.541 -0.5090 -1.4526  0.8122
10109TIP3   OH251817   4.448   3.351   5.945  0.4278  0.2899 -0.7123
10109TIP3    H151818   4.415   3.270   5.985  0.5808  1.5404  2.1789
10109TIP3    H251819   4.542   3.350   5.964  0.7138  0.4818 -2.0073
10110TIP3   OH251820   3.460   5.649   3.303  0.2018 -0.2754  0.1060
10110TIP3    H151821   3.523   5.623   3.370  0.6770 -0.3388 -0.3542
10110TIP3    H251822   3.387   5.687   3.351 -0.6361 -2.6522  0.8386
10111TIP3   OH251823   6.536   0.702   5.497  0.4117  0.0262  0.3352
10111TIP3    H151824   6.465   0.689   5.560 -0.1018  0.5933 -0.1137
10111TIP3    H251825   6.594   0.626   5.509 -0.9463 -1.1439 -0.1906
10112TIP3   OH251826   0.063   5.223  12.991  0.6727  0.0506  0.0644
10112TIP3    H151827   0.005   5.151  13.012 -0.5900  0.7887 -0.7734
10112TIP3    H251828   0.028   5.297  13.040  0.7802  0.5463 -0.5888
10113TIP3   OH251829   3.391   4.082   1.897  0.3170  0.3554 -0.3284
10113TIP3    H151830   3.305   4.091   1.856  0.6164  0.8308 -0.8555
10113TIP3    H251831   3.446   4.146   1.853  0.9023  0.1789  0.1295
10114TIP3   OH251832   3.015   5.816  14.271 -0.5227  0.4090 -0.4437
10114TIP3    H151833   2.957   5.852  14.205  1.6940  3.4786 -0.9413
10114TIP3    H251834   3.007   5.876  14.345  0.0620 -0.6499  0.5205
10115TIP3   OH251835   1.731   5.282  12.685 -0.0890 -0.0431 -0.0643
10115TIP3    H151836   1.822   5.258  12.663 -0.1322 -0.0373 -0.2551
10115TIP3    H251837   1.679   5.240  12.617 -0.2791 -0.5113  0.3695
10116TIP3   OH251838   3.322   4.288   2.351  0.6863 -0.0188  0.0371
10116TIP3    H151839   3.323   4.350   2.279  0.8879 -1.6806 -1.4606
10116TIP3    H251840   3.408   4.297   2.392  0.1433  1.7837  0.8984
10117TIP3   OH251841   2.643   2.720  10.767  0.2768  0.3916 -0.5588
10117TIP3    H151842   2.550   2.701  10.754  0.4879 -0.5101 -0.8501
10117TIP3    H251843   2.668   2.773  10.692  1.1945 -3.7432 -3.5417
10118TIP3   OH251844   2.728   4.511   2.738 -0.0719  0.4082 -0.3723
10118TIP3    H151845   2.695   4.504   2.648 -0.6511 -1.0736 -0.0650
10118TIP3    H251846   2.655   4.548   2.787 -0.3034 -0.2178 -0.2336
10119TIP3   OH251847   2.739   1.904  12.994 -0.2553  0.0142  0.6960
10119TIP3    H151848   2.703   1.816  13.005  0.9343 -0.4615  0.9523
10119TIP3    H251849   2.663   1.959  12.975 -0.8359 -1.3625 -1.2912
10120TIP3   OH251850   3.557   4.245   1.761 -0.2978  0.3922  0.2110
10120TIP3    H151851   3.567   4.334   1.796 -0.2862  0.4876 -0.0327
10120TIP3    H251852   3.628   4.236   1.697 -1.7663  1.1159 -1.6281
10121TIP3   OH251853   3.997   1.250   4.215 -0.6128  0.1519 -0.1851
10121TIP3    H151854   3.991   1.290   4.302 -1.0465  2.0577 -1.0323
10121TIP3    H251855   4.058   1.306   4.167  0.9258 -1.8117 -0.6631
10122TIP3   OH251856   5.736   6.135  11.628  0.0234 -0.0961  0.3554
10122TIP3    H151857   5.738   6.147  11.723 -0.7162  0.9328  0.2530
10122TIP3    H251858   5.711   6.221  11.594  2.4906  0.2168 -0.9051
10123TIP3   OH251859   4.525   5.979  15.275 -0.4684 -0.3452 -0.2187
10123TIP3    H151860   4.489   5.951  15.360 -1.3712  0.4948 -0.3129
10123TIP3    H251861   4.451   6.018  15.229  0.1707 -0.1921 -1.1354
10124TIP3   OH251862   5.193   6.609  14.373 -0.5172 -0.1952 -0.1117
10124TIP3    H151863   5.120   6.616  14.435 -0.0600 -1.4853  0.6103
10124TIP3    H251864   5.267   6.579  14.426  0.2383 -0.0282 -1.0477
10125TIP3   OH251865   1.774   6.449  16.518  0.1444 -0.2600 -0.4928
10125TIP3    H151866   1.852   6.491  16.554 -0.1363 -0.9979  1.0428
10125TIP3    H251867   1.713   6.521  16.503  0.3090  0.0821  0.4226
10126TIP3   OH251868   6.467   6.393  16.195  0.5822 -0.5381  0.0493
10126TIP3    H151869   6.561   6.376  16.196  0.6233 -0.3591  1.6237
10126TIP3    H251870   6.460   6.487  16.184  0.6384 -0.4178  0.9402
10127TIP3   OH251871   1.259   1.481   2.840 -0.0594  0.0731 -0.4605
10127TIP3    H151872   1.224   1.515   2.922 -0.5916  1.1413 -1.1055
10127TIP3    H251873   1.184   1.478   2.781  0.1016 -1.6415 -0.6416
10128TIP3   OH251874   2.815   2.560   5.238  0.3009 -0.3690 -0.3871
10128TIP3    H151875   2.725   2.593   5.233  0.0684 -0.9494 -0.1068
10128TIP3    H251876   2.818   2.509   5.318  1.2121  0.5751  0.2028
10129TIP3   OH251877   0.900   4.124  14.343 -0.7273 -0.0847  0.2657
10129TIP3    H151878   0.860   4.047  14.385 -0.1059 -0.2443  0.5735
10129TIP3    H251879   0.878   4.197  14.401 -0.5229 -0.1806  0.4629
10130TIP3   OH251880   4.990   3.655  12.356 -0.6543 -0.5574 -0.3978
10130TIP3    H151881   5.075   3.686  12.324 -0.7299 -1.3730 -1.4431
10130TIP3    H251882   4.927   3.690  12.293 -1.2605  1.0770  1.0466
10131TIP3   OH251883   3.722   0.655   4.734 -0.5613 -0.3216 -0.5071
10131TIP3    H151884   3.751   0.726   4.677  0.0753 -0.8605 -0.8791
10131TIP3    H251885   3.773   0.579   4.705 -1.1911 -0.9190 -0.0879
10132TIP3   OH251886   3.445   6.761   3.131  0.0604 -0.0644  0.0087
10132TIP3    H151887   3.512   6.695   3.151  0.6436 -0.3070 -2.4426
10132TIP3    H251888   3.493   6.844   3.129  0.1185 -0.1157 -0.8501
10133TIP3   OH251889   0.177   4.554   5.347 -0.0702 -0.2483  0.2402
10133TIP3    H151890   0.210   4.570   5.435 -1.5948  1.6556  0.5163
10133TIP3    H251891   0.154   4.461   5.346 -1.2724 -0.0077  2.2795
10134TIP3   OH251892   5.887   5.708  12.669 -0.4035 -0.2820 -0.5806
10134TIP3    H151893   5.837   5.741  12.595 -2.5521  0.1810  0.9612
10134TIP3    H251894   5.845   5.747  12.746  1.3371 -1.1907  0.9283
10135TIP3   OH251895   5.575   6.695  15.991 -0.2100  0.0934  0.6808
10135TIP3    H151896   5.590   6.700  16.086  0.0257 -1.2817  0.7328
10135TIP3    H251897   5.663   6.695  15.954 -0.2870 -0.0821  0.5002
10136TIP3   OH251898   0.861   3.187   5.830 -0.0329  0.0692  0.3444
10136TIP3    H151899   0.770   3.194   5.857  0.6563  0.0290  2.9899
10136TIP3    H251900   0.858   3.181   5.734 -2.8535 -1.1570  0.4137
10137TIP3   OH251901   6.791   0.430  16.137  0.1718 -0.2887 -0.0017
10137TIP3    H151902   6.720   0.494  16.142  1.2805  1.0931 -1.0162
10137TIP3    H251903   6.837   0.439  16.220  0.7778  0.8176 -0.4395
10138TIP3   OH251904   4.346   0.093  15.043 -0.2273 -0.5079 -0.2154
10138TIP3    H151905   4.338   0.175  15.092  0.2272 -0.1422 -0.7317
10138TIP3    H251906   4.416   0.045  15.088  1.5203  0.6417 -1.5559
10139TIP3   OH251907   4.113   5.163   5.165  0.2823 -0.6595  0.0606
10139TIP3    H151908   4.192   5.127   5.206  0.7788  1.1893  0.8499
10139TIP3    H251909   4.146   5.210   5.089 -0.3915 -2.0917 -1.1651
10140TIP3   OH251910   6.077   2.453   6.041 -0.3337 -0.3479 -0.9052
10140TIP3    H151911   6.065   2.475   6.133 -0.7891 -1.4483 -0.6923
10140TIP3    H251912   6.158   2.403   6.038  0.2456  0.5759 -1.2713
10141TIP3   OH251913   6.317   0.490  11.308 -0.4748 -0.3932 -0.6411
10141TIP3    H151914   6.292   0.430  11.378 -0.1605  1.8027  1.4712
10141TIP3    H251915   6.275   0.453  11.229 -3.7412 -1.1743  1.2592
10142TIP3   OH251916   0.626   0.034   0.739  0.1828 -0.7077  0.2212
10142TIP3    H151917   0.705   0.025   0.793  0.4258 -0.8330 -0.1568
10142TIP3    H251918   0.555   0.043   0.803  0.7903  2.2048  0.6206
10143TIP3   OH251919   6.345   3.582  14.937 -0.9914 -0.4169 -0.0648
10143TIP3    H151920   6.366   3.529  15.013 -2.3246 -0.3517  0.3632
10143TIP3    H251921   6.408   3.554  14.870  0.8457  0.2280  1.3287
10144TIP3   OH251922   3.503   5.104   4.251  0.4769 -0.5525 -0.0881
10144TIP3    H151923   3.562   5.172   4.217  1.5899 -0.9343  0.9710
10144TIP3    H251924   3.554   5.023   4.244 -0.4815 -1.1347 -0.4763
10145TIP3   OH251925   2.924   4.270   0.175 -0.0703  0.4901  0.3080
10145TIP3    H151926   2.963   4.338   0.120  0.9603 -0.2462  0.0907
10145TIP3    H251927   2.830   4.288   0.173 -0.1048  0.2762 -1.9717
10146TIP3   OH251928   6.393   3.100  16.011  0.3342 -0.4318  0.2541
10146TIP3    H151929   6.426   3.091  15.921  2.5392 -1.5007  1.1033
10146TIP3    H251930   6.421   3.187  16.038  1.7910 -0.9979  0.6648
10147TIP3   OH251931   0.049   1.487  13.410  0.2557  0.4747 -0.4655
10147TIP3    H151932   0.051   1.409  13.465  1.5358  0.4496 -0.5009
10147TIP3    H251933   0.141   1.500  13.385  0.0713  2.0130 -0.4208
10148TIP3   OH251934   5.925   4.089  16.832 -0.1178 -0.7371 -0.0365
10148TIP3    H151935   5.937   4.099  16.738  0.1463  0.1467  0.0749
10148TIP3    H251936   5.979   4.158  16.870 -1.8632  0.3088  0.6684
10149TIP3   OH251937   4.574   3.321   4.191 -0.1058  0.0893 -0.2513
10149TIP3    H151938   4.635   3.257   4.154  0.1745  0.3204 -0.1972
10149TIP3    H251939   4.631   3.389   4.229 -0.3975  0.5497 -0.6252
10150TIP3   OH251940   1.290   4.829   5.002  0.0438  0.2216 -0.4327
10150TIP3    H151941   1.341   4.906   4.976  0.5869  0.0880  0.2182
10150TIP3    H251942   1.318   4.811   5.092 -0.9722 -0.0038 -0.1517
10151TIP3   OH251943   5.100   0.201   3.830  0.6198 -0.2193  0.1144
10151TIP3    H151944   5.082   0.287   3.792  1.4601  0.3401  0.9168
10151TIP3    H251945   5.035   0.143   3.791  0.5815  0.5988 -1.0987
10152TIP3   OH251946   2.175   0.552   4.140  0.3646 -0.0095 -0.1354
10152TIP3    H151947   2.254   0.598   4.111  1.8020 -1.6655  0.8886
10152TIP3    H251948   2.209   0.480   4.194 -1.9709  0.8847  2.7751
10153TIP3   OH251949   3.957   3.527   4.348 -0.4056  0.7111  0.4445
10153TIP3    H151950   3.994   3.580   4.277  0.0021  0.1814  0.2588
10153TIP3    H251951   3.862   3.530   4.333 -0.2746 -0.1762 -0.6892
10154TIP3   OH251952   6.009   1.577   2.755  0.2051 -0.0274  0.5755
10154TIP3    H151953   6.015   1.510   2.823 -0.3792 -0.2602  0.4041
10154TIP3    H251954   6.039   1.657   2.798  1.0500 -0.4237  0.7396
10155TIP3   OH251955   3.984   6.241   3.651 -0.3579  0.0049 -0.2609
10155TIP3    H151956   3.986   6.314   3.589 -1.1161 -0.6194 -1.0449
10155TIP3    H251957   3.894   6.210   3.648 -0.5722  0.3307  1.6125
10156TIP3   OH251958   4.709   0.960  15.245  0.3516  0.1985 -0.2597
10156TIP3    H151959   4.681   0.916  15.165 -0.6077 -0.2000  0.2852
10156TIP3    H251960   4.651   1.037  15.252 -2.0629 -1.6207  1.8593
10157TIP3   OH251961   6.074   2.092  10.478 -0.1519 -0.1278 -0.3663
10157TIP3    H151962   6.018   2.162  10.512  2.4900  1.2792  1.4371
10157TIP3    H251963   6.139   2.136  10.425  1.0359 -1.3144  0.0422
10158TIP3   OH251964   1.653   3.501   0.035  0.3160  0.3746 -0.1998
10158TIP3    H151965   1.675   3.560  -0.037  0.3049 -0.1298 -0.6226
10158TIP3    H251966   1.584   3.546   0.083  0.3100  0.7064 -0.5175
10159TIP3   OH251967   5.968   3.663   2.860 -0.1120 -0.6523  1.1669
10159TIP3    H151968   5.957   3.755   2.885  0.0538 -0.0095 -0.9303
10159TIP3    H251969   6.009   3.667   2.773 -0.8199 -2.6927  0.6914
10160TIP3   OH251970   6.266   3.957   2.427  0.3445  0.6225  0.1623
10160TIP3    H151971   6.193   3.938   2.485  0.4138 -1.2316 -0.2837
10160TIP3    H251972   6.237   4.031   2.374 -0.6314  0.8183  0.9556
10161TIP3   OH251973   2.181   4.781   3.324  0.3275 -0.3856 -0.6026
10161TIP3    H151974   2.234   4.782   3.244  1.1904 -0.1516 -0.0381
10161TIP3    H251975   2.091   4.781   3.292  0.6502 -0.9340 -1.5878
10162TIP3   OH251976   6.525   0.129   1.014 -0.0894  0.5254  0.4181
10162TIP3    H151977   6.476   0.183   1.076  1.5897  1.1471  1.2429
10162TIP3    H251978   6.565   0.192   0.954 -1.0536 -0.0308 -0.8474
10163TIP3   OH251979   1.769   3.602  10.382 -0.0366  0.0078 -0.3269
10163TIP3    H151980   1.725   3.671  10.431  1.9529 -1.0046  3.1833
10163TIP3    H251981   1.708   3.528  10.385 -0.9912  0.6789 -1.7292
10164TIP3   OH251982   5.336   5.382   2.917  0.4603  0.4160 -0.4268
10164TIP3    H151983   5.413   5.373   2.860 -0.0315  2.6029 -1.5523
10164TIP3    H251984   5.266   5.409   2.859 -0.5395  0.9245  0.9614
10165TIP3   OH251985   2.871   3.934   0.306  0.1692  0.3674  0.2869
10165TIP3    H151986   2.963   3.923   0.283 -0.1575 -2.4977 -0.0890
10165TIP3    H251987   2.841   3.845   0.328 -2.5447  1.1649  0.2173
10166TIP3   OH251988   6.607   0.337   1.288  0.0520 -0.0105 -0.7577
10166TIP3    H151989   6.525   0.346   1.240 -1.2152  0.1572  1.2832
10166TIP3    H251990   6.674   0.325   1.221 -1.7625 -1.0858 -2.4757
10167TIP3   OH251991   3.005   2.399  13.348  0.4609  0.3896 -0.2909
10167TIP3    H151992   2.996   2.481  13.397  1.8872 -0.1430  0.9094
10167TIP3    H251993   2.915   2.366  13.342 -0.0637  1.7381 -0.2879
10168TIP3   OH251994   2.890   3.314   0.229  0.0401  0.2632 -0.1630
10168TIP3    H151995   2.886   3.365   0.148 -2.4606 -1.4569 -1.2485
10168TIP3    H251996   2.803   3.325   0.267  0.3669 -0.9954  0.9943
10169TIP3   OH251997   1.367   4.975  12.431  0.1515 -0.2323  0.3588
10169TIP3    H151998   1.349   4.955  12.339 -0.9021 -2.7455  1.0359
10169TIP3    H251999   1.458   4.950  12.444 -0.1618 -1.4554  0.3435
10170TIP3   OH252000   0.475   5.156   2.152 -0.2093  0.5030 -0.2819
10170TIP3    H152001   0.546   5.195   2.102 -0.8731  1.4961 -0.4846
10170TIP3    H252002   0.449   5.225   2.214  1.3837 -1.0510  2.3232
10171TIP3   OH252003   3.577   3.255   3.261 -0.1973  0.5201  0.1816
10171TIP3    H152004   3.619   3.169   3.270  0.3204  0.7228 -0.2384
10171TIP3    H252005   3.511   3.242   3.193  0.2687  0.5911 -0.2907
10172TIP3   OH252006   4.605   4.746   0.714  0.2870  0.3664  0.1470
10172TIP3    H152007   4.582   4.819   0.658  3.2570  0.8523 -0.6328
10172TIP3    H252008   4.649   4.787   0.789  0.8229 -0.5379  0.3423
10173TIP3   OH252009   3.553   1.738  16.831 -0.0418 -0.2152  0.1086
10173TIP3    H152010   3.485   1.675  16.811  1.6483 -2.4089  0.8491
10173TIP3    H252011   3.617   1.728  16.760  0.0790  0.9892  0.0143
10174TIP3   OH252012   1.702   6.499  11.620  0.2337  0.3056 -0.4683
10174TIP3    H152013   1.627   6.447  11.649  0.7377 -0.4144 -0.4223
10174TIP3    H252014   1.738   6.535  11.701  0.5844 -0.2532 -0.3674
10175TIP3   OH252015   6.800   5.667   1.248  0.1177 -0.4488 -0.3602
10175TIP3    H152016   6.765   5.581   1.272  0.5518 -0.2818  0.9207
10175TIP3    H252017   6.868   5.647   1.183  1.6146 -1.2960  1.3879
10176TIP3   OH252018   2.292   4.155   1.309  0.3491 -0.2466 -0.2260
10176TIP3    H152019   2.246   4.217   1.252  0.0341 -0.6101 -0.3783
10176TIP3    H252020   2.235   4.077   1.310  0.0539 -0.0384  1.0530
10177TIP3   OH252021   2.162   3.101   5.182  0.1522 -0.0142 -0.0826
10177TIP3    H152022   2.072   3.131   5.200  0.5632  1.2199  0.0607
10177TIP3    H252023   2.155   3.006   5.174 -1.2418  0.1011 -0.5227
10178TIP3   OH252024   1.682   1.165   2.796 -0.2280 -0.4880  0.3911
10178TIP3    H152025   1.762   1.177   2.746 -0.6857  2.3900  0.2200
10178TIP3    H252026   1.632   1.245   2.782 -2.8470 -1.8916  1.0694
10179TIP3   OH252027   4.825   6.371  14.791  0.0778 -0.2041  0.1863
10179TIP3    H152028   4.884   6.395  14.720 -2.6387  0.5592 -2.0255
10179TIP3    H252029   4.738   6.374  14.751 -1.5202 -0.8721  3.3069
10180TIP3   OH252030   1.976   6.613   3.656 -0.0856  0.2363 -0.1493
10180TIP3    H152031   2.018   6.605   3.742  0.0195  1.2759 -0.0983
10180TIP3    H252032   1.951   6.705   3.650  1.6001  0.6330 -2.0196
10181TIP3   OH252033   6.692   0.505   6.194 -0.2520 -0.4558 -0.2441
10181TIP3    H152034   6.747   0.535   6.266 -1.5921  1.4505  0.0502
10181TIP3    H252035   6.628   0.447   6.236  1.6649 -3.0677 -0.6542
10182TIP3   OH252036   0.524   5.301  15.452 -0.4024 -0.5647 -0.0160
10182TIP3    H152037   0.488   5.231  15.398 -0.7144 -0.0072 -0.5499
10182TIP3    H252038   0.454   5.324  15.512 -0.7575  0.1429 -0.6865
10183TIP3   OH252039   2.630   4.105  13.725  0.8120 -0.0317  0.2413
10183TIP3    H152040   2.640   4.067  13.812 -0.1044  1.5888  1.1015
10183TIP3    H252041   2.536   4.105  13.709  0.7647  1.8937  0.3168
10184TIP3   OH252042   0.868   1.371  16.901  0.2054 -0.2152  0.2103
10184TIP3    H152043   0.897   1.314  16.972 -0.1367 -0.9039 -0.1968
10184TIP3    H252044   0.899   1.328  16.821 -1.9546 -1.0231 -0.2573
10185TIP3   OH252045   3.681   1.162   6.357 -0.4190  0.2989 -0.1302
10185TIP3    H152046   3.677   1.258   6.356  1.5246  0.4555  1.4298
10185TIP3    H252047   3.767   1.142   6.393  0.2112 -2.0835 -2.6032
10186TIP3   OH252048   1.727   0.814   1.664 -0.3238 -0.1266  0.2934
10186TIP3    H152049   1.635   0.797   1.684 -0.2854 -0.6219  0.0547
10186TIP3    H252050   1.743   0.768   1.581  0.0117  0.3502  0.0896
10187TIP3   OH252051   5.627   4.265   3.914  0.1275 -0.8296 -0.2308
10187TIP3    H152052   5.643   4.338   3.854  1.0859 -1.3389 -0.6172
10187TIP3    H252053   5.550   4.292   3.965  0.2574  0.2900 -0.6024
10188TIP3   OH252054   6.792   3.486   5.655  0.2168  0.1317  0.4398
10188TIP3    H152055   6.730   3.559   5.649  2.5554  2.4413  1.8267
10188TIP3    H252056   6.766   3.438   5.733 -0.2057  0.6762  0.6342
10189TIP3   OH252057   3.393   3.890  13.645  0.5454  0.3296 -0.0717
10189TIP3    H152058   3.332   3.924  13.711  1.5779  0.1018  1.0291
10189TIP3    H252059   3.479   3.895  13.687  0.9191 -2.3573 -0.3820
10190TIP3   OH252060   3.536   1.618  11.807 -0.2296 -0.3353  0.1651
10190TIP3    H152061   3.511   1.669  11.730 -1.0395 -0.8878  0.0604
10190TIP3    H252062   3.632   1.620  11.807 -0.2411  0.8177 -0.0836
10191TIP3   OH252063   1.631   4.082   4.911  0.3920  0.0236  0.3062
10191TIP3    H152064   1.615   3.999   4.957  1.0448  0.1371  0.7569
10191TIP3    H252065   1.725   4.080   4.891  0.1539  0.0805 -0.8416
10192TIP3   OH252066   4.786   4.494   2.185 -1.2620  0.2535  0.1303
10192TIP3    H152067   4.806   4.483   2.278 -0.9103  0.9320  0.1438
10192TIP3    H252068   4.832   4.421   2.142  0.3137  1.0996  0.2889
10193TIP3   OH252069   3.202   4.809   0.723 -0.3686  0.4516  0.1826
10193TIP3    H152070   3.218   4.886   0.777  0.8660  1.6189 -1.7284
10193TIP3    H252071   3.108   4.791   0.734 -0.5189  1.7681  1.2353
10194TIP3   OH252072   2.641   2.619   2.640  0.3449 -0.5222  0.5262
10194TIP3    H152073   2.677   2.584   2.558 -1.0054 -1.1906  0.1953
10194TIP3    H252074   2.603   2.703   2.614 -2.2111 -1.7805 -0.1085
10195TIP3   OH252075   5.301   0.287  11.866 -0.1937 -0.5902 -0.0434
10195TIP3    H152076   5.362   0.329  11.927 -0.6650 -1.7533  1.2885
10195TIP3    H252077   5.352   0.277  11.785  1.4615 -1.6178  1.0590
10196TIP3   OH252078   1.283   3.179   3.863 -0.0907  0.3636  0.0036
10196TIP3    H152079   1.360   3.145   3.908 -0.3985  0.5766  0.7040
10196TIP3    H252080   1.318   3.235   3.793  0.3885  0.3969  0.2700
10197TIP3   OH252081   5.356   3.854   0.225 -0.0092  0.2954  0.3283
10197TIP3    H152082   5.368   3.946   0.248  0.0686  0.1108  1.0328
10197TIP3    H252083   5.277   3.827   0.272 -0.2581  0.1033 -0.1893
10198TIP3   OH252084   0.930   3.989  14.655  0.2544 -0.1406 -0.0825
10198TIP3    H152085   0.995   4.041  14.701 -0.2704  0.4724 -0.0119
10198TIP3    H252086   0.980   3.933  14.597  0.8590  0.0303  0.2658
10199TIP3   OH252087   2.004   3.528   6.100  0.0698  0.3024  0.1232
10199TIP3    H152088   1.969   3.467   6.035  0.9033  0.8749 -0.8798
10199TIP3    H252089   2.089   3.554   6.066  0.1109  1.3494  0.9737
10200TIP3   OH252090   4.413   1.615  13.413 -0.3290  0.0763 -0.0124
10200TIP3    H152091   4.335   1.587  13.461 -0.7936  0.7130 -0.3682
10200TIP3    H252092   4.486   1.585  13.466 -0.7817 -1.5799 -0.2562
10201TIP3   OH252093   0.826   4.659   1.049  0.7049 -0.0966  0.7800
10201TIP3    H152094   0.908   4.705   1.066  0.9269 -0.0545 -0.3835
10201TIP3    H252095   0.763   4.729   1.031  0.8780 -0.2031 -0.2837
10202TIP3   OH252096   3.770   1.958   5.345  0.2165  0.2819  0.0485
10202TIP3    H152097   3.786   2.045   5.383  2.0135 -0.2623  0.6549
10202TIP3    H252098   3.798   1.968   5.254  0.9376  0.2296  0.2522
10203TIP3   OH252099   2.335   5.905   7.066  0.2905 -0.4041  0.6218
10203TIP3    H152100   2.375   5.988   7.037  0.1331  0.2179  2.0828
10203TIP3    H252101   2.400   5.839   7.044  0.1080 -0.0384 -1.2672
10204TIP3   OH252102   4.838   0.658  11.512  0.2976 -0.3870 -0.3667
10204TIP3    H152103   4.775   0.605  11.463 -0.7027 -0.3852  0.8682
10204TIP3    H252104   4.820   0.748  11.484 -0.0471 -0.4140 -0.2304
10205TIP3   OH252105   1.768   4.124   6.250 -0.5333 -0.3778  0.7215
10205TIP3    H152106   1.775   4.060   6.322  1.0203 -0.7556  0.2664
10205TIP3    H252107   1.844   4.106   6.195 -1.9022 -0.3611 -1.2653
10206TIP3   OH252108   3.939   6.577  11.674 -0.5331  0.4764  0.5258
10206TIP3    H152109   3.962   6.555  11.764  0.6181 -1.0285 -0.1041
10206TIP3    H252110   4.021   6.605  11.634 -0.7460 -0.2002 -0.4188
10207TIP3   OH252111   4.467   1.039  17.144  0.0451  0.0187  0.0722
10207TIP3    H152112   4.529   0.998  17.205  0.6627 -2.1091 -1.8351
10207TIP3    H252113   4.515   1.115  17.110 -0.0007  0.7557  1.5814
10208TIP3   OH252114   2.392   1.761   6.144 -0.6364 -0.0759 -0.0828
10208TIP3    H152115   2.411   1.823   6.214  2.1156 -2.1715  1.2381
10208TIP3    H252116   2.324   1.704   6.180 -0.4214 -0.1383  0.2274
10209TIP3   OH252117   4.227   3.229   5.358  0.1385 -0.1720 -0.0624
10209TIP3    H152118   4.253   3.304   5.412  0.2425  0.9898 -1.6376
10209TIP3    H252119   4.222   3.265   5.269 -2.9249 -1.2763 -0.4407
10210TIP3   OH252120   3.351   3.541   0.781 -0.2531 -0.0700 -0.5698
10210TIP3    H152121   3.358   3.458   0.828 -1.3412  0.8820  1.3991
10210TIP3    H252122   3.259   3.565   0.789 -0.0736  1.0522 -1.6173
10211TIP3   OH252123   6.486   5.564  12.232 -0.0911  0.3781  0.4199
10211TIP3    H152124   6.579   5.570  12.209 -0.3348 -0.5393 -0.8833
10211TIP3    H252125   6.443   5.628  12.176 -0.5188 -0.8869 -0.7480
10212TIP3   OH252126   0.072   0.269   4.359 -0.1446 -0.2169 -0.3620
10212TIP3    H152127   0.109   0.318   4.432 -1.4089  1.8282 -1.0242
10212TIP3    H252128  -0.017   0.247   4.388 -0.5012  0.2215 -1.0933
10213TIP3   OH252129   5.788   3.991  16.085  0.0232 -0.2517  0.0091
10213TIP3    H152130   5.800   3.899  16.108 -0.8201 -0.1527  0.9061
10213TIP3    H252131   5.796   4.038  16.168 -2.4707  0.1834  0.0994
10214TIP3   OH252132   6.434   0.365  15.772  0.6800  0.2943  0.0235
10214TIP3    H152133   6.427   0.303  15.845  1.5523  1.4183  1.1084
10214TIP3    H252134   6.505   0.330  15.718  1.3763  0.4609  0.7919
10215TIP3   OH252135   1.533   3.144   5.374 -0.6415 -0.3929 -0.6637
10215TIP3    H152136   1.492   3.178   5.453 -1.1688 -2.3705 -0.0152
10215TIP3    H252137   1.515   3.209   5.306 -2.9540 -0.1587  0.1105
10216TIP3   OH252138   2.080   4.352  11.078  0.1750 -0.6674 -0.1990
10216TIP3    H152139   2.088   4.263  11.044 -0.3162 -0.1458 -1.7859
10216TIP3    H252140   2.141   4.403  11.025 -0.9289  0.2574 -0.6241
10217TIP3   OH252141   2.788   6.128   1.829 -0.2898  0.7998  0.0675
10217TIP3    H152142   2.803   6.211   1.782 -0.1649  2.3266  2.5893
10217TIP3    H252143   2.875   6.089   1.836 -0.1416  1.1075 -0.0285
10218TIP3   OH252144   1.473   0.830   5.159 -0.3332 -0.3886  0.0287
10218TIP3    H152145   1.547   0.858   5.105 -0.9659  0.3916 -0.4625
10218TIP3    H252146   1.429   0.763   5.107 -0.6266 -0.0325 -0.1826
10219TIP3   OH252147   6.562   4.738  12.140  0.2232 -0.8580  0.4143
10219TIP3    H152148   6.574   4.703  12.052 -0.4036 -3.8004  1.3910
10219TIP3    H252149   6.491   4.685  12.178 -2.0589  2.6708  1.5422
10220TIP3   OH252150   0.366   1.895  12.826 -0.0905  0.2105  0.1250
10220TIP3    H152151   0.344   1.974  12.875 -0.8318 -0.7313  1.3626
10220TIP3    H252152   0.332   1.824  12.880  2.7201 -1.1226  0.2945
10221TIP3   OH252153   1.854   0.726   3.803  0.2292  0.0958 -0.0578
10221TIP3    H152154   1.836   0.721   3.897  0.0043 -2.6148 -0.1547
10221TIP3    H252155   1.945   0.697   3.796  1.3855  3.4395 -0.4793
10222TIP3   OH252156   3.490   5.939   0.429  0.0657 -0.2924 -0.6802
10222TIP3    H152157   3.412   5.986   0.460  0.6822  1.4481 -1.6479
10222TIP3    H252158   3.563   5.994   0.454  0.8445 -0.8575 -1.6427
10223TIP3   OH252159   6.442   0.771   3.516  0.0029  0.0852 -0.2081
10223TIP3    H152160   6.452   0.831   3.443  0.5299  1.3520  0.8757
10223TIP3    H252161   6.531   0.742   3.536 -0.0932  0.0395  0.1627
10224TIP3   OH252162   4.624   2.203   5.943  0.4523 -0.1416  0.6015
10224TIP3    H152163   4.562   2.134   5.965  1.1721 -0.8031  0.6134
10224TIP3    H252164   4.636   2.253   6.024 -1.7102  1.3708  0.0640
10225TIP3   OH252165   4.376   4.198   2.177 -0.1576 -0.3054 -0.3888
10225TIP3    H152166   4.284   4.204   2.200  0.3219 -0.0959  1.6509
10225TIP3    H252167   4.398   4.106   2.188 -0.1220 -0.3607 -0.9022
10226TIP3   OH252168   6.660   0.488   1.558 -0.4023  0.1458  0.2929
10226TIP3    H152169   6.700   0.402   1.546 -1.6077 -0.3058 -0.6212
10226TIP3    H252170   6.601   0.498   1.484  0.4848  2.2225 -0.2182
10227TIP3   OH252171   2.793   0.871   2.465 -0.4005 -0.1741 -0.0947
10227TIP3    H152172   2.760   0.954   2.499  1.3853  0.7252 -0.4113
10227TIP3    H252173   2.827   0.825   2.542 -1.6684 -0.7710  0.1247
10228TIP3   OH252174   1.805   0.383   5.266 -0.6836  0.1421  0.2007
10228TIP3    H152175   1.898   0.386   5.290 -0.9249  0.2569  1.1749
10228TIP3    H252176   1.787   0.470   5.231 -0.3399 -0.0011 -0.3471
10229TIP3   OH252177   3.347   5.641   0.863 -0.3345 -0.0186 -0.6635
10229TIP3    H152178   3.429   5.628   0.816  0.1127 -0.1703  0.1390
10229TIP3    H252179   3.288   5.573   0.828  0.0810 -0.3191 -0.7836
10230TIP3   OH252180   1.318   3.050  13.846  0.1330  0.0018 -0.4722
10230TIP3    H152181   1.288   3.059  13.756  0.2973  0.2889 -0.5011
10230TIP3    H252182   1.307   3.138  13.884  0.4942 -0.0028 -0.3515
10231TIP3   OH252183   5.077   1.922   1.788  0.0564 -0.3162  0.4217
10231TIP3    H152184   5.147   1.974   1.828  0.1822 -0.6851  0.6851
10231TIP3    H252185   5.032   1.881   1.862 -2.2662  2.1567  0.5130
10232TIP3   OH252186   2.557   4.328  16.591 -0.3175 -0.2691 -0.1245
10232TIP3    H152187   2.609   4.365  16.662 -1.4193  0.1719  0.4745
10232TIP3    H252188   2.514   4.252  16.630  0.6632 -1.2743 -0.9104
10233TIP3   OH252189   5.771   2.680   4.425 -0.2496  0.6311  0.4627
10233TIP3    H152190   5.824   2.655   4.500  1.4477 -1.7396 -1.3732
10233TIP3    H252191   5.781   2.775   4.419  0.4688  0.7319  2.5236
10234TIP3   OH252192   4.699   2.126   6.617  0.2020 -0.3008  0.2543
10234TIP3    H152193   4.772   2.187   6.608  1.1164 -1.1128  1.7335
10234TIP3    H252194   4.688   2.088   6.530  0.8633  0.5811 -0.2316
10235TIP3   OH252195   4.207   1.145   2.691 -0.5985 -0.2342  0.2797
10235TIP3    H152196   4.235   1.054   2.697  0.6069  0.0347 -0.9516
10235TIP3    H252197   4.261   1.184   2.623 -0.4061  1.6774  1.4217
10236TIP3   OH252198   1.063   0.597   5.287 -0.9177 -0.3195  0.5334
10236TIP3    H152199   1.053   0.562   5.198  1.7434  0.2779 -0.0868
10236TIP3    H252200   0.974   0.604   5.320 -2.0590 -0.0197 -2.3063
10237TIP3   OH252201   2.902   6.718   2.192  0.5786  0.8365 -0.5484
10237TIP3    H152202   2.924   6.721   2.099 -0.2304 -1.0343 -0.8444
10237TIP3    H252203   2.972   6.667   2.232 -0.2839 -0.4115 -0.5687
10238TIP3   OH252204   6.442   5.647   4.181  0.1418 -1.1431 -0.8687
10238TIP3    H152205   6.482   5.655   4.094  0.8604 -0.9676 -0.5306
10238TIP3    H252206   6.348   5.638   4.164  0.1142  0.3629 -1.5990
10239TIP3   OH252207   6.167   2.843   1.529 -0.3487 -0.0747 -0.5007
10239TIP3    H152208   6.184   2.816   1.618  0.9896  2.3378  0.0711
10239TIP3    H252209   6.091   2.902   1.536 -1.3449 -1.2299 -1.2434
10240TIP3   OH252210   6.292   0.501  13.581  0.0547  0.3637  0.3039
10240TIP3    H152211   6.241   0.438  13.530 -0.2158  0.2038  0.7733
10240TIP3    H252212   6.238   0.580  13.583 -0.1894  0.1870  0.8207
10241TIP3   OH252213   2.154   4.961  14.315 -0.5138 -0.3871 -0.1743
10241TIP3    H152214   2.234   4.975  14.367 -1.1173  0.9294  0.4543
10241TIP3    H252215   2.092   4.922  14.377 -0.0438 -2.5262 -0.9582
10242TIP3   OH252216   0.970   2.667  15.725 -0.0295 -0.0250 -0.0765
10242TIP3    H152217   0.894   2.608  15.719  0.1186 -0.4275  1.5879
10242TIP3    H252218   0.933   2.751  15.751  0.0356 -0.0494  0.0913
10243TIP3   OH252219   2.387   1.896   4.396  0.0982  0.8494 -0.4270
10243TIP3    H152220   2.386   1.807   4.432 -0.0294  0.1019 -2.1729
10243TIP3    H252221   2.456   1.940   4.445  1.3686 -0.7483 -0.6763
10244TIP3   OH252222   6.788   5.440  11.432 -0.1085  0.0788  0.1584
10244TIP3    H152223   6.746   5.470  11.352  0.4225  1.8218  0.4794
10244TIP3    H252224   6.766   5.348  11.438 -1.1169  0.1851 -1.3851
10245TIP3   OH252225   5.569   5.941  13.284 -0.0309  0.3253  0.1743
10245TIP3    H152226   5.530   5.957  13.370  0.9737 -1.8139  1.0888
10245TIP3    H252227   5.623   6.019  13.268 -1.8379  1.7060  0.4728
10246TIP3   OH252228   5.708   4.748  17.157 -0.1368 -0.6510  0.3773
10246TIP3    H152229   5.756   4.817  17.111 -0.0961 -0.8533  0.1136
10246TIP3    H252230   5.752   4.742  17.242  1.5199 -2.0787 -0.5092
10247TIP3   OH252231   1.831   6.239  14.688  0.2602 -0.8321 -0.3712
10247TIP3    H152232   1.812   6.272  14.600  0.3147  1.3129  0.3846
10247TIP3    H252233   1.749   6.201  14.717 -1.0931  2.2594  0.2238
10248TIP3   OH252234   1.521   2.054   5.351  0.3083 -0.5400  0.3492
10248TIP3    H152235   1.487   2.109   5.422 -1.0222 -0.8204 -0.0539
10248TIP3    H252236   1.495   1.965   5.374  0.0985 -0.6669 -0.3572
10249TIP3   OH252237   3.361   6.106   0.599  0.2279  0.2373 -0.1959
10249TIP3    H152238   3.432   6.118   0.662 -0.4019  0.5882  0.4692
10249TIP3    H252239   3.281   6.109   0.652 -0.2942 -0.0048 -0.9455
10250TIP3   OH252240   3.850   5.276  16.543 -0.1039  0.4497  0.1089
10250TIP3    H152241   3.863   5.238  16.456 -1.1963 -0.5381  0.3453
10250TIP3    H252242   3.781   5.342  16.531 -0.2836  0.2851  0.2189
10251TIP3   OH252243   4.039   6.052  16.642  0.3983  0.1882  0.1319
10251TIP3    H152244   4.002   6.121  16.587  0.1957  0.4341  0.5725
10251TIP3    H252245   4.061   5.982  16.580  1.4838  1.0004 -0.4423
10252TIP3   OH252246   6.431   4.912   3.333  0.4016  0.5928  0.0578
10252TIP3    H152247   6.485   4.979   3.292 -1.7234  2.0417 -0.5713
10252TIP3    H252248   6.486   4.834   3.336  2.9528  2.3107  0.7338
10253TIP3   OH252249   6.729   2.232  12.968  0.1697 -0.0489 -0.3975
10253TIP3    H152250   6.678   2.301  12.926 -0.7894 -0.5625 -0.1250
10253TIP3    H252251   6.668   2.193  13.031  0.9401 -0.6248  0.0043
10254TIP3   OH252252   1.492   0.850   5.532 -0.1063 -0.1436 -0.2850
10254TIP3    H152253   1.464   0.939   5.554  0.5933 -0.1492  0.7204
10254TIP3    H252254   1.549   0.824   5.605  1.9732 -0.3595 -1.8915
10255TIP3   OH252255   5.896   5.628  13.274 -0.1557  0.0375  0.2376
10255TIP3    H152256   5.900   5.577  13.354 -0.5016  0.2512  0.3921
10255TIP3    H252257   5.881   5.718  13.303 -0.8593  0.0343 -0.0876
10256TIP3   OH252258   0.334   0.733   0.411 -0.1275 -0.0383  0.3649
10256TIP3    H152259   0.418   0.708   0.372 -0.1965  0.0122  0.1858
10256TIP3    H252260   0.355   0.753   0.502 -0.2131 -1.6468  0.7685
10257TIP3   OH252261   4.105   2.428  13.043  0.3146  0.2811 -0.2815
10257TIP3    H152262   4.056   2.385  13.112 -0.4246  1.2327 -0.1873
10257TIP3    H252263   4.048   2.500  13.014  0.7090  0.0623 -1.7047
10258TIP3   OH252264   2.551   3.651   4.499  0.4455  0.2208  0.0769
10258TIP3    H152265   2.627   3.608   4.538 -0.7528 -0.9501  1.2229
10258TIP3    H252266   2.537   3.728   4.554  1.6027  1.2532 -0.9930
10259TIP3   OH252267   2.481   1.149   3.622  0.6597  0.0219 -0.4475
10259TIP3    H152268   2.455   1.086   3.689  1.3788 -0.4753 -0.6255
10259TIP3    H252269   2.461   1.235   3.660 -1.2941 -0.3235 -0.6141
10260TIP3   OH252270   0.515   3.890  16.623  0.4331 -0.2705  0.5943
10260TIP3    H152271   0.588   3.930  16.574 -0.9633 -0.2619 -1.6455
10260TIP3    H252272   0.451   3.867  16.555 -1.3892 -0.8579  2.4186
10261TIP3   OH252273   1.927   5.570  12.509 -0.5221 -0.2705 -0.0074
10261TIP3    H152274   1.854   5.568  12.570 -1.2955  0.4354 -0.8894
10261TIP3    H252275   1.936   5.479  12.479 -0.8052 -0.4248  0.3753
10262TIP3   OH252276   0.536   1.322  15.958 -0.0320  0.0399  0.0858
10262TIP3    H152277   0.550   1.407  16.000  1.0779 -0.0852 -0.0044
10262TIP3    H252278   0.546   1.259  16.029 -0.2572 -0.0596  0.0310
10263TIP3   OH252279   0.255   5.598   5.651 -0.5356 -0.2373 -0.2461
10263TIP3    H152280   0.298   5.683   5.637  0.6068 -0.3029  2.3370
10263TIP3    H252281   0.288   5.543   5.579  0.3993  0.9134 -0.7389
10264TIP3   OH252282   3.278   6.340   1.114 -0.4001 -0.3848  0.1085
10264TIP3    H152283   3.205   6.309   1.061 -0.2720 -1.3089  0.4599
10264TIP3    H252284   3.245   6.339   1.204  0.5433 -2.4554  0.4852
10265TIP3   OH252285   2.398   1.150  12.495 -0.0727  0.2943  0.1278
10265TIP3    H152286   2.482   1.151  12.449 -1.6275  1.1405 -2.9527
10265TIP3    H252287   2.394   1.235  12.540  0.1788  0.8044 -0.7940
10266TIP3   OH252288   1.626   1.738  13.965  0.4967  0.3509 -0.0476
10266TIP3    H152289   1.718   1.761  13.949  0.1960  2.3731  0.7231
10266TIP3    H252290   1.625   1.643  13.968  2.4458  0.2594 -0.7574
10267TIP3   OH252291   1.000   4.919  16.695  0.0427  0.1673 -0.2816
10267TIP3    H152292   0.963   4.989  16.750  1.2025 -0.2621  1.1263
10267TIP3    H252293   0.978   4.944  16.606  0.9591  2.7020  0.1230
10268TIP3   OH252294   2.923   3.245   1.895  0.5840 -0.3007  0.6258
10268TIP3    H152295   2.850   3.261   1.835  0.6444 -1.6422  0.1506
10268TIP3    H252296   3.000   3.280   1.849  0.5792 -1.0194  0.0620
10269TIP3   OH252297   3.608   2.286  13.241 -0.0474 -0.2329 -0.8474
10269TIP3    H152298   3.648   2.254  13.161 -1.2362 -1.5601 -0.9531
10269TIP3    H252299   3.584   2.377  13.221 -0.3456 -0.5519 -2.0108
10270TIP3   OH252300   4.652   0.702  16.520 -0.3201 -0.1735 -0.2103
10270TIP3    H152301   4.603   0.666  16.446  1.0895 -1.9517 -0.3795
10270TIP3    H252302   4.594   0.691  16.595 -0.9328 -0.4005 -0.7056
10271TIP3   OH252303   1.475   3.607   5.159 -0.1486 -0.4947 -0.5987
10271TIP3    H152304   1.446   3.652   5.239  1.5114 -0.6780  0.1558
10271TIP3    H252305   1.413   3.635   5.092 -1.3906 -0.0675  0.6810
10272TIP3   OH252306   5.101   4.089   5.879 -0.5374 -0.8112 -0.0192
10272TIP3    H152307   5.074   4.180   5.866 -0.1598 -0.8090 -0.8709
10272TIP3    H252308   5.196   4.090   5.868 -0.5737 -1.3752 -0.4809
10273TIP3   OH252309   0.271   1.920  11.143  0.2427  0.2482 -0.0848
10273TIP3    H152310   0.266   1.850  11.208 -1.1951  0.9363  0.5923
10273TIP3    H252311   0.356   1.909  11.102  1.3041 -0.0663  2.0802
10274TIP3   OH252312   5.026   3.810  16.285 -0.0310 -0.3562 -0.0652
10274TIP3    H152313   5.081   3.873  16.240 -0.0259 -0.9520 -0.9322
10274TIP3    H252314   5.054   3.814  16.377 -1.9322  2.9035  0.5367
10275TIP3   OH252315   6.429   3.774   4.632 -0.4764 -0.0669 -0.0834
10275TIP3    H152316   6.453   3.682   4.621  0.7605 -0.5042  4.3968
10275TIP3    H252317   6.346   3.771   4.679  0.1959  0.9570  1.2522
10276TIP3   OH252318   3.466   6.532   0.577  0.3339 -0.1068 -0.1483
10276TIP3    H152319   3.499   6.467   0.514  0.5279 -0.7673  0.6190
10276TIP3    H252320   3.426   6.480   0.646 -0.6348  0.6433 -0.1268
10277TIP3   OH252321   4.827   4.060  13.135 -0.3602  0.6496 -0.7700
10277TIP3    H152322   4.853   4.071  13.226  1.8527  1.7017 -1.4339
10277TIP3    H252323   4.735   4.087  13.132  0.1097  2.7057  0.8197
10278TIP3   OH252324   5.425   3.424  17.032  0.7016  0.5945 -0.2307
10278TIP3    H152325   5.361   3.487  17.000  0.6967 -0.3587 -2.2918
10278TIP3    H252326   5.387   3.339  17.011  1.1309 -0.0894  1.6183
10279TIP3   OH252327   2.574   2.317  11.809 -0.2959 -0.0342 -0.5179
10279TIP3    H152328   2.514   2.316  11.734 -1.1181 -2.1406  0.1138
10279TIP3    H252329   2.527   2.272  11.879  2.0415 -1.9195 -0.0342
10280TIP3   OH252330   4.437   3.904   2.905 -0.2377  0.1260 -0.5892
10280TIP3    H152331   4.429   3.825   2.958  0.5550 -0.8774 -1.8874
10280TIP3    H252332   4.360   3.902   2.848 -0.0120  0.0619 -0.8953
10281TIP3   OH252333   2.703   4.239   0.862  0.3921  0.4745 -0.6000
10281TIP3    H152334   2.748   4.263   0.781 -1.8925  0.5929 -1.9238
10281TIP3    H252335   2.661   4.156   0.843  1.2355 -0.3980  1.1067
10282TIP3   OH252336   0.598   1.153  16.164 -0.4735  0.0580  0.5804
10282TIP3    H152337   0.690   1.173  16.175 -0.7545  0.6840  2.0071
10282TIP3    H252338   0.587   1.066  16.203 -0.2861 -0.5531 -0.6732
10283TIP3   OH252339   0.270   3.331   2.022 -0.0749  0.4922  0.0800
10283TIP3    H152340   0.276   3.294   1.935 -0.8102 -1.1356  0.6827
10283TIP3    H252341   0.223   3.414   2.010  2.3929  1.7800 -1.4083
10284TIP3   OH252342   4.628   2.832   4.694  0.2719  0.3356 -0.1128
10284TIP3    H152343   4.537   2.802   4.697 -0.4374  2.4069  1.5004
10284TIP3    H252344   4.674   2.774   4.755  0.0151 -0.5907 -0.7755
10285TIP3   OH252345   4.551   1.822  15.598  0.2232 -0.1648  0.0532
10285TIP3    H152346   4.619   1.777  15.647  0.2677 -1.8021 -1.4358
10285TIP3    H252347   4.470   1.775  15.620 -0.0244  0.1737 -0.1165
10286TIP3   OH252348   0.826   2.446  15.667 -0.8214  0.5189 -0.1059
10286TIP3    H152349   0.802   2.450  15.575  1.2252 -0.0806 -0.7181
10286TIP3    H252350   0.787   2.364  15.698  1.1888 -1.0089 -1.3580
10287TIP3   OH252351   3.963   3.417   3.758 -0.3154  0.0453 -0.7687
10287TIP3    H152352   3.976   3.409   3.663 -0.8836  0.8302 -0.9266
10287TIP3    H252353   4.040   3.376   3.796  0.3331  0.4581 -1.5849
10288TIP3   OH252354   2.698   1.943   5.944 -0.7075 -0.2327 -0.2283
10288TIP3    H152355   2.785   1.968   5.915 -0.5528 -0.2360  0.2382
10288TIP3    H252356   2.674   2.008   6.010 -0.9085 -0.4397 -0.0924
10289TIP3   OH252357   3.097   1.933   5.853  0.3811  0.8170 -0.4582
10289TIP3    H152358   3.053   1.866   5.906 -0.0391  0.6346 -1.0255
10289TIP3    H252359   3.048   2.013   5.872 -0.5982  0.4996 -1.5358
10290TIP3   OH252360   6.007   1.071   2.872  0.4294 -0.2988 -0.0749
10290TIP3    H152361   5.930   1.127   2.867  1.1853  0.7435 -0.6357
10290TIP3    H252362   5.972   0.982   2.875 -0.7801  0.1030 -1.1429
10291TIP3   OH252363   4.615   5.622   2.054 -0.1345 -0.2978  0.1426
10291TIP3    H152364   4.563   5.548   2.022  0.2826 -0.6431  0.2506
10291TIP3    H252365   4.676   5.583   2.116  0.5371  0.0373 -0.2973
10292TIP3   OH252366   2.116   6.012   3.013  0.5557 -0.6387 -0.4191
10292TIP3    H152367   2.091   6.078   2.948  1.1553 -1.0540 -1.0998
10292TIP3    H252368   2.212   6.018   3.017  0.4550  0.7275  1.9108
10293TIP3   OH252369   2.433   1.970   3.158 -0.5260  0.2597 -0.6920
10293TIP3    H152370   2.522   1.949   3.185 -0.4753 -0.2724 -1.2422
10293TIP3    H252371   2.395   2.015   3.233  0.2319  0.5728 -0.4879
10294TIP3   OH252372   1.024   6.758   2.665  0.5968  0.0062  0.6727
10294TIP3    H152373   0.967   6.820   2.619 -1.0704 -2.0932 -0.2195
10294TIP3    H252374   1.100   6.748   2.608  0.3216  0.3244  0.2460
10295TIP3   OH252375   4.226   1.459  12.317 -0.2475  0.1514  0.7046
10295TIP3    H152376   4.169   1.430  12.388 -0.7639 -0.0306  0.2216
10295TIP3    H252377   4.193   1.546  12.294 -2.6527 -1.3034 -1.9226
10296TIP3   OH252378   2.318   6.071  16.365  0.3578 -0.3050 -0.1203
10296TIP3    H152379   2.357   6.059  16.451  2.4524  0.3416 -0.9044
10296TIP3    H252380   2.226   6.092  16.382  0.5258 -1.0680  1.8859
10297TIP3   OH252381   1.029   4.724   1.686 -1.0020 -0.2842  0.4324
10297TIP3    H152382   1.122   4.731   1.705  0.2439 -4.1431 -2.7371
10297TIP3    H252383   1.000   4.647   1.735 -1.5000 -1.2499 -1.2893
10298TIP3   OH252384   5.011   4.347   2.806 -0.8145  0.3014  0.4415
10298TIP3    H152385   4.995   4.315   2.717  2.1877  0.6402 -0.3345
10298TIP3    H252386   5.065   4.280   2.847 -1.8490  0.3267  1.9119
10299TIP3   OH252387   5.251   5.686  16.122  0.3636  0.2176  0.2840
10299TIP3    H152388   5.327   5.638  16.155 -1.5475 -1.7031  2.1611
10299TIP3    H252389   5.193   5.618  16.088 -2.1234  1.2145  2.3185
10300TIP3   OH252390   3.613   1.301  14.026 -0.7342  0.4083 -0.5369
10300TIP3    H152391   3.607   1.210  13.998 -1.4418  0.0964  0.6033
10300TIP3    H252392   3.549   1.310  14.096 -1.0317  1.9187 -0.9686
10301TIP3   OH252393   3.678   5.859   5.761  0.0499 -0.4205  0.7093
10301TIP3    H152394   3.651   5.879   5.851  0.6853  1.4711  0.5064
10301TIP3    H252395   3.747   5.794   5.771  2.4025  2.0690  1.8551
10302TIP3   OH252396   6.110   5.290  16.583  0.3395 -0.5539 -0.4115
10302TIP3    H152397   6.132   5.276  16.491  0.3042  0.5721 -0.6058
10302TIP3    H252398   6.191   5.322  16.622  0.2086 -0.5221 -0.1692
10303TIP3   OH252399   4.016   3.415   1.487 -0.5049 -0.3722 -0.0850
10303TIP3    H152400   3.964   3.448   1.560  1.0385  3.1564 -0.3583
10303TIP3    H252401   4.106   3.412   1.521  0.7548  3.9163 -2.1989
10304TIP3   OH252402   3.893   3.722   3.269 -0.1994  0.1670  0.7581
10304TIP3    H152403   3.858   3.637   3.243 -0.8038  0.4390  0.6777
10304TIP3    H252404   3.934   3.757   3.190  1.2955 -0.6560  1.1390
10305TIP3   OH252405   1.447   5.271   0.540  0.1118  0.0866 -0.0505
10305TIP3    H152406   1.513   5.319   0.490  0.4252 -0.8071 -0.5254
10305TIP3    H252407   1.388   5.235   0.473 -0.1752 -0.1089  0.3037
10306TIP3   OH252408   0.727   5.304  11.628 -0.1589  0.1032  0.2921
10306TIP3    H152409   0.740   5.213  11.602 -5.0500 -1.4595  2.0891
10306TIP3    H252410   0.668   5.340  11.562  0.2452  1.3882  0.5975
10307TIP3   OH252411   1.900   5.575  13.753 -0.8376 -0.2509  0.7296
10307TIP3    H152412   1.809   5.563  13.724 -1.2271 -1.4629  2.2903
10307TIP3    H252413   1.951   5.516  13.698 -1.0117  0.2759 -0.0115
10308TIP3   OH252414   3.301   1.670   1.673  0.5956  0.6646 -0.0907
10308TIP3    H152415   3.319   1.646   1.764  0.6285 -0.2331 -0.3225
10308TIP3    H252416   3.307   1.765   1.671 -1.2443  0.8761  1.2600
10309TIP3   OH252417   1.324   3.490  16.150  0.4085  0.1149  0.1275
10309TIP3    H152418   1.300   3.422  16.214 -0.9994  1.3734  1.0241
10309TIP3    H252419   1.313   3.448  16.065 -1.2606 -0.5797  0.6353
10310TIP3   OH252420   5.911   5.582  12.209  0.7239 -0.2732 -0.8573
10310TIP3    H152421   5.899   5.506  12.266 -1.1192  0.4815 -0.1602
10310TIP3    H252422   5.986   5.628  12.247 -0.6033  0.3421  1.2041
10311TIP3   OH252423   4.321   5.243  13.380 -0.0566 -0.4828 -0.5087
10311TIP3    H152424   4.252   5.179  13.395  0.4821 -1.1890 -0.9449
10311TIP3    H252425   4.300   5.283  13.295  0.5931 -1.4150 -1.1256
10312TIP3   OH252426   0.762   6.350   0.696  0.0484  0.3137  0.1357
10312TIP3    H152427   0.824   6.422   0.702  0.0239  0.3577 -0.1452
10312TIP3    H252428   0.725   6.344   0.784 -0.6258  1.2519 -0.0614
10313TIP3   OH252429   6.649   3.015  14.792 -0.3659 -0.3627 -0.2337
10313TIP3    H152430   6.596   2.966  14.854 -1.1949 -0.5052 -1.0390
10313TIP3    H252431   6.728   2.961  14.780  0.1129 -0.0264  1.1575
10314TIP3   OH252432   0.758   1.729   4.893  0.4203 -0.0506 -0.5445
10314TIP3    H152433   0.770   1.634   4.892  0.5554 -0.0693  1.0616
10314TIP3    H252434   0.699   1.745   4.967 -0.0874  1.0735 -1.1637
10315TIP3   OH252435   0.655   6.095   1.811 -0.2479  0.3528  1.1758
10315TIP3    H152436   0.632   6.176   1.766  0.8847 -0.3490 -0.8112
10315TIP3    H252437   0.582   6.036   1.795  1.5657 -1.0804 -3.0456
10316TIP3   OH252438   2.855   2.444   1.527 -0.8943 -0.0486  0.5300
10316TIP3    H152439   2.860   2.502   1.603  0.9988 -0.2903  0.6495
10316TIP3    H252440   2.935   2.391   1.533 -1.7727 -1.5483 -0.4630
10317TIP3   OH252441   0.549   6.601   5.404 -0.3932 -0.2310 -0.5342
10317TIP3    H152442   0.585   6.675   5.453  1.2033 -0.0627 -1.8657
10317TIP3    H252443   0.578   6.524   5.452 -1.8829 -0.0610  0.7404
10318TIP3   OH252444   2.718   1.362   4.195 -0.0951 -0.0310  0.6469
10318TIP3    H152445   2.779   1.289   4.183 -1.6363 -1.0631 -1.7689
10318TIP3    H252446   2.696   1.360   4.288  0.6997 -1.9946  0.8357
10319TIP3   OH252447   5.034   0.461   5.755 -0.1471 -0.0716 -0.0891
10319TIP3    H152448   5.102   0.400   5.727  0.4302  0.7412 -0.4889
10319TIP3    H252449   4.958   0.437   5.702  0.5189  0.5202 -1.3721
10320TIP3   OH252450   3.448   2.160  15.811  0.3097  0.3013  0.2841
10320TIP3    H152451   3.373   2.132  15.758  1.1289 -3.0208  0.6407
10320TIP3    H252452   3.426   2.249  15.839 -1.5139  1.0904 -3.1093
10321TIP3   OH252453   1.471   6.445  14.172 -0.1910 -0.0800 -0.3311
10321TIP3    H152454   1.434   6.528  14.200  2.5941  1.0553  0.3750
10321TIP3    H252455   1.502   6.403  14.252 -1.0634 -1.5786 -0.7347
10322TIP3   OH252456   6.421   4.764   0.520 -0.0278 -0.5921  0.0540
10322TIP3    H152457   6.411   4.671   0.540 -0.9300 -0.7257 -0.9407
10322TIP3    H252458   6.368   4.809   0.586  2.4424 -0.5559  2.2044
10323TIP3   OH252459   0.706   0.512  15.493 -0.0467 -0.1727 -0.4549
10323TIP3    H152460   0.627   0.482  15.538  0.0292 -1.7635 -1.3040
10323TIP3    H252461   0.740   0.582  15.548 -1.0755 -0.6684  0.8695
10324TIP3   OH252462   0.964   6.763  11.640 -0.6838 -0.3438 -0.0364
10324TIP3    H152463   0.934   6.800  11.557  1.7408 -0.2014 -0.9093
10324TIP3    H252464   1.046   6.809  11.659  0.9784 -3.2378  0.2754
10325TIP3   OH252465   3.249   5.541   1.256  0.3436  0.1759  0.1534
10325TIP3    H152466   3.222   5.603   1.324  1.1703  1.2319 -0.4376
10325TIP3    H252467   3.330   5.579   1.221 -0.4742  0.0721 -1.9447
10326TIP3   OH252468   6.272   2.343   0.857  0.2001 -0.0865  0.3297
10326TIP3    H152469   6.325   2.300   0.790  0.8088  0.7274  0.2750
10326TIP3    H252470   6.330   2.409   0.895 -1.0108  1.3898 -0.2710
10327TIP3   OH252471   5.068   5.070  15.229  0.1265 -0.1976 -0.3910
10327TIP3    H152472   5.089   4.978  15.215 -0.5706 -0.2913 -0.8795
10327TIP3    H252473   5.152   5.112  15.248  0.2852 -1.1939  1.3109
10328TIP3   OH252474   6.676   6.164   4.452 -0.2012  0.2982 -0.6367
10328TIP3    H152475   6.598   6.112   4.469  1.7934 -2.7199  0.0625
10328TIP3    H252476   6.713   6.181   4.539  0.9078 -0.0222 -1.0266
10329TIP3   OH252477   6.433   6.170  13.345 -0.2310 -0.3803 -0.1413
10329TIP3    H152478   6.450   6.141  13.434  0.6544  0.8139  0.1129
10329TIP3    H252479   6.343   6.201  13.346  0.4294  1.7039  0.9754
10330TIP3   OH252480   2.788   2.997  11.129  0.1078  0.4144  0.2339
10330TIP3    H152481   2.876   2.964  11.146  0.1840  1.1938  1.4813
10330TIP3    H252482   2.732   2.950  11.190  0.0826  1.8206  1.3622
10331TIP3   OH252483   1.881   5.165  17.178  0.1988  0.3738  0.1995
10331TIP3    H152484   1.803   5.121  17.145 -1.3354  3.6346 -0.9599
10331TIP3    H252485   1.869   5.167  17.273  0.9591 -2.5860  0.4655
10332TIP3   OH252486   1.101   3.452  13.079  0.1040 -0.0997  0.2069
10332TIP3    H152487   1.014   3.492  13.088  1.0335  1.9787  0.4798
10332TIP3    H252488   1.083   3.364  13.046 -2.0727  0.5179 -0.4395
10333TIP3   OH252489   3.051   6.247  12.816 -0.4985 -0.5218  0.0753
10333TIP3    H152490   3.113   6.179  12.789 -0.3122 -0.9850  1.5695
10333TIP3    H252491   3.086   6.328  12.778  0.8717 -0.8266  0.6027
10334TIP3   OH252492   3.605   0.398  16.175 -0.1699 -0.1934 -0.3938
10334TIP3    H152493   3.517   0.368  16.151 -0.8814  2.4998 -1.4480
10334TIP3    H252494   3.663   0.352  16.115 -1.0133 -0.7275 -0.8262
10335TIP3   OH252495   1.332   5.906  12.568 -0.2956 -0.5909 -0.0385
10335TIP3    H152496   1.278   5.899  12.647  1.0566 -3.3525  0.7641
10335TIP3    H252497   1.334   5.817  12.533  3.4091 -0.5684 -0.2179
10336TIP3   OH252498   4.467   3.777  13.630  0.3864  0.5578  0.2516
10336TIP3    H152499   4.496   3.699  13.677 -0.3794  0.8546  1.2612
10336TIP3    H252500   4.390   3.749  13.580  1.6740  0.0404 -1.5467
10337TIP3   OH252501   2.843   3.669   3.217 -0.4781  0.4869  0.2322
10337TIP3    H152502   2.865   3.649   3.308 -2.4367 -0.2439  0.5895
10337TIP3    H252503   2.749   3.688   3.218 -0.7427 -0.4069 -1.7614
10338TIP3   OH252504   4.776   1.889  11.921 -0.3967  0.0781  0.0601
10338TIP3    H152505   4.701   1.948  11.920 -0.5090 -0.0314  1.1155
10338TIP3    H252506   4.757   1.824  11.854 -1.4407 -0.1686  0.5824
10339TIP3   OH252507   3.056   6.505  16.056  0.2921  0.1383  0.0058
10339TIP3    H152508   3.039   6.567  15.985  0.2999 -0.2581 -0.3419
10339TIP3    H252509   3.151   6.494  16.056  0.6304  2.2764  1.8880
10340TIP3   OH252510   5.249   1.284  14.208 -0.4012 -1.0320  0.0809
10340TIP3    H152511   5.340   1.305  14.232  0.0189 -3.0288  0.3561
10340TIP3    H252512   5.210   1.370  14.190  2.3027 -0.2226 -2.8925
10341TIP3   OH252513   4.696   4.166   0.304  0.5066 -0.6477  0.2267
10341TIP3    H152514   4.652   4.247   0.279  1.0946  0.1383  1.5864
10341TIP3    H252515   4.760   4.193   0.370 -0.9571 -2.5044  2.5989
10342TIP3   OH252516   2.231   3.249   1.301 -0.1033  0.0648 -0.4087
10342TIP3    H152517   2.185   3.244   1.385 -0.3182 -0.6334 -0.5592
10342TIP3    H252518   2.163   3.269   1.237  0.1704  1.2784 -0.3305
10343TIP3   OH252519   1.701   5.659  13.072  0.2753  0.4468 -0.4681
10343TIP3    H152520   1.631   5.668  13.007 -1.3873 -0.0866  1.1450
10343TIP3    H252521   1.662   5.605  13.141  2.3609  0.0085  0.4419
10344TIP3   OH252522   3.198   5.738   3.775  0.9857 -0.4308 -0.0318
10344TIP3    H152523   3.106   5.717   3.757  1.4138 -2.0501 -0.5186
10344TIP3    H252524   3.235   5.656   3.806  1.5823  0.9598  3.2598
10345TIP3   OH252525   6.559   0.936   3.324 -0.2283 -0.0716 -0.2034
10345TIP3    H152526   6.642   0.977   3.347  0.2846 -1.8971  1.4167
10345TIP3    H252527   6.493   1.002   3.348  0.6554  0.7706 -0.0215
10346TIP3   OH252528   1.979   0.046   3.303  0.6194  0.7625  0.1514
10346TIP3    H152529   2.006   0.065   3.213  1.1015 -0.6278 -0.0229
10346TIP3    H252530   1.909   0.109   3.321  0.5078  1.0500 -1.1899
10347TIP3   OH252531   2.299   2.140  14.589 -0.2717 -0.0964  0.0287
10347TIP3    H152532   2.302   2.218  14.645 -1.2742  0.5756 -0.8201
10347TIP3    H252533   2.299   2.066  14.650  0.5262  0.5532  0.8481
10348TIP3   OH252534   0.543   0.692  11.441  0.0780  1.1339 -0.3520
10348TIP3    H152535   0.457   0.734  11.434 -1.9481 -2.4889 -0.0729
10348TIP3    H252536   0.587   0.737  11.513 -2.2428  2.1039  0.5473
10349TIP3   OH252537   4.957   4.796   4.079 -0.1828  0.4850 -0.5673
10349TIP3    H152538   4.997   4.842   4.152  0.1992  2.2126 -1.7816
10349TIP3    H252539   4.882   4.851   4.054 -2.5762 -1.9479  0.7682
10350TIP3   OH252540   5.081   5.362   0.690 -0.8170 -0.0276  0.0059
10350TIP3    H152541   5.123   5.433   0.739  0.8009 -1.3516  0.6684
10350TIP3    H252542   5.120   5.282   0.727 -1.0738 -1.1737 -2.0530
10351TIP3   OH252543   3.010   5.838  14.769 -0.2972  0.1887  0.0732
10351TIP3    H152544   3.078   5.880  14.821  0.4826 -0.7450 -0.1639
10351TIP3    H252545   3.042   5.749  14.755 -0.0852  0.6205 -2.6943
10352TIP3   OH252546   3.811   5.003  14.499  0.1425  0.1374 -0.1923
10352TIP3    H152547   3.863   4.952  14.438  0.2559  0.6066 -0.4979
10352TIP3    H252548   3.828   5.094  14.475 -0.3025  0.3132  0.1302
10353TIP3   OH252549   4.489   4.212  17.222 -0.3065 -0.4026 -0.0469
10353TIP3    H152550   4.442   4.293  17.240  0.7015 -0.1561  1.7096
10353TIP3    H252551   4.496   4.169  17.306  2.8755 -0.2396 -0.0832
10354TIP3   OH252552   3.274   6.150   5.622  0.2899 -0.4343  0.0229
10354TIP3    H152553   3.281   6.109   5.708  1.2957 -0.7966 -0.2197
10354TIP3    H252554   3.210   6.220   5.634 -0.1494 -0.9686  0.8714
10355TIP3   OH252555   3.773   0.392   1.312  0.2675  0.4200 -0.0085
10355TIP3    H152556   3.775   0.398   1.217 -0.6265  1.1022  0.0038
10355TIP3    H252557   3.694   0.341   1.332 -0.2189  1.3108  0.3955
10356TIP3   OH252558   0.837   5.177   4.455 -0.2994  0.4351  0.1131
10356TIP3    H152559   0.845   5.267   4.425 -1.7732  0.4244 -0.3975
10356TIP3    H252560   0.862   5.180   4.548  2.2227  0.8608 -0.5102
10357TIP3   OH252561   4.349   2.048   0.374  0.1487  0.2597 -0.9067
10357TIP3    H152562   4.301   2.086   0.447 -0.5319 -0.4571 -0.9706
10357TIP3    H252563   4.441   2.072   0.390  0.0788 -0.2478  0.4185
10358TIP3   OH252564   4.692   6.529   4.234  0.3702  0.1586  0.5214
10358TIP3    H152565   4.660   6.594   4.172 -0.5558  0.9483  1.7642
10358TIP3    H252566   4.786   6.542   4.237  0.6575 -0.9427 -1.8207
10359TIP3   OH252567   4.408   1.612   4.040  0.3700 -0.1086 -0.2483
10359TIP3    H152568   4.397   1.683   4.103  1.5342 -0.9106  0.9165
10359TIP3    H252569   4.501   1.589   4.046  0.3107 -0.8241 -1.6060
10360TIP3   OH252570   3.769   4.801   2.293 -0.5216  0.2022  0.2470
10360TIP3    H152571   3.797   4.880   2.246  1.3471 -0.1961  0.5974
10360TIP3    H252572   3.850   4.751   2.304 -1.6441 -1.7009  0.1691
10361TIP3   OH252573   5.811   4.436   5.096 -0.0178 -0.2619 -0.2600
10361TIP3    H152574   5.792   4.420   5.188  1.7922  1.1219  0.4310
10361TIP3    H252575   5.865   4.362   5.069 -1.5195 -1.2693 -0.5811
10362TIP3   OH252576   4.437   5.302  12.915  0.1730  0.3157  0.6468
10362TIP3    H152577   4.448   5.224  12.861  0.9738  0.3957  0.6795
10362TIP3    H252578   4.453   5.375  12.856 -0.6065  0.4688  0.6083
10363TIP3   OH252579   4.629   1.925  12.894 -0.4349  0.7586 -0.4410
10363TIP3    H152580   4.582   1.934  12.976 -0.8501  0.7988 -0.6783
10363TIP3    H252581   4.655   2.014  12.871 -0.8236  0.8238 -0.6409
10364TIP3   OH252582   2.291   2.293  14.847  0.3352  0.2999  0.5376
10364TIP3    H152583   2.257   2.241  14.921 -0.7482  1.9203  1.2307
10364TIP3    H252584   2.214   2.338  14.813  0.9558  0.1209 -1.1593
10365TIP3   OH252585   4.487   3.781   5.823  0.5274 -0.3305  0.1441
10365TIP3    H152586   4.539   3.708   5.856 -1.8235 -1.5163  1.5655
10365TIP3    H252587   4.458   3.828   5.902  2.2128  2.4207 -0.7311
10366TIP3   OH252588   2.682   4.681  12.106 -0.1456 -0.3735 -0.3814
10366TIP3    H152589   2.741   4.745  12.147 -1.6089  0.5381  0.3728
10366TIP3    H252590   2.612   4.734  12.067 -1.1049 -1.4910 -0.2281
10367TIP3   OH252591   3.528   0.810   1.786 -0.3121  0.8902 -0.2860
10367TIP3    H152592   3.502   0.738   1.843 -2.3666  1.6184 -0.2218
10367TIP3    H252593   3.447   0.858   1.770  0.6067  1.9176 -2.1257
10368TIP3   OH252594   0.598   3.085   0.003 -0.0065 -0.3509 -0.1076
10368TIP3    H152595   0.573   3.137  -0.074 -2.0844  2.1163  2.0597
10368TIP3    H252596   0.541   3.008  -0.000 -0.2757 -0.1301 -0.8602
10369TIP3   OH252597   4.041   3.978   2.808  0.4389  0.1381 -0.1587
10369TIP3    H152598   4.081   4.059   2.777  1.4101 -0.1148  0.3825
10369TIP3    H252599   4.031   3.924   2.730 -1.3476  1.2286 -0.7210
10370TIP3   OH252600   4.262   1.755  12.550  0.5899 -0.6551 -0.0998
10370TIP3    H152601   4.338   1.711  12.511  2.1439  3.3062 -2.0764
10370TIP3    H252602   4.192   1.743  12.485  1.4978  1.0613 -1.4604
10371TIP3   OH252603   6.492   5.920   4.957  0.4082  0.3235 -0.3009
10371TIP3    H152604   6.554   5.909   5.029  1.0053  1.2200 -0.6505
10371TIP3    H252605   6.521   5.857   4.891 -0.4508 -0.8585  0.4242
10372TIP3   OH252606   0.916   3.282  14.538  0.0489  0.0377  0.2671
10372TIP3    H152607   0.918   3.373  14.568 -1.4035  1.0129 -2.2669
10372TIP3    H252608   0.988   3.277  14.475 -0.2133 -0.4021  0.0016
10373TIP3   OH252609   1.408   2.333  13.970 -0.0882  0.6399 -0.4905
10373TIP3    H152610   1.346   2.268  13.935  1.4171 -0.8844 -0.4402
10373TIP3    H252611   1.436   2.297  14.054  1.3787  0.9313 -0.8246
10374TIP3   OH252612   4.686   0.745  15.991  0.1566 -0.6994  0.4316
10374TIP3    H152613   4.619   0.798  16.033  0.9148  0.5217  0.1558
10374TIP3    H252614   4.705   0.675  16.053 -0.6743 -0.5012  0.9179
10375TIP3   OH252615   1.366   6.724   6.487  0.6685  0.1531  0.0368
10375TIP3    H152616   1.427   6.738   6.415  1.1516  1.2512  0.6339
10375TIP3    H252617   1.391   6.789   6.553 -0.3717 -0.1891  0.7979
10376TIP3   OH252618   2.287   3.594   5.486  0.1560  0.6583 -0.6572
10376TIP3    H152619   2.205   3.575   5.440 -0.1693 -1.0391  0.5102
10376TIP3    H252620   2.323   3.670   5.441  0.0300 -1.0166 -3.8739
10377TIP3   OH252621   2.474   1.036  11.708  0.3749 -0.4797 -0.0078
10377TIP3    H152622   2.470   0.975  11.634 -1.6583 -0.4468  0.0126
10377TIP3    H252623   2.382   1.057  11.726  0.8500 -0.0707  2.1891
10378TIP3   OH252624   2.756   5.602  15.976 -0.3076  0.2770  0.2887
10378TIP3    H152625   2.773   5.534  15.910 -1.0493 -0.7106  1.0887
10378TIP3    H252626   2.762   5.684  15.927  0.4747 -0.3559 -0.7341
10379TIP3   OH252627   2.117   1.047  16.860 -0.0956  0.1160  0.5749
10379TIP3    H152628   2.048   1.061  16.925  1.3317 -2.4754  2.8966
10379TIP3    H252629   2.081   0.983  16.799 -0.8617  1.3389 -0.3121
10380TIP3   OH252630   5.562   0.546   0.171  0.3626 -0.4445  0.1523
10380TIP3    H152631   5.585   0.469   0.119  1.3574 -0.4156  0.5306
10380TIP3    H252632   5.514   0.511   0.246 -0.9187 -0.5024 -0.6633
10381TIP3   OH252633   3.960   4.625  14.508 -0.0530  0.4442  0.1310
10381TIP3    H152634   3.994   4.548  14.555  0.9022  0.1869 -0.9237
10381TIP3    H252635   3.894   4.662  14.567  0.6242 -0.2440  1.3696
10382TIP3   OH252636   4.253   2.390   4.012 -0.0511  0.1404  0.1895
10382TIP3    H152637   4.338   2.403   3.971  0.4146 -2.7086  0.0401
10382TIP3    H252638   4.271   2.392   4.106 -0.2070  1.5053  0.2080
10383TIP3   OH252639   3.493   3.528  14.450  0.2229  0.0232 -0.3580
10383TIP3    H152640   3.577   3.495  14.482  0.3537  0.4774 -0.2233
10383TIP3    H252641   3.439   3.538  14.528 -0.0218 -0.4450 -0.4652
10384TIP3   OH252642   1.269   5.827   3.929  0.4995  0.0760 -0.3866
10384TIP3    H152643   1.207   5.868   3.989 -1.4356 -2.2790 -0.6130
10384TIP3    H252644   1.306   5.755   3.979 -1.6656 -2.3821 -2.0246
10385TIP3   OH252645   2.160   3.790   3.529  0.3197 -0.1187  0.2888
10385TIP3    H152646   2.152   3.735   3.451 -1.1118 -1.3006  1.2104
10385TIP3    H252647   2.225   3.744   3.583  0.9868  0.4667 -0.0004
10386TIP3   OH252648   4.165   1.244  15.399 -0.8157  0.0332 -0.6717
10386TIP3    H152649   4.113   1.299  15.340 -2.0902 -1.0134 -0.5537
10386TIP3    H252650   4.241   1.218  15.347  0.9127  3.4531 -0.1531
10387TIP3   OH252651   3.818   4.402  14.333 -0.2339 -0.5208 -1.0063
10387TIP3    H152652   3.901   4.447  14.352  0.3914 -1.7461 -0.7782
10387TIP3    H252653   3.754   4.473  14.327  0.7223  0.4057 -0.6210
10388TIP3   OH252654   2.688   5.581   5.753 -0.0602 -0.2263  0.0164
10388TIP3    H152655   2.658   5.522   5.683  1.0234 -0.2128 -0.4772
10388TIP3    H252656   2.708   5.523   5.826  0.2170 -0.3979 -0.1912
10389TIP3   OH252657   6.107   5.589  11.188  0.2897 -0.1075  0.1296
10389TIP3    H152658   6.183   5.634  11.224  1.5005 -1.0591 -1.1619
10389TIP3    H252659   6.117   5.594  11.093 -1.6925  0.4403 -0.1106
10390TIP3   OH252660   4.116   4.859  12.284 -0.4841  1.0053  0.4954
10390TIP3    H152661   4.136   4.945  12.323  0.4312  0.0199  2.3463
10390TIP3    H252662   4.060   4.816  12.349 -2.1180  0.6980 -1.0562
10391TIP3   OH252663   6.641   0.187   4.472 -0.2282 -0.1649 -1.0196
10391TIP3    H152664   6.662   0.229   4.556 -3.1149 -1.0004  0.2342
10391TIP3    H252665   6.646   0.093   4.491  0.2825 -0.3957 -2.1760
10392TIP3   OH252666   2.403   5.285   2.135 -0.4047 -0.4354  0.2593
10392TIP3    H152667   2.386   5.211   2.076 -0.8709  0.0611 -0.2406
10392TIP3    H252668   2.321   5.297   2.183  0.5261 -2.0386  2.4275
10393TIP3   OH252669   0.295   5.772  13.640 -0.6638  0.3711  0.4384
10393TIP3    H152670   0.298   5.680  13.667 -0.0906  0.8534  2.1282
10393TIP3    H252671   0.294   5.821  13.722  0.2012  1.9178 -0.4291
10394TIP3   OH252672   4.281   3.167   2.867  0.6931 -0.1305 -0.8226
10394TIP3    H152673   4.212   3.102   2.880 -0.0916  1.0617  1.6159
10394TIP3    H252674   4.350   3.142   2.928  1.0669  0.4165 -1.0099
10395TIP3   OH252675   1.546   5.235   5.817 -0.4095  0.7088 -0.2807
10395TIP3    H152676   1.595   5.213   5.738  0.2158  0.4820  0.1558
10395TIP3    H252677   1.575   5.170   5.882 -0.8962  0.9008  0.1387
10396TIP3   OH252678   2.755   0.907   1.213  0.2310 -0.1952 -0.4572
10396TIP3    H152679   2.716   0.821   1.200  1.1081 -0.5223 -0.9955
10396TIP3    H252680   2.799   0.901   1.297 -1.9089  0.5912  0.8078
10397TIP3   OH252681   5.090   0.805   2.822  0.1312 -0.2050  0.2740
10397TIP3    H152682   5.031   0.779   2.893  2.0602 -0.3745  1.9269
10397TIP3    H252683   5.140   0.878   2.859  1.3184 -0.4278 -0.8247
10398TIP3   OH252684   4.016   0.432  13.644 -0.6627 -0.2034 -0.7018
10398TIP3    H152685   4.051   0.494  13.708 -0.8284 -1.4569  0.6734
10398TIP3    H252686   4.063   0.450  13.563  1.3900 -0.1978  0.4402
10399TIP3   OH252687   6.653   1.625   1.855 -0.4303 -0.5331  0.5670
10399TIP3    H152688   6.678   1.656   1.768  1.1437  0.6642  1.3876
10399TIP3    H252689   6.713   1.670   1.915 -1.6941 -1.0486  2.3155
10400TIP3   OH252690   6.247   0.492  15.596  0.2874  0.8121 -0.1488
10400TIP3    H152691   6.291   0.435  15.660 -1.3098  0.3701  0.6307
10400TIP3    H252692   6.262   0.581  15.629 -0.1372  0.6121  0.6320
10401TIP3   OH252693   6.225   6.729   6.386  0.2801  0.5226  0.1267
10401TIP3    H152694   6.276   6.673   6.327 -1.9571 -1.8360  0.2545
10401TIP3    H252695   6.184   6.793   6.327 -1.9192 -1.7926 -1.1200
10402TIP3   OH252696   5.596   1.091  14.384  0.0170  0.5093 -0.0774
10402TIP3    H152697   5.650   1.082  14.463  1.4221 -0.3818 -1.1009
10402TIP3    H252698   5.508   1.067  14.413  0.8389 -1.7348  0.8452
10403TIP3   OH252699   4.773   3.302   1.659 -0.5983 -0.2453 -0.4045
10403TIP3    H152700   4.714   3.264   1.724 -0.7015  0.3004 -0.1723
10403TIP3    H252701   4.745   3.393   1.651  1.0287  0.4032  0.6894
10404TIP3   OH252702   4.395   4.107  12.954  0.3021  0.0241 -0.3822
10404TIP3    H152703   4.395   4.123  13.049  0.7478 -0.3485 -0.3165
10404TIP3    H252704   4.306   4.130  12.926  0.1904  0.2122  0.1103
10405TIP3   OH252705   2.308   6.636  17.108 -0.2299  0.1496  0.1581
10405TIP3    H152706   2.330   6.692  17.034  0.1410 -1.9922 -1.4595
10405TIP3    H252707   2.221   6.603  17.089 -0.5561  0.3637  1.2206
10406TIP3   OH252708   5.502   3.556   0.698 -0.0145 -0.1386  0.6182
10406TIP3    H152709   5.502   3.644   0.662 -0.8606  0.6521  2.4363
10406TIP3    H252710   5.587   3.548   0.742  0.4453 -0.5940 -0.3270
10407TIP3   OH252711   6.350   4.352   3.864  0.7087 -0.2475  0.5853
10407TIP3    H152712   6.302   4.275   3.832 -0.7775  0.9658 -0.3097
10407TIP3    H252713   6.439   4.321   3.880  0.3297 -1.9902 -0.4172
10408TIP3   OH252714   3.505   1.998  16.028 -0.3689  0.3185 -0.6850
10408TIP3    H152715   3.530   2.081  16.069  0.4597  0.5999 -1.6929
10408TIP3    H252716   3.488   2.022  15.936 -1.5041 -0.3929 -0.6688
10409TIP3   OH252717   6.343   3.053  14.500 -0.4281 -0.6648 -0.3060
10409TIP3    H152718   6.343   3.018  14.589  2.1586  1.4132  0.6470
10409TIP3    H252719   6.412   3.004  14.455 -0.3121 -0.3034 -0.5262
10410TIP3   OH252720   3.171   2.354  12.568  0.0842 -0.0388 -0.1856
10410TIP3    H152721   3.160   2.424  12.633 -0.1051  0.1298 -0.3981
10410TIP3    H252722   3.256   2.316  12.588 -0.8633 -1.4156  1.5499
10411TIP3   OH252723   5.484   5.464  15.227  0.5189  0.1402 -0.0780
10411TIP3    H152724   5.573   5.493  15.243  0.1403  1.8393 -0.8206
10411TIP3    H252725   5.463   5.497  15.140 -1.0522  0.3522  0.3400
10412TIP3   OH252726   5.747   3.547   0.855  0.0162 -0.0490  0.1059
10412TIP3    H152727   5.697   3.576   0.932  0.5291  2.2622 -0.3357
10412TIP3    H252728   5.796   3.625   0.829  0.8597 -1.1616 -1.7934
10413TIP3   OH252729   1.982   0.223  11.615  0.2243 -0.3439  0.4466
10413TIP3    H152730   1.924   0.288  11.575 -0.3341 -1.5989 -0.9038
10413TIP3    H252731   2.009   0.167  11.542  1.1310 -1.2917  1.4678
10414TIP3   OH252732   6.239   4.005  17.106  0.1459 -0.4427  0.1484
10414TIP3    H152733   6.258   3.921  17.064 -0.2163 -0.6469  0.3896
10414TIP3    H252734   6.294   4.005  17.184 -0.5791 -0.8899  0.6715
10415TIP3   OH252735   5.357   6.814   5.963 -0.4346  0.0942  0.5793
10415TIP3    H152736   5.431   6.754   5.955 -1.1079 -0.9494  1.8786
10415TIP3    H252737   5.397   6.901   5.962  0.5429 -0.2973 -1.5401
10416TIP3   OH252738   2.813   4.403   2.194 -0.3436 -0.2194  0.1277
10416TIP3    H152739   2.842   4.391   2.103  0.6133 -1.7685  0.5979
10416TIP3    H252740   2.813   4.498   2.207  0.3083 -0.0100 -1.2327
10417TIP3   OH252741   4.976   5.260  15.469 -0.0957  0.0153  0.1974
10417TIP3    H152742   4.951   5.201  15.398  0.5480 -0.5885  0.4679
10417TIP3    H252743   4.925   5.229  15.544  1.9948 -1.7645  0.9803
10418TIP3   OH252744   2.545   1.348  13.625 -0.0303  0.0192  0.0600
10418TIP3    H152745   2.499   1.290  13.686  0.5880 -1.4922 -0.8474
10418TIP3    H252746   2.575   1.421  13.679 -1.7008  0.0215  1.0565
10419TIP3   OH252747   4.165   4.896  13.440  0.4871 -0.1733 -0.1362
10419TIP3    H152748   4.108   4.971  13.452  2.1159  1.2000 -0.5257
10419TIP3    H252749   4.119   4.840  13.378 -2.0111 -0.9049  2.2179
10420TIP3   OH252750   3.135   0.873   4.208  0.6638 -0.0827  0.4333
10420TIP3    H152751   3.074   0.942   4.235  0.5475  0.2124 -0.5525
10420TIP3    H252752   3.093   0.792   4.236  0.8978  0.2296  1.7916
10421TIP3   OH252753   3.661   5.428   5.537 -0.5409  0.5489  0.0626
10421TIP3    H152754   3.630   5.474   5.614 -0.9399 -0.5537  0.5765
10421TIP3    H252755   3.678   5.339   5.567  1.4039  0.6490 -0.6172
10422TIP3   OH252756   6.316   3.821   5.877 -0.4910 -0.1956 -0.1057
10422TIP3    H152757   6.345   3.905   5.841  0.1713 -0.5777 -0.4767
10422TIP3    H252758   6.265   3.781   5.807 -1.2259  0.1089  0.2481
10423TIP3   OH252759   3.352   0.685   5.010 -0.7689 -0.0064 -0.7602
10423TIP3    H152760   3.264   0.663   5.042 -0.9711  0.9555 -0.6356
10423TIP3    H252761   3.382   0.755   5.068  0.6468 -1.2286  0.0701
10424TIP3   OH252762   3.390   2.701   3.745  0.0402  0.5931 -0.0346
10424TIP3    H152763   3.349   2.786   3.728  0.3653  1.1064  1.5565
10424TIP3    H252764   3.458   2.693   3.678 -0.8515  0.9678 -1.0132
10425TIP3   OH252765   3.821   3.675  12.246  0.0619 -0.0027  0.4885
10425TIP3    H152766   3.806   3.621  12.323 -1.8528  0.0942  0.2255
10425TIP3    H252767   3.887   3.739  12.274 -0.4658 -0.0819  1.9836
10426TIP3   OH252768   3.936   6.230  15.766  0.0760  0.0499  0.0650
10426TIP3    H152769   4.020   6.276  15.774 -0.2087  0.4561  0.7790
10426TIP3    H252770   3.956   6.139  15.786  0.1013  0.3857  1.6759
10427TIP3   OH252771   4.123   4.831   2.085 -0.0359  0.3480  0.4070
10427TIP3    H152772   4.212   4.815   2.114  0.4899  0.0144 -1.3065
10427TIP3    H252773   4.080   4.746   2.090 -0.6638  0.7068  2.3461
10428TIP3   OH252774   3.367   5.315  15.305 -0.1325 -0.3869 -0.5697
10428TIP3    H152775   3.454   5.319  15.346 -0.7228 -1.0463  0.8229
10428TIP3    H252776   3.307   5.302  15.378 -1.5116  0.9545 -1.4168
10429TIP3   OH252777   3.598   6.286   2.510 -0.1135  0.5280 -0.1853
10429TIP3    H152778   3.543   6.333   2.446 -0.1740  0.5982 -0.0822
10429TIP3    H252779   3.548   6.289   2.591  0.3400  1.1867  0.0834
10430TIP3   OH252780   1.782   1.794  13.178  0.2466 -0.4413 -0.1290
10430TIP3    H152781   1.746   1.709  13.152 -0.3905 -0.0553 -0.5511
10430TIP3    H252782   1.855   1.808  13.118 -0.6496  0.0288 -1.1349
10431TIP3   OH252783   1.185   1.602  12.017 -0.0849  0.0641 -0.2115
10431TIP3    H152784   1.145   1.689  12.012 -0.8926 -0.3271 -0.7930
10431TIP3    H252785   1.240   1.606  12.095 -1.5461  0.5213  0.8429
10432TIP3   OH252786   0.500   0.431  16.608 -0.5272 -0.7553  0.0552
10432TIP3    H152787   0.489   0.343  16.643 -0.3951 -0.1642  1.6986
10432TIP3    H252788   0.577   0.465  16.654  0.7832 -0.5338 -2.1960
10433TIP3   OH252789   4.547   2.212   2.429 -0.0358  0.7911 -0.0406
10433TIP3    H152790   4.507   2.270   2.363 -1.2138 -0.0342 -0.0910
10433TIP3    H252791   4.624   2.176   2.386 -1.3611 -0.5546 -1.4178
10434TIP3   OH252792   3.046   6.148  14.253  0.1860  0.8270  0.6535
10434TIP3    H152793   3.069   6.073  14.307 -0.0771  0.0440 -0.2983
10434TIP3    H252794   2.993   6.112  14.182  0.6003  1.8067 -0.1922
10435TIP3   OH252795   1.639   4.767  17.168 -0.1127 -0.1364 -0.3532
10435TIP3    H152796   1.700   4.810  17.108 -1.6344  1.0820 -1.1099
10435TIP3    H252797   1.637   4.823  17.245  0.4667 -0.7241  0.1023
10436TIP3   OH252798   4.593   5.139   1.749  0.3163 -0.0952 -0.6275
10436TIP3    H152799   4.513   5.103   1.711 -0.9792  1.2234  0.6837
10436TIP3    H252800   4.625   5.201   1.683 -0.1697 -0.0790 -0.8534
10437TIP3   OH252801   0.152   6.351  14.500 -0.5409  0.0157 -0.6269
10437TIP3    H152802   0.247   6.356  14.512 -0.3664 -1.0181 -1.3771
10437TIP3    H252803   0.129   6.432  14.454 -0.1290  0.5704  0.1287
10438TIP3   OH252804   6.235   3.227  13.104 -0.0240  0.0846  0.3137
10438TIP3    H152805   6.225   3.250  13.011  1.5295 -0.8495 -0.1205
10438TIP3    H252806   6.309   3.281  13.134  0.2866 -0.5359  0.6715
10439TIP3   OH252807   0.822   4.496  14.351 -0.3640 -0.2709  0.2464
10439TIP3    H152808   0.804   4.434  14.422 -0.5608 -0.6845 -0.1561
10439TIP3    H252809   0.886   4.556  14.387 -1.3458  0.2525  1.1854
10440TIP3   OH252810   3.336   6.068   5.876 -0.1092  0.5391 -0.4473
10440TIP3    H152811   3.407   6.130   5.888  0.8508 -0.7249  0.7847
10440TIP3    H252812   3.333   6.019   5.958 -1.1829 -0.6783 -1.1699
10441TIP3   OH252813   6.321   5.043  13.441  0.2491 -0.0439 -0.0408
10441TIP3    H152814   6.350   4.981  13.507 -0.3726  0.0262  0.3105
10441TIP3    H252815   6.298   5.122  13.490 -2.0143 -0.6060 -0.0760
10442TIP3   OH252816   4.473   4.019   3.691  0.0601  0.2612  0.6644
10442TIP3    H152817   4.526   3.944   3.663 -0.0253 -0.9437  3.4299
10442TIP3    H252818   4.384   3.996   3.663  0.4270  0.7197 -0.9982
10443TIP3   OH252819   3.074   0.928  10.916  0.1013 -0.2872  0.2578
10443TIP3    H152820   3.168   0.938  10.931 -0.0055  1.4045  0.0211
10443TIP3    H252821   3.039   1.016  10.932 -1.2833 -0.6331 -0.7659
10444TIP3   OH252822   1.841   4.632   0.974  0.1994 -0.3623 -0.0214
10444TIP3    H152823   1.927   4.603   0.944  0.9308 -0.4631  1.9907
10444TIP3    H252824   1.859   4.709   1.029 -0.8368 -1.1300  1.4633
10445TIP3   OH252825   2.495   1.523  11.179 -0.2143  0.2236 -0.1745
10445TIP3    H152826   2.462   1.511  11.090  0.1551  1.5024 -0.5157
10445TIP3    H252827   2.422   1.565  11.226  0.2154  1.2627 -0.4016
10446TIP3   OH252828   0.024   0.119  11.155 -0.1444 -0.3859  1.2121
10446TIP3    H152829   0.078   0.198  11.165  0.4119 -0.7038  0.8199
10446TIP3    H252830   0.005   0.115  11.061 -4.3454  1.9614  1.7222
10447TIP3   OH252831   2.438   2.137   2.499  0.1879  0.0519 -0.0646
10447TIP3    H152832   2.513   2.103   2.548 -0.1561 -2.4320 -1.0976
10447TIP3    H252833   2.466   2.223   2.468  1.7261  0.1479  1.4682
10448TIP3   OH252834   2.316   4.543   5.220  0.5089 -0.3199 -0.2219
10448TIP3    H152835   2.318   4.447   5.230  2.1233 -0.2619  0.1575
10448TIP3    H252836   2.296   4.575   5.308  0.6193 -0.2867 -0.2094
10449TIP3   OH252837   2.061   3.676  12.720  0.5153  0.3523 -0.5688
10449TIP3    H152838   1.970   3.662  12.746  0.0703 -0.1527 -2.2619
10449TIP3    H252839   2.103   3.710  12.799 -0.6227 -1.4387  0.9275
10450TIP3   OH252840   0.119   2.289  10.986 -0.1019  0.1031  0.2605
10450TIP3    H152841   0.085   2.254  11.068 -0.9649  2.3358  0.9484
10450TIP3    H252842   0.109   2.218  10.923 -3.1475 -0.4186  1.1763
10451TIP3   OH252843   1.944   4.185   0.316 -0.3742  0.0286  0.5063
10451TIP3    H152844   1.904   4.098   0.315  0.7126 -0.5111  1.1077
10451TIP3    H252845   1.927   4.217   0.405 -1.4231  0.7670  0.0546
10452TIP3   OH252846   6.249   3.221  12.301 -0.1807 -0.1128 -0.4040
10452TIP3    H152847   6.163   3.234  12.342 -0.3244  0.4360 -0.8633
10452TIP3    H252848   6.275   3.309  12.272  1.0738 -0.0658  0.7725
10453TIP3   OH252849   6.344   1.704  11.140  0.0582 -0.5477  0.2548
10453TIP3    H152850   6.259   1.746  11.156  0.4073  0.1285  0.3680
10453TIP3    H252851   6.332   1.615  11.171 -0.4527 -0.3119  0.7715
10454TIP3   OH252852   5.050   0.255  16.855 -0.1726  0.3653  0.3284
10454TIP3    H152853   4.995   0.283  16.781 -0.0106  1.0908  0.4838
10454TIP3    H252854   5.098   0.333  16.881  0.1930 -0.0255  0.8460
10455TIP3   OH252855   3.825   3.256  15.643  0.2044  0.1207 -0.2232
10455TIP3    H152856   3.819   3.345  15.609 -1.3509  0.4402  0.7906
10455TIP3    H252857   3.737   3.220  15.632  0.1046 -0.3733  1.7636
10456TIP3   OH252858   1.719   3.815   5.062  0.2775 -0.1495 -0.6659
10456TIP3    H152859   1.642   3.853   5.103  0.0242 -0.4578 -0.8438
10456TIP3    H252860   1.694   3.724   5.046  0.5814 -0.1791 -0.9715
10457TIP3   OH252861   4.703   5.031  13.303 -0.0664 -0.3819  0.2446
10457TIP3    H152862   4.648   4.962  13.339 -1.0836  0.3843  0.1850
10457TIP3    H252863   4.644   5.085  13.251  0.9359 -0.1127 -0.6554
10458TIP3   OH252864   1.322   5.527   0.203  0.1359 -0.0196 -0.9655
10458TIP3    H152865   1.232   5.539   0.235  0.3076  2.4111 -1.2482
10458TIP3    H252866   1.376   5.567   0.271  0.8431  0.7141 -1.9559
10459TIP3   OH252867   6.741   1.888   3.749  0.3945  0.2898  0.7935
10459TIP3    H152868   6.708   1.805   3.785  1.1480  0.1329  1.1495
10459TIP3    H252869   6.673   1.952   3.770  0.9532  0.2896  2.8918
10460TIP3   OH252870   0.336   1.437   1.165  0.8346  0.2563  0.2902
10460TIP3    H152871   0.347   1.356   1.116 -2.0403  0.6254 -1.1633
10460TIP3    H252872   0.389   1.424   1.244  0.3945 -3.0858  0.1822
10461TIP3   OH252873   1.439   5.329   1.737 -0.1755 -0.9614 -0.0543
10461TIP3    H152874   1.478   5.385   1.670 -0.8741 -0.9198 -0.4317
10461TIP3    H252875   1.513   5.303   1.793  0.3150 -0.5240 -0.4953
10462TIP3   OH252876   4.359   5.763  12.845  0.0706 -0.1253 -0.1513
10462TIP3    H152877   4.266   5.741  12.854 -0.8561  2.4746 -2.2791
10462TIP3    H252878   4.398   5.684  12.807 -1.4077 -0.9810  0.0042
10463TIP3   OH252879   2.416   4.708  12.521  1.0447  0.3997 -0.6606
10463TIP3    H152880   2.503   4.714  12.481  1.0618  0.3530 -0.6300
10463TIP3    H252881   2.411   4.618  12.554  1.4711  0.7759  0.4538
10464TIP3   OH252882   4.953   6.056  11.287  0.3428 -0.0393  0.1415
10464TIP3    H152883   4.872   6.040  11.239  1.3145 -1.2705 -1.1818
10464TIP3    H252884   4.927   6.061  11.379 -1.5513  2.1305 -0.4262
10465TIP3   OH252885   0.047   5.994  13.598 -0.3833 -0.4067 -0.1846
10465TIP3    H152886   0.140   6.007  13.617  0.3424 -1.4829 -2.5615
10465TIP3    H252887   0.007   6.080  13.610  0.2102 -0.4934  3.8681
10466TIP3   OH252888   1.505   6.233   0.582  0.2799  0.0807 -0.5429
10466TIP3    H152889   1.580   6.220   0.523  0.4345 -0.9501 -0.1478
10466TIP3    H252890   1.515   6.323   0.614  1.5416 -0.1332 -0.2635
10467TIP3   OH252891   1.564   5.184   5.160 -0.1680  0.3214 -0.1321
10467TIP3    H152892   1.576   5.205   5.067 -0.9571 -0.2095 -0.3631
10467TIP3    H252893   1.629   5.237   5.205  1.0827 -0.3374 -1.0933
10468TIP3   OH252894   3.732   4.181  11.596 -0.1940  0.3402 -0.0036
10468TIP3    H152895   3.749   4.272  11.572  1.7320  0.0549  0.1003
10468TIP3    H252896   3.659   4.154  11.540 -0.3930  1.7570 -0.4622
10469TIP3   OH252897   5.147   0.001   4.306 -0.3967 -0.1037 -0.1353
10469TIP3    H152898   5.159   0.074   4.367  1.6945 -0.4871 -0.0293
10469TIP3    H252899   5.227  -0.001   4.254 -0.1007 -2.6871  0.2839
10470TIP3   OH252900   3.315   4.654   4.692 -0.4029 -0.2207  0.2706
10470TIP3    H152901   3.328   4.740   4.733 -0.1725 -1.0352  2.0357
10470TIP3    H252902   3.220   4.648   4.678 -0.3107  0.7558 -0.9679
10471TIP3   OH252903   5.573   5.542  14.177 -0.3487 -0.1613  0.1743
10471TIP3    H152904   5.653   5.568  14.222 -0.0469 -1.3346  0.3592
10471TIP3    H252905   5.553   5.455  14.211 -2.1136  0.3722  0.6471
10472TIP3   OH252906   2.775   1.648   4.757 -0.3885  0.3986 -0.3576
10472TIP3    H152907   2.777   1.604   4.672  1.8150  1.6008 -1.0065
10472TIP3    H252908   2.810   1.735   4.740 -0.7901  0.9951  1.6283
10473TIP3   OH252909   3.960   1.046  13.209  0.3530 -0.0991  0.2495
10473TIP3    H152910   4.037   1.004  13.248  2.0965  1.4362 -1.3312
10473TIP3    H252911   3.976   1.043  13.115 -1.0924  1.0578 -0.0630
10474TIP3   OH252912   4.122   1.072  16.202  0.5808 -0.1840  0.6447
10474TIP3    H152913   4.061   1.118  16.260  0.3493 -1.0913  1.1453
10474TIP3    H252914   4.071   0.999  16.168  1.3850 -0.9730  1.0961
10475TIP3   OH252915   1.613   6.102  15.574 -0.1292 -0.2329 -0.3440
10475TIP3    H152916   1.525   6.137  15.588 -0.4667 -1.3599  0.4363
10475TIP3    H252917   1.662   6.175  15.537 -1.4630  0.3319 -1.0608
10476TIP3   OH252918   0.361   4.330   3.415  0.3799  0.2729  0.6693
10476TIP3    H152919   0.361   4.265   3.486  0.7990  0.4154  0.8037
10476TIP3    H252920   0.271   4.361   3.411  0.1281 -0.4621  0.4679
10477TIP3   OH252921   5.428   2.790   1.609 -0.5293 -0.0211  0.5374
10477TIP3    H152922   5.486   2.866   1.615 -1.6802  0.8700  0.8842
10477TIP3    H252923   5.451   2.749   1.526  1.4479 -0.4492  1.2621
10478TIP3   OH252924   5.398   6.669  11.480  0.1472 -0.4785 -0.3348
10478TIP3    H152925   5.475   6.660  11.536 -0.3524 -0.3184  0.3876
10478TIP3    H252926   5.362   6.580  11.474  0.4210 -0.5693 -0.7418
10479TIP3   OH252927   0.791   1.457  15.874 -0.2460  0.1791 -0.0069
10479TIP3    H152928   0.836   1.432  15.955  3.0993  1.2980 -1.3100
10479TIP3    H252929   0.765   1.548  15.888 -0.0268  0.2470 -0.0360
10480TIP3   OH252930   5.158   6.287  13.661  0.2685 -0.2982  0.1009
10480TIP3    H152931   5.158   6.321  13.750  0.9440 -1.3603  0.5254
10480TIP3    H252932   5.066   6.266  13.643 -0.1599  1.5545 -0.1365
10481TIP3   OH252933   1.163   3.835   2.494 -0.4215 -0.2737  0.5459
10481TIP3    H152934   1.159   3.929   2.511 -2.6358 -0.5158  1.7883
10481TIP3    H252935   1.151   3.795   2.580  0.1101 -1.7002 -0.0187
10482TIP3   OH252936   5.816   4.973  17.064  0.3053  0.2618 -0.4158
10482TIP3    H152937   5.769   5.055  17.050 -0.7492  0.3598  2.8292
10482TIP3    H252938   5.905   5.000  17.087  0.2946  0.4164 -0.5534
10483TIP3   OH252939   5.730   0.057   2.907  0.4762  0.1946  0.5121
10483TIP3    H152940   5.711   0.108   2.828  1.4073  1.2364  0.9446
10483TIP3    H252941   5.814   0.091   2.938 -0.7387  1.1218  3.0173
10484TIP3   OH252942   5.662   1.305   5.597  0.2010  0.6293 -0.3255
10484TIP3    H152943   5.587   1.319   5.540  0.5597  0.9856 -0.7169
10484TIP3    H252944   5.700   1.392   5.610  0.2523  0.5237  0.2826
10485TIP3   OH252945   0.879   1.990  15.050  0.5657  0.2362 -0.3266
10485TIP3    H152946   0.821   1.939  14.992  2.2988 -1.4318 -0.7104
10485TIP3    H252947   0.820   2.031  15.113 -1.2306  0.6451 -2.1790
10486TIP3   OH252948   1.094   4.040  15.063  0.3256 -0.5990 -0.3575
10486TIP3    H152949   1.055   3.966  15.110  2.0722 -1.4701 -0.2289
10486TIP3    H252950   1.177   4.056  15.107  1.1205 -0.1764 -1.9282
10487TIP3   OH252951   1.853   1.979   0.190  0.3231  0.0806  0.1297
10487TIP3    H152952   1.865   2.054   0.248  0.6148  0.2098 -0.0942
10487TIP3    H252953   1.867   1.903   0.246 -1.2172  0.1497  0.6498
10488TIP3   OH252954   3.817   6.618   1.220  0.1816 -0.2700 -0.0551
10488TIP3    H152955   3.848   6.553   1.157 -0.1567 -0.4010 -0.0874
10488TIP3    H252956   3.863   6.698   1.196 -0.3290 -0.1842 -0.8064
10489TIP3   OH252957   4.856   4.349   1.579 -1.3022  0.5880 -0.2863
10489TIP3    H152958   4.917   4.393   1.521 -1.2864  0.4502 -0.3744
10489TIP3    H252959   4.883   4.257   1.577 -0.8507  0.7013  0.5103
10490TIP3   OH252960   3.800   1.229   2.982 -0.0005 -0.1390  0.0494
10490TIP3    H152961   3.875   1.259   2.932 -2.3013  1.3854 -2.8182
10490TIP3    H252962   3.788   1.138   2.955  1.5541 -0.8616  1.6262
10491TIP3   OH252963   3.485   6.183   4.404 -0.9020 -0.2674 -0.0705
10491TIP3    H152964   3.481   6.211   4.313  1.8546 -1.3959 -0.6342
10491TIP3    H252965   3.566   6.221   4.437 -0.5796 -1.8959  1.1469
10492TIP3   OH252966   4.552   5.135  16.024 -0.1005  0.1115  0.2883
10492TIP3    H152967   4.508   5.116  15.942  0.8054 -2.1627  0.2575
10492TIP3    H252968   4.632   5.083  16.021  0.0545  0.1236  2.5297
10493TIP3   OH252969   0.012   5.160   6.201 -0.3264 -0.0735  0.3529
10493TIP3    H152970  -0.035   5.171   6.284  0.4488  0.7110  0.7017
10493TIP3    H252971  -0.043   5.204   6.136 -0.8426 -0.5269  0.4766
10494TIP3   OH252972   6.547   4.255   5.373 -0.1302 -0.0286 -0.4991
10494TIP3    H152973   6.606   4.329   5.382 -0.5313  0.2234  0.1903
10494TIP3    H252974   6.575   4.193   5.440 -0.7072  0.1425 -0.0866
10495TIP3   OH252975   3.236   0.631   1.629  0.5400  0.2314  0.7245
10495TIP3    H152976   3.258   0.722   1.643 -1.7768  0.7809  1.2167
10495TIP3    H252977   3.218   0.625   1.535 -0.8812  0.7082  0.9422
10496TIP3   OH252978   5.275   6.261   5.645  0.3840  0.1994 -0.2681
10496TIP3    H152979   5.308   6.236   5.558  2.0879 -0.7773  0.6125
10496TIP3    H252980   5.335   6.330   5.674 -0.8720  1.3388 -0.3215
10497TIP3   OH252981   0.679   2.786  11.749  0.4785  0.8101  0.5376
10497TIP3    H152982   0.772   2.798  11.731  0.9853 -1.3662  1.4099
10497TIP3    H252983   0.660   2.847  11.821  0.4940  3.2473 -1.3905
10498TIP3   OH252984   6.460   4.650  14.589  0.6217 -0.1909  0.3975
10498TIP3    H152985   6.424   4.637  14.677 -1.0552  0.2880 -0.1786
10498TIP3    H252986   6.437   4.740  14.566  2.1781  0.1210 -0.0458
10499TIP3   OH252987   3.514   2.211   0.371 -0.2482 -0.1010 -0.7504
10499TIP3    H152988   3.488   2.284   0.426  2.0193 -0.2163  0.5962
10499TIP3    H252989   3.466   2.225   0.289 -1.4962  1.6857  0.2127
10500TIP3   OH252990   1.190   6.247  13.549  0.1104  0.5806  0.1330
10500TIP3    H152991   1.250   6.320  13.534  1.3983 -0.7772 -1.8339
10500TIP3    H252992   1.244   6.180  13.591 -0.6930  0.2303  0.6310
10501TIP3   OH252993   2.781   3.976   3.570 -0.8025  0.5316 -0.2349
10501TIP3    H152994   2.750   3.973   3.480  1.2390 -0.8493 -0.9699
10501TIP3    H252995   2.866   4.019   3.565 -0.9224  0.9948  1.1353
10502TIP3   OH252996   2.430   3.849  16.793  0.3456 -0.7613  0.0517
10502TIP3    H152997   2.349   3.814  16.754  0.8787 -1.0828 -0.7845
10502TIP3    H252998   2.448   3.790  16.866 -0.9883  0.1945  1.2138
10503TIP3   OH252999   3.918   0.477   4.634 -0.2664 -0.0224 -0.1878
10503TIP3    H153000   3.977   0.453   4.563 -0.0146 -0.8590  0.2863
10503TIP3    H253001   3.929   0.407   4.699 -1.3171  0.1316  0.1801
10504TIP3   OH253002   6.092   6.425  15.033 -0.0062  0.2989 -0.4582
10504TIP3    H153003   6.125   6.363  15.099  0.6194  1.7944  0.7095
10504TIP3    H253004   6.092   6.510  15.078  1.7006  1.6352 -2.7578
10505TIP3   OH253005   3.673   1.847   3.156 -0.0049 -0.5203 -0.2317
10505TIP3    H153006   3.737   1.908   3.194 -0.1288 -0.2523 -0.4513
10505TIP3    H253007   3.725   1.770   3.132 -0.0347 -0.9995  1.1468
10506TIP3   OH253008   5.102   4.625   4.920  0.3975  0.0048 -0.2870
10506TIP3    H153009   5.046   4.574   4.861 -0.1591 -0.5106  0.6555
10506TIP3    H253010   5.180   4.571   4.932  0.0596 -0.3784  0.2503
10507TIP3   OH253011   3.433   1.404  16.062 -0.6471 -0.1429  0.7211
10507TIP3    H153012   3.525   1.433  16.064 -0.7844  0.3004  1.7408
10507TIP3    H253013   3.429   1.339  15.992  0.9253 -1.7128  1.9870
10508TIP3   OH253014   5.369   1.899   0.220 -0.3225  0.1016 -0.2528
10508TIP3    H153015   5.464   1.899   0.230 -0.2555 -1.7928 -0.4774
10508TIP3    H253016   5.355   1.909   0.125 -0.3639  0.5942 -0.1972
10509TIP3   OH253017   0.980   6.346   6.169  0.2121  0.3087 -0.4407
10509TIP3    H153018   1.012   6.291   6.241 -0.4247 -0.3143 -0.6157
10509TIP3    H253019   0.890   6.367   6.193  0.0195  0.1632 -1.0030
10510TIP3   OH253020   3.615   6.235  15.163 -0.0174  0.2974  0.1089
10510TIP3    H153021   3.656   6.223  15.077 -0.6560 -0.8781 -0.0607
10510TIP3    H253022   3.589   6.146  15.189 -1.1360  0.8254  0.8554
10511TIP3   OH253023   0.264   6.571   3.481 -0.1639 -0.0799 -0.2346
10511TIP3    H153024   0.295   6.520   3.556 -0.2701 -0.7816 -0.6600
10511TIP3    H253025   0.257   6.661   3.514  0.0533 -0.3340  0.5164
10512TIP3   OH253026   6.139   1.318   2.696  0.7204  0.2789 -0.9399
10512TIP3    H153027   6.147   1.230   2.731 -0.0669 -0.0594 -1.5827
10512TIP3    H253028   6.193   1.372   2.754  2.6266 -0.8833 -1.5582
10513TIP3   OH253029   2.239   6.287  15.317 -0.0521  0.0293 -0.4416
10513TIP3    H153030   2.294   6.311  15.392  1.0738 -1.1497 -0.8499
10513TIP3    H253031   2.237   6.191  15.318 -2.2823  0.0330 -0.3553
10514TIP3   OH253032   4.465   3.417   0.752 -0.6363 -0.1288  0.4378
10514TIP3    H153033   4.554   3.431   0.785  0.2923 -0.3336 -1.7733
10514TIP3    H253034   4.432   3.505   0.736 -0.6972 -0.0627  0.9129
10515TIP3   OH253035   4.404   1.439  12.081  0.5422 -0.4787  0.6867
10515TIP3    H153036   4.368   1.449  12.169 -1.0558 -0.4319  0.0638
10515TIP3    H253037   4.345   1.377  12.037 -0.0801  1.2200 -1.0423
10516TIP3   OH253038   5.985   3.423   2.383  0.2431 -0.2413 -0.4332
10516TIP3    H153039   5.915   3.465   2.434  1.8545  1.0628  0.8394
10516TIP3    H253040   6.027   3.364   2.446  0.6819 -0.5379 -1.0041
10517TIP3   OH253041   1.593   3.111   6.307 -0.1550 -0.2317 -0.1839
10517TIP3    H153042   1.672   3.061   6.289 -0.7202 -1.3047  0.2171
10517TIP3    H253043   1.611   3.157   6.389  1.1426  1.9366 -1.5925
10518TIP3   OH253044   4.002   5.960   1.060  0.3447  0.8492  0.2543
10518TIP3    H153045   4.037   5.885   1.013  3.1044  2.1834  0.0159
10518TIP3    H253046   3.919   5.979   1.016 -0.1303 -1.6483 -0.0517
10519TIP3   OH253047   5.941   5.594  17.190 -0.0123  0.3052 -0.6096
10519TIP3    H153048   5.994   5.561  17.262  1.1130 -0.0599 -1.5834
10519TIP3    H253049   5.855   5.554  17.203  0.9210 -2.0024 -0.9797
10520TIP3   OH253050   6.192   3.850   0.565  0.0449 -0.2799 -0.1520
10520TIP3    H153051   6.261   3.878   0.624 -0.6055  1.3747 -0.1382
10520TIP3    H253052   6.236   3.836   0.481  0.3016  1.4893 -0.3339
10521TIP3   OH253053   6.099   1.902   2.315 -0.1525  0.0459 -0.4688
10521TIP3    H153054   6.186   1.868   2.293  0.4667  0.8156  0.7358
10521TIP3    H253055   6.089   1.887   2.408 -1.2645  0.1019 -0.5608
10522TIP3   OH253056   3.275   4.026  15.920  0.6696  0.1357  0.0641
10522TIP3    H153057   3.211   3.972  15.873 -0.2078  1.3133 -0.1340
10522TIP3    H253058   3.304   4.091  15.856  0.8791  0.5855  0.6057
10523TIP3   OH253059   4.568   4.145   5.770  0.0426  0.1637 -0.5951
10523TIP3    H153060   4.532   4.079   5.829 -1.2862  0.7966 -0.6522
10523TIP3    H253061   4.662   4.129   5.770  0.0475 -0.0657  1.4421
10524TIP3   OH253062   3.977   6.753   2.158  0.5534 -0.4346  0.0227
10524TIP3    H153063   3.989   6.847   2.165 -2.3517 -0.0542  0.9739
10524TIP3    H253064   3.938   6.740   2.072  0.4598 -0.7254  0.1085
10525TIP3   OH253065   5.796   0.880   2.953 -0.4130 -1.1371  0.0876
10525TIP3    H153066   5.760   0.845   2.871  0.1359 -0.8369 -0.2881
10525TIP3    H253067   5.853   0.810   2.986  2.1279 -0.0316 -1.5883
10526TIP3   OH253068   1.538   0.166   5.095  0.6172 -0.6109 -0.7657
10526TIP3    H153069   1.534   0.078   5.132 -0.2662 -0.0522  0.5247
10526TIP3    H253070   1.595   0.215   5.154 -0.6989  0.2581 -0.1928
10527TIP3   OH253071   1.517   4.023  10.152  0.7019  0.3016  0.1982
10527TIP3    H153072   1.457   4.073  10.097 -0.9168  0.3719  1.9344
10527TIP3    H253073   1.470   3.942  10.172  1.3053  0.2123  1.3599
10528TIP3   OH253074   6.792   1.285  15.512 -0.1210  0.4538 -0.3799
10528TIP3    H153075   6.741   1.243  15.581  0.6756 -0.9891 -0.6319
10528TIP3    H253076   6.854   1.342  15.559 -1.1119  1.2814 -0.0338
10529TIP3   OH253077   4.077   1.923   1.190 -0.3833 -0.4818  0.3178
10529TIP3    H153078   4.004   1.978   1.162 -0.6208  0.1261  2.0065
10529TIP3    H253079   4.123   1.902   1.110 -3.0991 -1.9351 -1.0044
10530TIP3   OH253080   3.750   5.934  13.496 -0.0298 -0.7357  0.0175
10530TIP3    H153081   3.677   5.904  13.442 -0.8123  1.3655 -0.1824
10530TIP3    H253082   3.709   5.973  13.572  0.8386  0.9387 -0.3375
10531TIP3   OH253083   1.078   0.107  10.841 -0.0723  0.0610  0.1931
10531TIP3    H153084   1.040   0.195  10.843 -0.6097 -0.1263 -0.9329
10531TIP3    H253085   1.042   0.067  10.761 -1.1830 -1.7863  1.5197
10532TIP3   OH253086   0.648   5.159  10.981  0.0913  0.7002 -0.4128
10532TIP3    H153087   0.593   5.222  11.029 -1.2083 -0.7554  0.1068
10532TIP3    H253088   0.588   5.119  10.918  0.9946  0.2761 -1.0133
10533TIP3   OH253089   3.025   2.343  15.624  0.3729 -0.2775 -0.1385
10533TIP3    H153090   3.056   2.275  15.563  2.3580 -0.5183  1.0323
10533TIP3    H253091   3.014   2.297  15.707 -1.4950  0.2174 -0.0671
10534TIP3   OH253092   0.471   0.085   4.994  0.2131  0.6693 -0.0860
10534TIP3    H153093   0.427   0.124   5.070 -1.8371  0.3525 -1.0309
10534TIP3    H253094   0.548   0.139   4.981  0.3441  1.0579  1.8844
10535TIP3   OH253095   5.730   1.883   2.219 -0.5879  0.4606  0.1189
10535TIP3    H153096   5.685   1.810   2.262 -2.2496  1.4715  0.1826
10535TIP3    H253097   5.736   1.951   2.286  0.4874  0.5870 -0.0866
10536TIP3   OH253098   1.479   4.865   1.416 -0.2493 -0.1562  0.4568
10536TIP3    H153099   1.465   4.960   1.408  0.2699 -0.2340 -1.9729
10536TIP3    H253100   1.574   4.856   1.424 -0.3604 -0.4594  1.6465
10537TIP3   OH253101   6.451   1.981  17.029 -0.7394 -0.1341 -0.0312
10537TIP3    H153102   6.370   1.930  17.018  0.3790 -1.7774 -1.2604
10537TIP3    H253103   6.518   1.926  16.989  0.9420  1.3418  0.6623
10538TIP3   OH253104   2.124   3.567  10.588  0.0479  0.5450  0.2806
10538TIP3    H153105   2.107   3.591  10.498  0.6657  0.1700  0.0592
10538TIP3    H253106   2.120   3.649  10.637  0.0432  0.7898 -0.1343
10539TIP3   OH253107   0.576   5.130  11.888 -0.5226  0.1741  0.5889
10539TIP3    H153108   0.483   5.109  11.888  0.0578 -2.7876  1.2178
10539TIP3    H253109   0.618   5.057  11.934  2.3070  0.4402 -1.2847
10540TIP3   OH253110   0.853   4.320   4.667  0.6783 -0.0039  0.1912
10540TIP3    H153111   0.785   4.273   4.716 -0.7789  0.7689 -1.0107
10540TIP3    H253112   0.844   4.288   4.577 -0.9701  3.0779 -0.8879
10541TIP3   OH253113   6.511   4.423  11.826 -0.2598 -0.1094  0.5962
10541TIP3    H153114   6.594   4.461  11.855 -1.0917 -0.2741  3.5664
10541TIP3    H253115   6.482   4.371  11.901 -1.5533 -2.6424 -1.5096
10542TIP3   OH253116   2.110   6.222   2.809  0.9340 -0.1716  0.1289
10542TIP3    H153117   2.159   6.163   2.751 -1.0471 -1.1767 -0.6097
10542TIP3    H253118   2.047   6.265   2.751 -2.2758 -2.4311  1.6360
10543TIP3   OH253119   0.886   3.496   5.285  0.1751 -0.1170 -0.1461
10543TIP3    H153120   0.850   3.496   5.373  0.0633  0.8697 -0.1836
10543TIP3    H253121   0.846   3.420   5.242  0.5566 -0.8568  0.7693
10544TIP3   OH253122   1.597   4.011  15.090 -0.0799 -0.0833  0.1529
10544TIP3    H153123   1.619   3.925  15.125  0.0864 -0.2992 -0.4693
10544TIP3    H253124   1.532   3.993  15.022 -0.3247  0.3189  0.2774
10545TIP3   OH253125   5.971   3.535   5.536 -0.1076  0.4128 -0.3492
10545TIP3    H153126   6.003   3.615   5.577 -0.7679  0.5356 -0.0638
10545TIP3    H253127   6.041   3.509   5.476  0.8936  0.2262  0.8566
10546TIP3   OH253128   3.498   5.128   3.872 -0.3724 -0.5385  0.5493
10546TIP3    H153129   3.494   5.099   3.964 -0.6432 -0.8074  0.4559
10546TIP3    H253130   3.494   5.223   3.877  2.6927 -0.3270  1.0024
10547TIP3   OH253131   2.447   2.552  10.929  0.5556  0.1615  0.1541
10547TIP3    H153132   2.363   2.582  10.894  1.2218  1.8247 -0.0885
10547TIP3    H253133   2.423   2.483  10.991 -1.0167  0.7622  0.2613
10548TIP3   OH253134   5.387   3.522  12.217 -0.7884  0.5558 -0.4791
10548TIP3    H153135   5.369   3.429  12.209  0.6039  0.1424  0.8006
10548TIP3    H253136   5.309   3.565  12.183 -0.6179 -1.0215 -3.1548
10549TIP3   OH253137   1.278   2.726  17.167  0.0445  0.2934  0.2508
10549TIP3    H153138   1.208   2.791  17.177  1.0645  1.4277  0.2650
10549TIP3    H253139   1.243   2.646  17.207 -1.8970  0.3104 -1.2379
10550TIP3   OH253140   5.514   5.539   2.114  0.0666 -0.3840  0.4941
10550TIP3    H153141   5.459   5.617   2.123 -0.2127 -0.4336 -0.6727
10550TIP3    H253142   5.453   5.469   2.090  0.5768 -0.5413 -0.3642
10551TIP3   OH253143   0.605   4.041   0.798 -0.2123  0.2978 -0.1539
10551TIP3    H153144   0.617   4.130   0.764 -0.2277  1.2617  2.1369
10551TIP3    H253145   0.526   4.009   0.756  0.3911  0.9113 -1.8503
10552TIP3   OH253146   1.526   3.625  11.358 -0.3715  0.3396 -0.2956
10552TIP3    H153147   1.481   3.672  11.428 -0.0841  2.0910 -1.2027
10552TIP3    H253148   1.579   3.693  11.315  1.3255 -1.1780 -0.7030
10553TIP3   OH253149   4.741   0.136  13.305  0.3322  0.0051 -0.0416
10553TIP3    H153150   4.797   0.105  13.233  2.3329  0.6350  1.1687
10553TIP3    H253151   4.664   0.172  13.261  0.7469 -1.0870 -1.7780
10554TIP3   OH253152   2.759   6.398  16.221  0.1871 -0.0263  0.2508
10554TIP3    H153153   2.822   6.427  16.286 -1.2269  0.8579  1.2756
10554TIP3    H253154   2.689   6.463  16.224  0.2679  0.3169 -2.5091
10555TIP3   OH253155   0.226   0.174  15.564  0.3765  0.2206  0.2537
10555TIP3    H153156   0.135   0.175  15.595  0.4913 -1.2715  0.7636
10555TIP3    H253157   0.219   0.152  15.471  0.2106 -0.1844  0.3560
10556TIP3   OH253158   1.503   4.587   5.092 -0.3192  0.0280  0.0364
10556TIP3    H153159   1.591   4.626   5.096 -0.0187 -0.7122  0.7209
10556TIP3    H253160   1.467   4.619   5.009  1.2170 -0.9590 -1.0631
10557TIP3   OH253161   0.209   1.841  13.070  0.5409  0.3106 -0.4749
10557TIP3    H153162   0.217   1.898  13.147 -0.8133  0.6938 -0.5825
10557TIP3    H253163   0.131   1.873  13.025  0.0537 -1.2665 -0.8337
10558TIP3   OH253164   3.399   4.326   1.201  0.1052  0.2392 -0.3528
10558TIP3    H153165   3.425   4.234   1.213  0.5131  0.2891 -0.8039
10558TIP3    H253166   3.305   4.327   1.215  0.4786  0.2753  2.7621
10559TIP3   OH253167   4.535   6.676  11.185 -0.3227  0.2597  0.2888
10559TIP3    H153168   4.624   6.702  11.160 -0.8251  1.6691 -0.1182
10559TIP3    H253169   4.486   6.678  11.103 -1.2686  1.9123  0.8424
10560TIP3   OH253170   4.932   0.311  16.599  0.3631  0.3723  0.2024
10560TIP3    H153171   4.958   0.402  16.582 -0.0810  0.5220  0.3218
10560TIP3    H253172   4.842   0.317  16.630  0.5339 -0.0626  0.7999
10561TIP3   OH253173   6.545   2.235  16.690  0.3522  0.9134 -0.2891
10561TIP3    H153174   6.597   2.191  16.757  0.7369  1.2300 -0.3746
10561TIP3    H253175   6.592   2.218  16.608 -0.6066 -0.2546 -0.6256
10562TIP3   OH253176   1.988   1.412  17.182 -0.3842  0.4437 -0.4224
10562TIP3    H153177   1.945   1.497  17.177 -0.5438  0.3570 -0.5294
10562TIP3    H253178   1.944   1.366  17.253 -0.5441  0.3140 -0.6051
10563TIP3   OH253179   3.414   5.448   0.561  0.2531 -0.3628 -0.4640
10563TIP3    H153180   3.487   5.499   0.594 -0.5610  0.2262  0.4757
10563TIP3    H253181   3.373   5.410   0.639 -0.3060 -0.8662 -0.9841
10564TIP3   OH253182   6.431   4.912  16.277 -0.1343  0.3058 -0.0304
10564TIP3    H153183   6.468   4.838  16.228 -0.0950  0.2704  0.0535
10564TIP3    H253184   6.390   4.872  16.353  0.8434  0.4671  0.5998
10565TIP3   OH253185   6.423   3.288  13.791 -0.0720  0.1347 -0.1988
10565TIP3    H153186   6.339   3.306  13.833 -0.4410  2.5172 -1.6898
10565TIP3    H253187   6.415   3.199  13.758 -0.5002 -1.0705  2.9078
10566TIP3   OH253188   3.974   5.481   4.492  0.3157  0.4101  0.3333
10566TIP3    H153189   3.975   5.570   4.458  2.0161  0.9120  1.5683
10566TIP3    H253190   4.049   5.439   4.451 -1.2357 -0.9433 -1.2953
10567TIP3   OH253191   0.907   1.150   2.126 -0.1980  0.5843  0.0780
10567TIP3    H153192   0.949   1.068   2.151 -1.4996 -0.5009 -1.1208
10567TIP3    H253193   0.976   1.202   2.085  1.2629  1.2028  3.0543
10568TIP3   OH253194   5.524   5.058   1.730  0.9025  0.6861 -0.0364
10568TIP3    H153195   5.494   5.146   1.708  1.5548  1.3743  1.6313
10568TIP3    H253196   5.449   5.016   1.771  0.4799  0.3194 -1.1626
10569TIP3   OH253197   5.264   1.530  16.524  0.7552  0.2420  0.5406
10569TIP3    H153198   5.186   1.475  16.515  1.6686 -0.7890 -2.6051
10569TIP3    H253199   5.293   1.516  16.614 -0.0833 -3.0639  0.4192
10570TIP3   OH253200   2.018   1.931  14.030  0.3800  0.6513  0.6493
10570TIP3    H153201   2.105   1.959  14.056  0.6329  0.8404 -0.3692
10570TIP3    H253202   1.984   1.885  14.107  1.9541 -0.7584  0.5488
10571TIP3   OH253203   3.400   3.726   4.223  0.6815 -0.1786  0.4341
10571TIP3    H153204   3.408   3.797   4.159  1.2154 -1.7723 -1.3887
10571TIP3    H253205   3.488   3.715   4.258  1.5301 -2.2956 -2.0779
10572TIP3   OH253206   0.946   4.146  17.128  0.3754 -0.2670 -0.0519
10572TIP3    H153207   0.926   4.219  17.070  0.8289 -1.1778 -1.4041
10572TIP3    H253208   1.040   4.154  17.144 -0.0347  0.9551  1.9728
10573TIP3   OH253209   6.736   3.657   2.928  0.0427  0.1907 -0.3098
10573TIP3    H153210   6.748   3.563   2.916 -1.2475  0.0454 -0.5553
10573TIP3    H253211   6.646   3.674   2.901  0.4633  1.6129 -0.9657
10574TIP3   OH253212   4.308   0.591  13.215 -0.0019  0.0626  0.4021
10574TIP3    H153213   4.331   0.636  13.134 -1.2703 -1.6099 -0.9479
10574TIP3    H253214   4.393   0.575  13.258  0.8203 -0.1817 -1.2316
10575TIP3   OH253215   2.546   1.689  12.772  0.6775  0.3882 -0.3403
10575TIP3    H153216   2.628   1.664  12.728  0.4141  0.1362 -0.6971
10575TIP3    H253217   2.568   1.689  12.865  1.0687  0.2590 -0.4292
10576TIP3   OH253218   5.326   6.115   6.691 -0.6251 -0.2365 -0.0031
10576TIP3    H153219   5.262   6.150   6.754 -1.2757 -2.4434  0.6502
10576TIP3    H253220   5.274   6.097   6.612 -0.0737  1.2145 -0.7478
10577TIP3   OH253221   3.750   5.626   3.758 -0.0947 -0.3200  0.0496
10577TIP3    H153222   3.766   5.539   3.723 -3.6522 -0.6336 -1.2460
10577TIP3    H253223   3.774   5.685   3.686 -0.8933 -0.5007 -0.3770
10578TIP3   OH253224   6.534   1.399   0.012 -0.2012  0.2272  0.3239
10578TIP3    H153225   6.566   1.443  -0.066 -0.6982 -1.5149 -0.9084
10578TIP3    H253226   6.464   1.456   0.044  0.3251  1.1965 -0.2042
10579TIP3   OH253227   5.599   4.250   5.082  0.0480  0.1578  0.5102
10579TIP3    H153228   5.529   4.295   5.130 -0.5839 -1.7856  1.5147
10579TIP3    H253229   5.677   4.264   5.136 -0.3114 -0.5736  1.2506
10580TIP3   OH253230   3.786   6.058   5.612  0.1206 -0.2150 -0.2425
10580TIP3    H153231   3.859   6.009   5.574 -1.0967 -1.1341 -1.5055
10580TIP3    H253232   3.739   5.993   5.666  1.3331  0.8626  2.2808
10581TIP3   OH253233   1.898   1.739  13.860  0.4726 -0.0365 -0.0901
10581TIP3    H153234   1.986   1.722  13.825  1.1208 -1.0961  1.9078
10581TIP3    H253235   1.905   1.828  13.896 -0.0739  0.8882 -2.0887
10582TIP3   OH253236   4.915   0.005   3.749  0.3208  0.6493  0.5707
10582TIP3    H153237   4.821   0.024   3.758  0.0357  1.0522 -2.3715
10582TIP3    H253238   4.921  -0.090   3.760 -0.2717  0.7260  1.7096
10583TIP3   OH253239   3.647   5.073  13.007 -0.0170  0.1894 -0.3757
10583TIP3    H153240   3.611   5.000  12.956  1.6694 -0.5564 -0.5830
10583TIP3    H253241   3.609   5.062  13.094 -1.2464  0.2074 -0.8801
10584TIP3   OH253242   1.577   4.110   0.861  0.2254  0.1162 -0.7900
10584TIP3    H153243   1.541   4.026   0.832  0.6331 -0.3376 -0.0209
10584TIP3    H253244   1.589   4.159   0.780  1.3980 -1.1381 -1.4287
10585TIP3   OH253245   0.944   3.103  13.351 -0.6208  0.0526 -0.0910
10585TIP3    H153246   1.033   3.134  13.332 -0.3629 -0.5424  0.1302
10585TIP3    H253247   0.888   3.162  13.300 -0.0499 -0.2185 -1.0703
10586TIP3   OH253248   1.351   2.108  11.203 -0.3431  0.0549  0.3646
10586TIP3    H153249   1.340   2.041  11.270 -1.2192  1.0792  1.2803
10586TIP3    H253250   1.263   2.122  11.167  0.0386 -0.1523 -0.6844
10587TIP3   OH253251   1.320   5.725  12.241 -0.5015 -0.1530 -0.1190
10587TIP3    H153252   1.400   5.755  12.282 -0.2229  0.5858 -1.1643
10587TIP3    H253253   1.263   5.700  12.314  1.0038 -1.5972  0.6035
10588TIP3   OH253254   3.677   1.898  14.691  0.1183 -0.6748  0.0601
10588TIP3    H153255   3.703   1.983  14.726  0.8540 -0.2541 -1.4263
10588TIP3    H253256   3.581   1.900  14.691  0.1241 -0.2278  0.9101
10589TIP3   OH253257   6.154   4.969  14.706  0.7060  0.1464 -0.4306
10589TIP3    H153258   6.126   4.890  14.752 -0.9560  2.3999  2.7965
10589TIP3    H253259   6.236   4.994  14.748  1.3853  0.0332 -1.6446
10590TIP3   OH253260   6.822   5.486   3.564  0.0781 -0.4283  0.0089
10590TIP3    H153261   6.891   5.476   3.629  2.4623 -1.6266 -2.4611
10590TIP3    H253262   6.810   5.581   3.556  0.5715 -0.2374  1.3181
10591TIP3   OH253263   4.978   2.224  16.419 -0.0405  0.5259 -0.8543
10591TIP3    H153264   4.942   2.167  16.351 -2.5717 -3.3441  3.1896
10591TIP3    H253265   4.907   2.286  16.439  0.5699  1.4358 -1.4333
10592TIP3   OH253266   3.232   2.960   3.971 -0.0701  0.0140 -0.8173
10592TIP3    H153267   3.323   2.987   3.960 -0.1285  0.2316 -0.7514
10592TIP3    H253268   3.213   2.908   3.892 -0.0155  0.3089 -1.0232
10593TIP3   OH253269   1.977   2.056   4.616 -0.2091 -0.3930  0.5421
10593TIP3    H153270   2.017   2.029   4.533  0.1790 -0.3602  0.7124
10593TIP3    H253271   1.885   2.069   4.595 -0.0712 -0.1370  0.0545
10594TIP3   OH253272   3.590   5.628   0.750  0.5742  0.2078  0.0351
10594TIP3    H153273   3.648   5.566   0.793 -1.3378 -0.1501  2.3209
10594TIP3    H253274   3.625   5.714   0.773 -0.4722  0.0331  2.6397
10595TIP3   OH253275   0.239   0.715  15.472 -0.3073 -0.5561  0.1405
10595TIP3    H153276   0.330   0.744  15.480  0.7420 -3.6997  0.9510
10595TIP3    H253277   0.204   0.718  15.561 -0.3242 -1.2410  0.1647
10596TIP3   OH253278   6.720   4.168  10.997 -0.4445  0.5712  0.4686
10596TIP3    H153279   6.692   4.095  11.052 -0.2817  0.2142  0.0844
10596TIP3    H253280   6.712   4.135  10.908 -0.9280  1.2213  0.2629
10597TIP3   OH253281   1.323   0.390  12.465 -0.0670 -0.0572  0.2782
10597TIP3    H153282   1.258   0.461  12.464 -0.6960 -0.6275 -0.5152
10597TIP3    H253283   1.320   0.356  12.555  0.7593  1.3569  0.8852
10598TIP3   OH253284   5.080   4.339   6.099  0.0990 -0.3191 -0.6869
10598TIP3    H153285   5.032   4.278   6.154  0.8528 -0.5406 -0.2724
10598TIP3    H253286   5.159   4.361   6.148  0.3432  0.1904 -1.2767
10599TIP3   OH253287   5.977   5.496  15.361 -0.0131  0.1596  0.0254
10599TIP3    H153288   5.945   5.478  15.450 -1.8342 -2.2926 -1.0140
10599TIP3    H253289   6.009   5.412  15.329 -0.7321  0.6257 -2.1116
10600TIP3   OH253290   4.069   3.153   0.003 -0.3740  0.1486 -0.4659
10600TIP3    H153291   3.994   3.209   0.025 -1.2020 -1.3707  0.7811
10600TIP3    H253292   4.049   3.120  -0.084 -0.8018  0.3058 -0.4309
10601TIP3   OH253293   4.386   0.866  12.453  0.4701  0.4648  0.4358
10601TIP3    H153294   4.449   0.881  12.524 -1.1410  1.2964  1.7434
10601TIP3    H253295   4.303   0.849  12.497 -0.3241 -0.2678 -1.2594
10602TIP3   OH253296   6.766   6.586   3.468  0.2693  0.5835 -0.4296
10602TIP3    H153297   6.672   6.570   3.470 -0.1354  2.1977 -2.4381
10602TIP3    H253298   6.802   6.531   3.537 -2.3033  0.9976  1.3848
10603TIP3   OH253299   3.224   0.709   6.555 -0.1127  0.0723 -0.1020
10603TIP3    H153300   3.181   0.725   6.639  2.9411 -0.4501  1.6877
10603TIP3    H253301   3.228   0.614   6.547  0.1368  0.1168 -0.5796
10604TIP3   OH253302   2.173   5.046   3.412 -0.0434 -0.2935 -0.0986
10604TIP3    H153303   2.242   5.037   3.478 -1.7009  0.2118  1.8148
10604TIP3    H253304   2.165   4.959   3.373  0.9342 -0.6242  0.3956
10605TIP3   OH253305   0.727   1.217  14.103 -0.8933 -0.0738  0.9511
10605TIP3    H153306   0.704   1.218  14.196 -1.2353  0.3018  0.8655
10605TIP3    H253307   0.820   1.237  14.101 -0.7546 -0.6902  1.2502
10606TIP3   OH253308   2.169   1.960  14.371  0.6516 -0.1628  0.2816
10606TIP3    H153309   2.079   1.978  14.344  0.9721  2.4243  0.7049
10606TIP3    H253310   2.161   1.923  14.459 -0.0049 -0.0268  0.2868
10607TIP3   OH253311   6.569   3.392   0.756  0.1452  0.1963 -0.0810
10607TIP3    H153312   6.660   3.422   0.757  0.7519 -1.4180 -1.3936
10607TIP3    H253313   6.566   3.324   0.823  0.0262 -0.0280 -0.3099
10608TIP3   OH253314   4.996   2.919  16.122  0.1617 -0.0007  0.0394
10608TIP3    H153315   5.060   2.978  16.084  0.6092 -0.9621 -0.7447
10608TIP3    H253316   4.937   2.897  16.050  0.6233 -1.3185  0.0344
10609TIP3   OH253317   4.463   1.532   4.470 -0.0083  0.4588  0.1741
10609TIP3    H153318   4.465   1.623   4.440 -0.0273  0.4640  0.1888
10609TIP3    H253319   4.375   1.521   4.507  0.1032  0.5278  0.4630
10610TIP3   OH253320   3.989   3.654   0.807  0.3315  0.0461 -0.3934
10610TIP3    H153321   3.920   3.687   0.864  0.5956 -0.2067  0.0764
10610TIP3    H253322   4.009   3.567   0.841  1.0107  0.1879 -0.4141
10611TIP3   OH253323   3.198   0.947  11.619 -0.4716  0.0256  0.6604
10611TIP3    H153324   3.197   0.932  11.714 -0.0931 -0.6073  0.5732
10611TIP3    H253325   3.218   1.040  11.609  0.0117 -0.0158  1.1937
10612TIP3   OH253326   6.641   1.906  14.770  0.3269  0.0030 -0.0773
10612TIP3    H153327   6.566   1.846  14.774  0.3905 -0.1750 -1.2823
10612TIP3    H253328   6.633   1.959  14.850  0.0560 -1.3427  0.8223
10613TIP3   OH253329   6.633   4.067  14.218  0.1400  0.2946 -0.1808
10613TIP3    H153330   6.714   4.093  14.175  1.4951  0.2302  2.1563
10613TIP3    H253331   6.615   4.139  14.280  1.2983 -1.8865  2.9466
10614TIP3   OH253332   5.122   4.532   5.679  0.1483  0.4168 -0.0503
10614TIP3    H153333   5.045   4.476   5.683 -0.1120  0.8476  1.2223
10614TIP3    H253334   5.195   4.475   5.702  0.3156 -0.1153 -1.7402
10615TIP3   OH253335   5.793   4.715   6.200 -0.2407 -0.1603  0.6811
10615TIP3    H153336   5.850   4.644   6.228 -0.7027 -0.1516  1.7037
10615TIP3    H253337   5.827   4.793   6.244 -1.2648 -0.2314  1.6291
10616TIP3   OH253338   6.072   6.765  16.258 -0.0369 -0.0255 -0.7758
10616TIP3    H153339   6.030   6.808  16.333  0.7460  1.2704 -1.0459
10616TIP3    H253340   6.119   6.691  16.296  0.9231  1.0103  0.1498
10617TIP3   OH253341   4.873   2.860  13.275  0.5725 -0.1374  0.1207
10617TIP3    H153342   4.780   2.874  13.294  0.0768 -0.4696 -1.8596
10617TIP3    H253343   4.888   2.910  13.195  1.4840 -2.0626 -0.9532
10618TIP3   OH253344   0.296   6.786   1.085 -0.0577 -0.3187  0.5104
10618TIP3    H153345   0.206   6.821   1.082  0.0849  0.0206  0.0569
10618TIP3    H253346   0.288   6.697   1.052 -0.0490  0.1171 -0.7389
10619TIP3   OH253347   6.803   5.602  16.929  0.5893 -0.1062  0.3778
10619TIP3    H153348   6.820   5.614  17.022  1.6868 -0.5134  0.2375
10619TIP3    H253349   6.709   5.585  16.924  0.7576 -1.4995  1.5580
10620TIP3   OH253350   4.079   0.565   3.716  0.0521 -0.4222  0.3020
10620TIP3    H153351   4.096   0.489   3.773 -2.5754 -1.0900  0.3276
10620TIP3    H253352   4.130   0.636   3.755  0.1060 -1.4177  2.1884
10621TIP3   OH253353   2.858   2.945  14.711 -0.3866 -0.1635  0.4846
10621TIP3    H153354   2.792   3.013  14.694 -0.4120 -0.2339  0.3010
10621TIP3    H253355   2.843   2.880  14.642 -0.6525 -0.5686  0.9161
10622TIP3   OH253356   1.118   0.934  15.636  0.4989 -0.0166 -0.2985
10622TIP3    H153357   1.066   0.867  15.591  0.5856  0.5964 -1.3367
10622TIP3    H253358   1.194   0.886  15.669  0.3438 -0.5176 -0.6489
10623TIP3   OH253359   3.826   0.274  13.778 -0.2917 -0.2681 -0.5375
10623TIP3    H153360   3.910   0.312  13.752  0.9424 -1.3749  1.5556
10623TIP3    H253361   3.789   0.337  13.839 -0.1372 -0.5908 -0.1106
10624TIP3   OH253362   6.750   5.871   4.299  0.3987 -0.0652 -0.4727
10624TIP3    H153363   6.830   5.864   4.247 -0.9254 -1.8848 -2.3958
10624TIP3    H253364   6.716   5.782   4.304 -1.5435  0.6572  0.2867
10625TIP3   OH253365   3.693   5.326  11.780 -0.0150  0.0889  0.2664
10625TIP3    H153366   3.676   5.319  11.874 -0.4951  0.7151  0.2290
10625TIP3    H253367   3.718   5.418  11.767  0.8385 -0.1801 -0.0944
10626TIP3   OH253368   0.706   6.782  15.323 -0.2402  0.0704 -0.2889
10626TIP3    H153369   0.643   6.784  15.395  0.1816 -2.0179  0.2297
10626TIP3    H253370   0.654   6.800  15.245 -0.4120  4.2104  0.5766
10627TIP3   OH253371   2.819   2.434   5.826 -0.1321 -0.1772 -0.3593
10627TIP3    H153372   2.738   2.432   5.877  1.0790 -0.1029  1.7003
10627TIP3    H253373   2.854   2.523   5.839 -0.4871  0.3442 -2.5771
10628TIP3   OH253374   4.338   0.455   2.065 -0.1588  0.0454 -0.6865
10628TIP3    H153375   4.423   0.413   2.077  0.3219  0.8819 -1.0632
10628TIP3    H253376   4.281   0.386   2.031  0.2667 -0.6166 -0.0870
10629TIP3   OH253377   0.785   0.908   3.611  0.2996 -0.4229 -0.0136
10629TIP3    H153378   0.724   0.890   3.683 -0.0006 -0.0648 -0.1743
10629TIP3    H253379   0.859   0.849   3.626 -0.2158 -1.0636  0.0262
10630TIP3   OH253380   4.215   2.159   5.914 -0.6147  0.0463 -0.2079
10630TIP3    H153381   4.178   2.203   5.990 -1.1880 -1.8313  0.6536
10630TIP3    H253382   4.140   2.118   5.870 -0.1115 -0.0342 -1.0215
10631TIP3   OH253383   4.541   6.512   5.299 -0.0702  0.3246 -0.8026
10631TIP3    H153384   4.527   6.584   5.361  0.5149  0.0472 -0.3326
10631TIP3    H253385   4.471   6.450   5.318 -0.9730  1.0572 -1.6574
10632TIP3   OH253386   6.017   4.162   0.092 -0.3117  0.7148 -0.0100
10632TIP3    H153387   6.002   4.202   0.006  1.7058  1.0768 -0.2515
10632TIP3    H253388   6.042   4.235   0.148 -1.6376  0.4822  0.9252
10633TIP3   OH253389   6.521   0.988   5.398  0.1403  0.0741 -0.0218
10633TIP3    H153390   6.436   1.030   5.380  0.4352  1.1672  0.9882
10633TIP3    H253391   6.499   0.907   5.442 -0.4108 -0.1850 -0.7527
10634TIP3   OH253392   0.624   6.721   3.486  0.0184  0.1923  0.3992
10634TIP3    H153393   0.539   6.746   3.449  0.7390  0.5056 -1.1563
10634TIP3    H253394   0.623   6.754   3.575 -0.6278  2.2275 -0.3140
10635TIP3   OH253395   2.079   0.499   0.952 -0.2397 -0.2878  1.0693
10635TIP3    H153396   2.027   0.421   0.970 -1.3154  0.0002 -0.5251
10635TIP3    H253397   2.112   0.527   1.037 -2.2798 -0.7901  2.0853
10636TIP3   OH253398   6.158   5.512   4.647  0.1794 -0.1068 -0.5427
10636TIP3    H153399   6.165   5.602   4.676 -1.9195  0.4258 -1.4981
10636TIP3    H253400   6.188   5.460   4.722 -0.0623  1.3223  0.5820
10637TIP3   OH253401   2.885   3.997  16.873  0.4187  0.3307  0.0734
10637TIP3    H153402   2.814   4.003  16.809  0.3232  1.8653  0.2798
10637TIP3    H253403   2.903   3.903  16.880 -0.7583  0.0013 -0.8838
10638TIP3   OH253404   3.242   0.264  13.000 -0.1296  0.0395  0.0558
10638TIP3    H153405   3.180   0.193  12.984 -0.6979  0.6949 -0.7271
10638TIP3    H253406   3.277   0.285  12.913  2.5669 -1.4984  0.6403
10639TIP3   OH253407   5.422   6.239   5.062  0.0257 -0.0704  0.3980
10639TIP3    H153408   5.506   6.207   5.093  0.2354 -0.2602 -0.3401
10639TIP3    H253409   5.368   6.160   5.055 -0.0117 -0.0326  0.2571
10640TIP3   OH253410   6.064   4.892  11.312  0.1876  0.4539  0.3642
10640TIP3    H153411   6.109   4.856  11.236  0.5851  0.6892  0.4865
10640TIP3    H253412   6.011   4.819  11.345 -1.6980  0.9204 -1.4049
10641TIP3   OH253413   2.002   5.882  16.435  0.1581 -0.4208 -0.2691
10641TIP3    H153414   1.931   5.820  16.449 -0.8768  0.2167 -2.3368
10641TIP3    H253415   2.079   5.827  16.422 -0.7464 -1.3651 -2.1570
10642TIP3   OH253416   1.429   1.253   0.295  0.2191 -0.4349 -0.0538
10642TIP3    H153417   1.425   1.344   0.325  0.4025 -0.1223 -0.9317
10642TIP3    H253418   1.497   1.213   0.349  0.5609  0.1214 -0.0601
10643TIP3   OH253419   4.592   3.457  12.162 -0.3557 -0.4265  0.0295
10643TIP3    H153420   4.540   3.391  12.117  1.0531 -1.1332 -0.6112
10643TIP3    H253421   4.551   3.540  12.137 -0.9498 -0.9432 -0.7781
10644TIP3   OH253422   3.135   2.667  13.571  0.3695 -0.7512 -0.1039
10644TIP3    H153423   3.140   2.721  13.651  1.9660 -2.4580  1.0464
10644TIP3    H253424   3.044   2.638  13.567 -0.1926  0.8781 -0.0023
10645TIP3   OH253425   5.832   1.274  13.285 -0.2891  0.0825  0.5587
10645TIP3    H153426   5.897   1.332  13.245 -0.5688  0.9012  1.2647
10645TIP3    H253427   5.800   1.220  13.213  1.5755 -0.7491  0.2713
10646TIP3   OH253428   1.627   2.245  13.003 -0.1405 -0.0157  0.3577
10646TIP3    H153429   1.706   2.200  12.972 -0.6109  0.3785 -1.5272
10646TIP3    H253430   1.582   2.180  13.057  0.8176 -0.6812  0.3833
10647TIP3   OH253431   1.986   1.896   6.410 -0.1317  0.0862 -0.2708
10647TIP3    H153432   2.013   1.817   6.364  0.5340  0.0316  0.1852
10647TIP3    H253433   1.891   1.899   6.401 -0.3893 -1.7507  1.2473
10648TIP3   OH253434   1.599   3.463  12.099  0.1757 -0.6867  0.3245
10648TIP3    H153435   1.563   3.375  12.106 -0.3586 -0.4924  0.1057
10648TIP3    H253436   1.627   3.469  12.007  1.5004 -1.1047  0.6757
10649TIP3   OH253437   1.252   3.379  14.448  0.3028 -0.0219 -0.1632
10649TIP3    H153438   1.219   3.461  14.486  0.9289  0.5555 -0.8414
10649TIP3    H253439   1.180   3.347  14.394  1.0169  1.6167 -2.2383
10650TIP3   OH253440   0.100   2.417  12.610  0.0127 -0.3642 -0.2499
10650TIP3    H153441   0.176   2.437  12.555  0.0186 -1.4303 -0.6452
10650TIP3    H253442   0.025   2.433  12.554 -0.1167  1.3821  0.3582
10651TIP3   OH253443   2.567   1.611   0.432  0.9383  0.3940  1.0854
10651TIP3    H153444   2.481   1.575   0.453 -0.6595  2.3226 -1.6069
10651TIP3    H253445   2.626   1.535   0.434 -1.4714 -1.6645 -0.3930
10652TIP3   OH253446   2.969   5.606   6.117  0.1488  0.3551 -0.5454
10652TIP3    H153447   2.991   5.537   6.180 -1.0549 -0.0592 -0.5473
10652TIP3    H253448   2.940   5.679   6.171  0.2645  0.4333 -0.5879
10653TIP3   OH253449   0.620   2.111  11.063 -0.5245  0.6741 -0.0722
10653TIP3    H153450   0.649   2.181  11.003 -0.9778 -1.3395 -2.8329
10653TIP3    H253451   0.689   2.106  11.129  0.5875  2.2705 -1.0315
10654TIP3   OH253452   3.160   5.798  11.763 -0.1811  0.0062 -0.1091
10654TIP3    H153453   3.188   5.771  11.675 -0.3016  1.1672 -0.5232
10654TIP3    H253454   3.224   5.864  11.789  0.1937 -0.7297  0.9431
10655TIP3   OH253455   1.661   1.129   3.498 -0.0681 -0.1288 -0.1122
10655TIP3    H153456   1.642   1.055   3.556 -1.6210  0.2747 -0.0556
10655TIP3    H253457   1.582   1.139   3.445  0.1118  1.4658 -0.1369
10656TIP3   OH253458   2.556   3.165  15.713  0.0838 -0.0748  0.0392
10656TIP3    H153459   2.575   3.077  15.746 -1.7678 -0.2717  0.6802
10656TIP3    H253460   2.584   3.162  15.621 -1.0332 -1.7503 -0.2929
10657TIP3   OH253461   5.880   0.366  14.344 -0.3488  0.4995  0.4105
10657TIP3    H153462   5.939   0.306  14.390 -1.4380 -1.4353 -0.5810
10657TIP3    H253463   5.814   0.389  14.409 -0.4017 -0.0878  0.5715
10658TIP3   OH253464   3.071   5.156  11.367 -0.4998 -0.3312  0.2122
10658TIP3    H153465   3.119   5.179  11.288  2.1337 -2.2218  1.1119
10658TIP3    H253466   3.103   5.218  11.433 -1.0476 -0.1606  0.3255
10659TIP3   OH253467   2.897   3.921   3.880  0.1156  0.0778  0.3171
10659TIP3    H153468   2.984   3.943   3.913 -0.0457 -0.9755  1.5500
10659TIP3    H253469   2.886   3.829   3.901 -1.5620  0.3551  0.8429
10660TIP3   OH253470   0.275   4.458   4.750 -0.2807 -0.0071  0.4831
10660TIP3    H153471   0.256   4.484   4.840  0.3717  1.2775  0.2689
10660TIP3    H253472   0.337   4.524   4.718  0.1954 -0.9535 -0.6206
10661TIP3   OH253473   2.766   5.583  15.343  0.3229  0.3324 -0.4956
10661TIP3    H153474   2.672   5.581  15.358  0.4282  0.8037  0.3014
10661TIP3    H253475   2.778   5.546  15.255 -0.4410 -1.4697  0.1070
10662TIP3   OH253476   1.716   2.493   5.040 -0.0992 -0.5142  0.2053
10662TIP3    H153477   1.622   2.486   5.024 -0.1699 -0.3221  0.5331
10662TIP3    H253478   1.743   2.403   5.061 -0.9425 -0.0293  4.0067
10663TIP3   OH253479   2.191   3.416  12.143 -0.1838 -0.1464  0.0542
10663TIP3    H153480   2.141   3.422  12.061  0.0301  1.7773  0.0362
10663TIP3    H253481   2.130   3.375  12.204 -1.2760  0.7587 -0.3865
10664TIP3   OH253482   3.343   3.329  15.996  0.0156  0.2225  0.0103
10664TIP3    H153483   3.333   3.319  15.902 -1.3244  0.8439  0.0604
10664TIP3    H253484   3.257   3.306  16.032  0.1903  1.0220  0.9821
10665TIP3   OH253485   4.063   1.561  16.856  0.5485 -0.1890  0.2696
10665TIP3    H153486   4.072   1.535  16.765  0.3650 -1.5759  0.6158
10665TIP3    H253487   4.123   1.502  16.904 -1.3989 -1.4287  1.3118
10666TIP3   OH253488   2.169   6.648  15.129  0.2086  0.0777  0.3697
10666TIP3    H153489   2.130   6.602  15.055  0.3100  0.2708  0.1947
10666TIP3    H253490   2.152   6.741  15.111 -0.7783  0.0701  1.1646
10667TIP3   OH253491   2.322   0.127   2.773  0.8429 -0.0637 -0.3489
10667TIP3    H153492   2.333   0.201   2.833  0.4511 -0.0956 -0.2373
10667TIP3    H253493   2.238   0.144   2.729  0.5348 -0.6667 -0.0002
10668TIP3   OH253494   0.304   6.113   6.212 -0.3973  0.1778 -0.1161
10668TIP3    H153495   0.282   6.200   6.179 -0.8195 -0.1518 -0.7268
10668TIP3    H253496   0.331   6.064   6.134 -1.3517 -0.5901  0.0175
10669TIP3   OH253497   5.020   0.828  14.574  0.5318  0.8048 -0.0812
10669TIP3    H153498   5.021   0.857  14.665  1.4448  1.3258 -0.2447
10669TIP3    H253499   5.055   0.903  14.525 -0.8449  0.9011 -0.9770
10670TIP3   OH253500   1.437   6.061  14.010  0.6632  1.1945  0.3181
10670TIP3    H153501   1.389   6.138  14.041 -0.3415 -0.5570  3.4303
10670TIP3    H253502   1.371   5.993  14.001  1.9219 -0.0513  0.2179
10671TIP3   OH253503   3.346   4.396   5.048 -0.9875  0.2338  0.0367
10671TIP3    H153504   3.288   4.358   4.982 -1.1053 -0.9120  0.7796
10671TIP3    H253505   3.306   4.373   5.131 -0.2957  0.7912  0.5401
10672TIP3   OH253506   3.749   2.166  14.737 -0.1752 -0.1422 -0.2839
10672TIP3    H153507   3.672   2.219  14.759 -0.4393 -1.5767  2.7798
10672TIP3    H253508   3.815   2.229  14.710 -1.2043  1.5358  0.8930
10673TIP3   OH253509   0.555   5.673  12.714  0.5166 -0.6336 -0.0552
10673TIP3    H153510   0.502   5.739  12.669 -0.3789 -1.6436 -0.5347
10673TIP3    H253511   0.512   5.590  12.694  1.6658 -1.3814  0.4615
10674TIP3   OH253512   3.978   1.780  15.109  0.4577  0.6096 -0.3782
10674TIP3    H153513   3.958   1.723  15.034 -1.3706  0.1852  0.3824
10674TIP3    H253514   4.061   1.746  15.143  0.1139 -0.7098 -0.7923
10675TIP3   OH253515   1.390   4.327   3.973 -0.4482  0.4375  0.1359
10675TIP3    H153516   1.369   4.277   4.052  2.4538 -0.4857  0.4122
10675TIP3    H253517   1.352   4.276   3.901  0.3528 -0.8654  0.6214
10676TIP3   OH253518   6.054   5.755   3.789 -0.4454 -0.2579 -0.2474
10676TIP3    H153519   6.023   5.821   3.726 -0.9556  1.2698  1.5093
10676TIP3    H253520   5.983   5.748   3.852  1.3279  0.7713  1.9892
10677TIP3   OH253521   6.555   0.555   3.310  0.7386  0.1249 -0.0547
10677TIP3    H153522   6.495   0.487   3.278  0.9643 -0.1693  0.1360
10677TIP3    H253523   6.522   0.636   3.273 -1.1986  0.3290  1.9489
10678TIP3   OH253524   3.243   6.354   6.214 -0.2766 -0.4506 -0.2193
10678TIP3    H153525   3.211   6.443   6.231 -0.3894 -0.6605  0.7340
10678TIP3    H253526   3.320   6.346   6.271 -0.9468 -1.3579  0.5841
10679TIP3   OH253527   6.256   5.076   6.049  0.3460 -0.4120 -0.0699
10679TIP3    H153528   6.161   5.080   6.051  0.3612 -0.3160  0.9118
10679TIP3    H253529   6.283   5.160   6.012  0.0319 -0.7835 -1.1613
10680TIP3   OH253530   6.718   5.421   4.339 -0.0861  0.0019  0.4853
10680TIP3    H153531   6.713   5.417   4.244  0.1815  0.7101  0.4383
10680TIP3    H253532   6.715   5.329   4.367  2.7259 -0.4654 -0.3709
10681TIP3   OH253533   6.187   3.280   3.284  0.5398  0.0587  0.7575
10681TIP3    H153534   6.101   3.312   3.312  0.0256  1.0505 -1.6963
10681TIP3    H253535   6.225   3.353   3.234  0.6733 -1.9758 -2.3806
10682TIP3   OH253536   6.442   2.333  11.480  0.3959 -0.3942  0.4174
10682TIP3    H153537   6.354   2.328  11.517  0.4882  0.6468  0.8041
10682TIP3    H253538   6.483   2.406  11.525  0.8369  0.3236 -1.0738
10683TIP3   OH253539   5.857   0.510   0.059  0.5863  0.0534 -0.6005
10683TIP3    H153540   5.777   0.459   0.050  0.5232  0.1688 -0.6929
10683TIP3    H253541   5.906   0.492  -0.022 -0.3236  1.6919 -1.5810
10684TIP3   OH253542   5.324   3.421   1.609 -0.0768 -0.3927  0.0827
10684TIP3    H153543   5.265   3.358   1.650  0.5267 -0.9870  0.0541
10684TIP3    H253544   5.405   3.372   1.595  0.4939  0.4730  0.3085
10685TIP3   OH253545   0.623   3.652   2.658 -0.1941 -0.5635  0.0902
10685TIP3    H153546   0.631   3.572   2.711 -0.7480 -0.7152 -0.0557
10685TIP3    H253547   0.546   3.638   2.604  0.0459 -0.1722 -0.3628
10686TIP3   OH253548   2.084   2.458   3.933  0.4250  0.0444  0.5015
10686TIP3    H153549   2.081   2.542   3.887  1.5668  0.4589  1.1516
10686TIP3    H253550   2.126   2.477   4.017  0.8484 -1.1969  0.5996
10687TIP3   OH253551   2.734   6.396   6.375 -0.2340 -0.8866 -0.1453
10687TIP3    H153552   2.793   6.428   6.443 -1.9609  0.6221  0.7324
10687TIP3    H253553   2.735   6.465   6.309  2.6034 -2.9862 -2.5610
10688TIP3   OH253554   2.493   0.661   3.164  0.5331 -0.0396  0.2070
10688TIP3    H153555   2.437   0.734   3.138  0.4745 -0.2856 -0.3742
10688TIP3    H253556   2.464   0.639   3.252  0.3520  0.4481  0.2710
10689TIP3   OH253557   3.496   0.928  11.531 -0.3346  0.4672  0.1635
10689TIP3    H153558   3.518   0.842  11.566 -0.0703  1.9831  4.1806
10689TIP3    H253559   3.405   0.941  11.556 -0.9728  0.7300 -2.0501
10690TIP3   OH253560   5.163   2.337  10.496 -0.2180 -0.2755  0.3596
10690TIP3    H153561   5.133   2.249  10.474 -0.9706  0.2624 -0.9160
10690TIP3    H253562   5.091   2.394  10.470  0.9351  0.8585 -0.5260
10691TIP3   OH253563   5.072   1.751   2.891  0.2005  0.1649 -0.0057
10691TIP3    H153564   5.119   1.697   2.827 -2.2922 -3.8205  1.1393
10691TIP3    H253565   5.115   1.734   2.974 -1.1187 -0.9040  0.5077
10692TIP3   OH253566   1.488   2.921   3.674 -0.5382  0.2670  0.3489
10692TIP3    H153567   1.450   2.836   3.695  0.5620 -0.3091  0.0893
10692TIP3    H253568   1.428   2.959   3.609  0.5518 -1.6858 -1.9620
10693TIP3   OH253569   4.346   1.887   4.112  0.1825  0.1302 -0.5556
10693TIP3    H153570   4.374   1.948   4.044  3.5859  0.9508  1.3686
10693TIP3    H253571   4.323   1.943   4.186 -1.7143 -0.8197 -0.3732
10694TIP3   OH253572   1.349   2.634  11.154 -0.5294  0.4142  0.2753
10694TIP3    H153573   1.380   2.637  11.064 -1.4622  0.6979 -0.0433
10694TIP3    H253574   1.318   2.544  11.165  1.7793 -0.3702  1.0972
10695TIP3   OH253575   2.337   2.893  13.936 -0.4940  0.0811 -0.5321
10695TIP3    H153576   2.416   2.840  13.928  0.1828  1.3054 -3.2749
10695TIP3    H253577   2.362   2.965  13.994 -0.1353 -0.4178 -0.0649
10696TIP3   OH253578   6.704   2.887   4.909 -0.1021 -0.2107 -0.0711
10696TIP3    H153579   6.795   2.863   4.926 -0.3553 -0.7259  0.5830
10696TIP3    H253580   6.687   2.856   4.820  0.7543  1.0840 -0.7114
10697TIP3   OH253581   3.826   5.858  12.662 -0.3184  0.3732  0.0042
10697TIP3    H153582   3.802   5.813  12.743  0.5489 -0.6880 -0.3114
10697TIP3    H253583   3.889   5.924  12.690 -1.6963  1.5344  0.4877
10698TIP3   OH253584   0.876   6.512  11.691  0.1063  0.0078  0.0318
10698TIP3    H153585   0.817   6.525  11.765 -0.0723  1.5844 -0.3308
10698TIP3    H253586   0.915   6.599  11.676  0.0751 -0.2370 -1.7489
10699TIP3   OH253587   3.164   1.090   4.678  0.5480 -0.2924  0.8778
10699TIP3    H153588   3.192   1.149   4.608 -1.6877  2.0252  1.7813
10699TIP3    H253589   3.222   1.110   4.751  0.3412  0.1786  0.9148
10700TIP3   OH253590   5.161   2.750   3.874  0.0703  0.1815 -0.1596
10700TIP3    H153591   5.106   2.672   3.871  0.0218  0.2104 -0.0362
10700TIP3    H253592   5.162   2.775   3.967  0.8982 -0.2462 -0.0430
10701TIP3   OH253593   0.798   6.341   3.609 -0.2580  0.1336  0.4423
10701TIP3    H153594   0.725   6.403   3.608 -1.2917 -1.0514 -0.8614
10701TIP3    H253595   0.837   6.352   3.696 -1.7557  1.0370  1.0435
10702TIP3   OH253596   1.507   6.224   0.153 -0.1634  0.1197  0.3293
10702TIP3    H153597   1.498   6.221   0.248 -0.8138 -1.6008  0.2476
10702TIP3    H253598   1.601   6.211   0.137 -0.0754  0.2565  0.7328
10703TIP3   OH253599   6.805   1.435   4.061  0.0842  0.4313  0.3313
10703TIP3    H153600   6.858   1.364   4.027 -2.1315  0.0573 -2.7328
10703TIP3    H253601   6.862   1.512   4.057  1.0041 -0.2883 -0.9666
10704TIP3   OH253602   0.812   3.590   1.973 -0.3335 -0.8078 -0.2430
10704TIP3    H153603   0.903   3.615   1.956 -0.0913 -2.6924 -2.0753
10704TIP3    H253604   0.803   3.596   2.068  1.3957  0.3484 -0.1125
10705TIP3   OH253605   5.841   0.764   2.009 -0.3201 -0.2954  0.1923
10705TIP3    H153606   5.827   0.824   2.082 -0.0760  0.1693 -0.1396
10705TIP3    H253607   5.934   0.741   2.015 -0.3680 -0.4867  0.2017
10706TIP3   OH253608   2.502   5.515  14.662  0.2350  0.3299  0.5659
10706TIP3    H153609   2.457   5.570  14.726  0.4352  0.1778  0.8397
10706TIP3    H253610   2.594   5.515  14.692  0.4660  0.8257 -0.1155
10707TIP3   OH253611   4.566   4.453  10.767  0.4083 -0.3841 -0.0941
10707TIP3    H153612   4.584   4.419  10.854  0.0351 -2.5229 -0.8020
10707TIP3    H253613   4.495   4.516  10.780  0.6296 -0.3735  1.1843
10708TIP3   OH253614   3.591   1.516   4.386 -0.1816 -0.1819  0.2600
10708TIP3    H153615   3.615   1.502   4.478  0.1285  0.7186  0.3310
10708TIP3    H253616   3.667   1.561   4.348 -0.1710 -0.8397 -0.5293
10709TIP3   OH253617   0.849   1.952  14.599  0.0584 -0.5004 -0.1442
10709TIP3    H153618   0.761   1.936  14.567 -0.7018 -0.2952  1.6846
10709TIP3    H253619   0.887   2.015  14.538 -0.8788 -0.9431 -1.2113
10710TIP3   OH253620   2.899   2.732   1.209  0.8091  0.6358 -0.1911
10710TIP3    H153621   2.954   2.797   1.165  1.8029  1.2587  1.8460
10710TIP3    H253622   2.945   2.649   1.195  0.1961  0.5172 -1.7336
10711TIP3   OH253623   1.329   2.544  11.794 -0.0865 -0.2076  0.0683
10711TIP3    H153624   1.253   2.593  11.826 -1.0006 -1.3353 -0.3251
10711TIP3    H253625   1.302   2.512  11.708  0.4902 -1.3736  0.3046
10712TIP3   OH253626   0.301   0.403   1.867 -0.4479  0.4818  0.1588
10712TIP3    H153627   0.306   0.327   1.925  2.2982  0.8676  0.5729
10712TIP3    H253628   0.269   0.368   1.784 -2.7520 -0.4035  1.3382
10713TIP3   OH253629   1.217   0.302  16.237 -0.1549 -0.0285 -0.0274
10713TIP3    H153630   1.287   0.260  16.187  1.3237  0.5362  1.4604
10713TIP3    H253631   1.259   0.328  16.319 -1.9248  1.0720  0.5862
10714TIP3   OH253632   0.822   0.674  13.523  0.3173  0.5131  0.6019
10714TIP3    H153633   0.871   0.753  13.503  0.8791  0.0187 -0.0594
10714TIP3    H253634   0.831   0.620  13.443 -1.3665  0.4437  0.4300
10715TIP3   OH253635   1.229   0.830  13.306  0.1647 -0.0987 -0.2322
10715TIP3    H153636   1.223   0.753  13.250  0.1994  0.5080 -1.1018
10715TIP3    H253637   1.281   0.892  13.254 -0.8213  0.9174 -0.0362
10716TIP3   OH253638   5.540   1.125  16.243  0.2974  0.5787 -0.4097
10716TIP3    H153639   5.503   1.044  16.211 -0.8836 -0.0302  2.2244
10716TIP3    H253640   5.467   1.187  16.244  0.7537  1.1300 -0.6789
10717TIP3   OH253641   1.499   3.417  11.812 -0.1073  0.3760 -0.0374
10717TIP3    H153642   1.555   3.485  11.775  0.0158 -0.3457 -1.2146
10717TIP3    H253643   1.499   3.347  11.747 -2.2700  0.2865 -0.0251
10718TIP3   OH253644   0.776   1.983  12.964 -0.1167 -0.1946 -0.2240
10718TIP3    H153645   0.738   1.925  12.897 -1.1477  2.5632 -2.2044
10718TIP3    H253646   0.745   2.070  12.941  2.8297  1.4771  1.4993
10719TIP3   OH253647   0.759   4.176  16.216 -0.2999  0.3801 -0.0725
10719TIP3    H153648   0.740   4.120  16.291 -0.2418 -0.0951 -0.4022
10719TIP3    H253649   0.852   4.197  16.224 -0.8948  2.6954  1.5389
10720TIP3   OH253650   4.642   4.524  13.648  0.1173  0.5180 -0.0518
10720TIP3    H153651   4.606   4.556  13.731  1.1432  0.2278  0.5110
10720TIP3    H253652   4.695   4.448  13.672 -0.5438 -0.3028 -1.1263
10721TIP3   OH253653   3.243   2.079  16.960  0.8371 -0.2138  0.3001
10721TIP3    H153654   3.231   2.048  17.050  0.3953  0.5868  0.5264
10721TIP3    H253655   3.254   1.999  16.908 -2.0972 -0.9143  0.5735
10722TIP3   OH253656   3.937   1.805  16.875  0.3893  0.0575 -0.0174
10722TIP3    H153657   3.887   1.830  16.954  0.6564  0.8598 -0.0952
10722TIP3    H253658   3.997   1.737  16.905  0.7561  0.6269  0.5690
10723TIP3   OH253659   5.998   2.149   0.274 -0.2212 -0.5762 -0.4670
10723TIP3    H153660   5.966   2.076   0.328 -1.5508  1.4152  1.6825
10723TIP3    H253661   6.004   2.222   0.336  0.2964  1.3354 -2.6593
10724TIP3   OH253662   2.230   4.430   4.265 -0.0909  0.0137  0.5919
10724TIP3    H153663   2.221   4.381   4.346  2.1433 -0.0633  0.8635
10724TIP3    H253664   2.319   4.466   4.268 -1.5890  4.3193  0.5000
10725TIP3   OH253665   6.625   4.059   4.918 -0.1335 -0.0849  0.0890
10725TIP3    H153666   6.704   4.025   4.876 -0.2386 -3.7119  2.4370
10725TIP3    H253667   6.556   4.044   4.854  0.4130 -1.1707 -0.2790
10726TIP3   OH253668   0.570   2.988  12.471  0.2256  0.2245  0.7089
10726TIP3    H153669   0.596   2.899  12.495 -1.7801  0.0950  2.6623
10726TIP3    H253670   0.559   3.033  12.555 -1.4612  1.5039 -0.1525
10727TIP3   OH253671   1.603   1.088  12.395 -0.1682 -0.2790  0.3737
10727TIP3    H153672   1.620   1.162  12.336  0.3617  0.8501  1.8785
10727TIP3    H253673   1.511   1.067  12.382 -0.1567  0.2021 -0.5560
10728TIP3   OH253674   0.760   6.760   0.517  0.1092 -0.0021 -0.2456
10728TIP3    H153675   0.694   6.692   0.508 -0.7851  0.8531 -0.3478
10728TIP3    H253676   0.732   6.811   0.593 -0.3112  1.3645 -1.2785
10729TIP3   OH253677   1.777   4.039   2.508 -0.5065  0.8561  0.3669
10729TIP3    H153678   1.712   4.061   2.440 -0.4822 -1.4375 -0.4689
10729TIP3    H253679   1.861   4.049   2.465 -0.2445  3.3172  1.3029
10730TIP3   OH253680   2.782   1.255  15.841  0.7170 -0.2297 -0.1224
10730TIP3    H153681   2.737   1.190  15.896  0.6493 -0.5442 -0.5465
10730TIP3    H253682   2.875   1.236  15.853  0.6787 -1.0358 -0.9910
10731TIP3   OH253683   5.363   0.537   3.009 -0.1315  0.2432  0.6413
10731TIP3    H153684   5.291   0.495   3.055 -0.2286 -1.1480 -0.7271
10731TIP3    H253685   5.326   0.617   2.973 -0.7654 -0.0635  0.6151
10732TIP3   OH253686   0.715   4.684  11.582  0.6657  0.0910  0.4669
10732TIP3    H153687   0.788   4.733  11.619  0.9627  0.6134 -0.7536
10732TIP3    H253688   0.741   4.592  11.590  1.9895  0.3011 -0.9484
10733TIP3   OH253689   6.415   3.711   1.992  0.5331 -0.4112 -0.3209
10733TIP3    H153690   6.378   3.800   1.993  0.7020 -0.3335 -0.8028
10733TIP3    H253691   6.401   3.681   1.903 -0.2457 -1.1798  0.0463
10734TIP3   OH253692   5.941   5.414   4.816  0.3487 -0.2158 -0.2355
10734TIP3    H153693   5.903   5.327   4.803 -1.7083  0.7251 -0.9076
10734TIP3    H253694   5.944   5.452   4.728  1.3809  0.3457  0.0320
10735TIP3   OH253695   6.035   4.390  12.285  0.2211  0.2338  0.1187
10735TIP3    H153696   6.097   4.318  12.285 -0.6339 -0.5443  1.2327
10735TIP3    H253697   5.972   4.368  12.216 -0.0623 -0.1363  0.4841
10736TIP3   OH253698   5.551   4.747   2.235 -0.4741  0.0101  0.3114
10736TIP3    H153699   5.479   4.684   2.229 -1.6320  1.3493 -0.8572
10736TIP3    H253700   5.520   4.822   2.185  1.5881  0.8124  0.1517
10737TIP3   OH253701   2.979   6.416  16.822  0.1966  0.5445 -0.1936
10737TIP3    H153702   3.045   6.352  16.850 -1.2405 -0.5276  0.9039
10737TIP3    H253703   2.965   6.471  16.899 -1.1771 -0.1464  0.0892
10738TIP3   OH253704   4.692   1.960   1.405 -0.4626 -0.0645  0.2666
10738TIP3    H153705   4.747   1.982   1.481 -0.4796  0.8529  0.0235
10738TIP3    H253706   4.754   1.926   1.341 -0.4106 -0.5889  0.5864
10739TIP3   OH253707   2.736   3.950  13.939 -0.4594 -0.3274  0.4761
10739TIP3    H153708   2.762   4.000  14.016 -0.3076 -1.5298  1.2301
10739TIP3    H253709   2.811   3.894  13.919 -1.0200 -1.0491  0.3324
10740TIP3   OH253710   5.341   5.723   2.262  0.0701 -0.0698 -0.2845
10740TIP3    H153711   5.363   5.709   2.354 -0.9535  0.4801  0.0498
10740TIP3    H253712   5.294   5.806   2.260  0.6564  0.2603 -1.4066
10741TIP3   OH253713   5.737   0.809  15.571 -0.3642 -0.4580 -0.2493
10741TIP3    H153714   5.706   0.879  15.629 -1.3482 -1.5695  0.6118
10741TIP3    H253715   5.793   0.755  15.627  0.9150 -0.0382 -1.0768
10742TIP3   OH253716   4.006   2.335   2.692  0.5548  0.2914 -0.0820
10742TIP3    H153717   4.014   2.250   2.735  0.9451  0.3557 -0.0278
10742TIP3    H253718   4.061   2.394   2.745  2.7521 -0.0610 -1.8537
10743TIP3   OH253719   2.912   2.093  13.108 -0.3202  0.3396  0.1436
10743TIP3    H153720   2.852   2.028  13.073 -0.9330  1.0491 -0.1487
10743TIP3    H253721   2.879   2.177  13.074 -1.0615  1.0894  2.5656
10744TIP3   OH253722   3.937   3.902  12.593  0.1653 -0.6141  0.0867
10744TIP3    H153723   3.872   3.837  12.617  1.7461 -2.6893 -0.9643
10744TIP3    H253724   3.923   3.917  12.500  0.1346  0.2198  0.2134
10745TIP3   OH253725   6.517   2.005  14.078  0.2927 -0.2427 -0.0092
10745TIP3    H153726   6.455   1.987  14.149 -0.8850  2.6941 -0.1487
10745TIP3    H253727   6.487   2.088  14.041  3.6515  0.7053 -0.9025
10746TIP3   OH253728   3.653   1.900  12.018  0.0180  0.3385  0.2228
10746TIP3    H153729   3.605   1.972  12.059 -2.6719  0.1188 -2.1861
10746TIP3    H253730   3.604   1.881  11.938 -0.1694 -4.9575  1.2089
10747TIP3   OH253731   5.882   2.940  12.140  0.0146  0.2834  0.0263
10747TIP3    H153732   5.872   2.850  12.110  0.2905  0.6076 -1.0901
10747TIP3    H253733   5.970   2.965  12.111 -0.1198  0.9599  0.1932
10748TIP3   OH253734   6.802   5.919   0.337 -0.1576  0.3927 -0.3649
10748TIP3    H153735   6.826   5.845   0.282 -0.1745  0.7654 -0.8811
10748TIP3    H253736   6.707   5.914   0.344 -0.0084 -1.0290  1.6010
10749TIP3   OH253737   5.082   6.212   0.012  0.4043 -0.3165  0.5087
10749TIP3    H153738   5.142   6.166  -0.047 -0.3732 -1.5035  0.6199
10749TIP3    H253739   5.044   6.281  -0.043  0.0219 -1.1245 -0.2678
10750TIP3   OH253740   2.658   1.843  12.284 -0.0342 -0.5209 -0.0400
10750TIP3    H153741   2.591   1.792  12.239 -0.4012 -0.9541  0.9649
10750TIP3    H253742   2.613   1.880  12.360  0.5668  0.1851 -0.0180
10751TIP3   OH253743   4.916   1.915   1.249  0.3328  0.1129 -0.3759
10751TIP3    H153744   4.948   1.839   1.298 -1.2770 -0.1435  0.3232
10751TIP3    H253745   4.996   1.964   1.227  1.1939  0.0952  2.2516
10752TIP3   OH253746   3.020   4.800  16.866 -0.2996 -0.3916 -0.4488
10752TIP3    H153747   2.942   4.810  16.810 -0.6684 -2.8482 -0.4488
10752TIP3    H253748   3.006   4.718  16.913  1.1591  0.3811  1.4581
10753TIP3   OH253749   5.180   4.232   0.714  0.1711 -0.5846  0.2912
10753TIP3    H153750   5.094   4.236   0.756  0.5244 -0.2037  1.0007
10753TIP3    H253751   5.242   4.220   0.787  0.8355  0.5192 -0.0664
10754TIP3   OH253752   0.177   2.281   1.687  1.0519  0.3502  1.0309
10754TIP3    H153753   0.082   2.274   1.696  1.2971 -1.2457  2.8603
10754TIP3    H253754   0.208   2.190   1.683  2.3785  0.7883 -1.9400
10755TIP3   OH253755   1.470   5.986  15.229 -0.1891 -0.1800 -0.3778
10755TIP3    H153756   1.386   5.994  15.274  0.7784  1.3332  1.2856
10755TIP3    H253757   1.466   6.052  15.159 -0.3506 -0.0353 -0.2324
10756TIP3   OH253758   4.075   3.485  15.612  0.2746  0.0770  0.5055
10756TIP3    H153759   4.152   3.537  15.588  0.5888 -1.2030 -1.4547
10756TIP3    H253760   4.018   3.547  15.658  0.7933  2.1084 -1.3955
10757TIP3   OH253761   6.078   6.616   0.609 -0.5278  0.3404  0.0718
10757TIP3    H153762   6.079   6.557   0.533 -2.6305 -0.1364  0.3370
10757TIP3    H253763   6.090   6.703   0.571 -0.0758 -0.0236 -0.6458
10758TIP3   OH253764   1.364   5.458   0.797  0.3498  0.0317  0.1359
10758TIP3    H153765   1.381   5.388   0.733  0.0894 -0.6351  0.7816
10758TIP3    H253766   1.278   5.437   0.833 -0.9224  2.1078 -1.4681
10759TIP3   OH253767   0.313   0.354  11.483  0.0131 -0.0494 -0.5694
10759TIP3    H153768   0.246   0.315  11.539  0.0971  1.3475  0.5732
10759TIP3    H253769   0.363   0.411  11.542  0.7674  0.6715 -1.8664
10760TIP3   OH253770   6.234   0.493   4.942  0.0446  0.3419  0.5544
10760TIP3    H153771   6.197   0.453   5.020  2.3482 -3.8769 -0.1960
10760TIP3    H253772   6.319   0.527   4.970 -0.2484  1.2436  0.3786
10761TIP3   OH253773   0.496   6.329  16.485  0.5183 -0.5530  0.2042
10761TIP3    H153774   0.409   6.322  16.524  1.0510  0.8592  1.7487
10761TIP3    H253775   0.549   6.264  16.531  0.7946  0.1201  0.8616
10762TIP3   OH253776   4.067   1.109  17.057  0.3489  0.1370  0.2137
10762TIP3    H153777   4.131   1.073  17.118 -0.3552 -0.2029  0.7641
10762TIP3    H253778   3.986   1.113  17.107 -0.1383  0.2768 -0.5716
10763TIP3   OH253779   4.041   2.748  15.447  0.3905  0.1696 -0.4568
10763TIP3    H153780   4.082   2.816  15.501  1.2392 -1.1046  0.5473
10763TIP3    H253781   3.947   2.755  15.468  0.4825  0.9403 -0.2671
10764TIP3   OH253782   0.236   3.423   4.963  0.4061 -0.1852  0.2699
10764TIP3    H153783   0.241   3.488   4.893 -3.0567 -0.7759 -0.7253
10764TIP3    H253784   0.194   3.469   5.035 -1.5265 -1.0586 -0.2370
10765TIP3   OH253785   2.812   4.998   0.869 -0.3519  0.2940 -0.0238
10765TIP3    H153786   2.809   5.084   0.829  1.4635  0.7336  0.6663
10765TIP3    H253787   2.778   5.012   0.958  2.4824  1.0033  1.0720
10766TIP3   OH253788   5.046   2.843   5.173 -0.6266  0.2957  0.6440
10766TIP3    H153789   5.012   2.815   5.088 -1.7933  0.4828  1.0263
10766TIP3    H253790   5.123   2.896   5.152 -0.7490  0.1228 -0.2815
10767TIP3   OH253791   6.107   4.766   2.411 -0.1339 -0.5176  0.0784
10767TIP3    H153792   6.059   4.844   2.385 -3.1724 -1.5527  2.1411
10767TIP3    H253793   6.076   4.698   2.351 -0.3075 -0.9384  0.6453
10768TIP3   OH253794   5.757   2.582   1.856 -0.2136  0.4808  0.0325
10768TIP3    H153795   5.752   2.677   1.846  0.3804  0.6362  1.0881
10768TIP3    H253796   5.685   2.561   1.915  1.7520  0.7724  2.7200
10769TIP3   OH253797   0.390   1.310  11.517 -0.2621 -0.1550  0.5567
10769TIP3    H153798   0.449   1.379  11.547  0.6238  0.1456 -1.6506
10769TIP3    H253799   0.440   1.229  11.523 -0.0151 -0.0691 -0.1789
10770TIP3   OH253800   2.655   4.171   2.785 -0.4651  0.1176 -0.2088
10770TIP3    H153801   2.609   4.254   2.770 -1.9818 -0.8505 -1.1632
10770TIP3    H253802   2.655   4.127   2.700 -0.5904 -1.2813  0.4818
10771TIP3   OH253803   5.145   0.572   0.008 -0.4813 -0.1783  0.5978
10771TIP3    H153804   5.078   0.637   0.026 -0.6110  0.4091 -1.7113
10771TIP3    H253805   5.111   0.521  -0.065  0.9810 -0.7582  0.2767
10772TIP3   OH253806   6.243   0.068  15.353 -0.1110  0.3848 -0.3557
10772TIP3    H153807   6.306   0.130  15.391 -0.0589 -0.3972  0.8791
10772TIP3    H253808   6.297   0.008  15.301  0.0872  0.1150  0.1592
10773TIP3   OH253809   5.534   6.435  16.753 -0.4689  0.3029  0.0075
10773TIP3    H153810   5.541   6.530  16.743 -3.4987  0.5133 -1.4615
10773TIP3    H253811   5.443   6.415  16.730  0.1071 -2.9972  0.0142
10774TIP3   OH253812   1.137   4.606   3.211 -0.4993 -0.7251  0.1868
10774TIP3    H153813   1.053   4.572   3.178 -0.1035  0.4011 -2.1452
10774TIP3    H253814   1.172   4.534   3.264 -0.6359 -3.2808 -2.9015
10775TIP3   OH253815   3.354   1.110  13.970 -0.5436 -0.3825 -0.1510
10775TIP3    H153816   3.368   1.150  14.056 -1.1406  1.9394 -1.0647
10775TIP3    H253817   3.441   1.077  13.945 -0.1085 -0.0121  0.8208
10776TIP3   OH253818   4.495   3.954  15.583  0.1794  0.8001 -0.0733
10776TIP3    H153819   4.494   3.896  15.659 -0.2395 -0.0939 -0.7445
10776TIP3    H253820   4.420   4.011  15.595 -0.4982 -0.0130 -0.3031
10777TIP3   OH253821   2.242   3.071  11.827  0.3480 -0.3455  0.2236
10777TIP3    H153822   2.271   2.980  11.837  1.0530 -0.2388 -0.6910
10777TIP3    H253823   2.304   3.122  11.878  1.1634 -0.2130 -0.8710
10778TIP3   OH253824   4.097   3.068  16.301 -0.2922 -0.1278 -0.3272
10778TIP3    H153825   4.079   3.097  16.391  2.3561 -0.8988  0.5361
10778TIP3    H253826   4.091   3.149  16.249  0.8151  0.8762  1.0140
10779TIP3   OH253827   3.360   3.296   2.342 -0.0731 -0.2284  0.3245
10779TIP3    H153828   3.445   3.252   2.349 -0.3317 -0.5320  1.7529
10779TIP3    H253829   3.358   3.357   2.416 -0.1792  1.4419 -0.9949
10780TIP3   OH253830   5.753   1.772   5.480 -0.2141 -0.8263  0.2815
10780TIP3    H153831   5.724   1.768   5.388  0.1864 -0.6320  0.1421
10780TIP3    H253832   5.829   1.831   5.478  0.7464 -2.0242  0.4964
10781TIP3   OH253833   2.800   1.545   5.057 -0.0740  0.5702  0.5475
10781TIP3    H153834   2.788   1.557   4.963  0.6680  1.0673  0.5034
10781TIP3    H253835   2.712   1.551   5.093 -0.5633 -1.1482 -0.2604
10782TIP3   OH253836   6.346   1.523  16.332 -0.6680  0.3380 -0.2710
10782TIP3    H153837   6.389   1.444  16.364 -0.3763  0.1376 -1.1477
10782TIP3    H253838   6.270   1.491  16.282  0.1409  0.5471 -1.6654
10783TIP3   OH253839   4.790   0.055  12.552 -0.4871 -0.0392 -0.3962
10783TIP3    H153840   4.711   0.107  12.544 -0.4019  0.4791  1.6443
10783TIP3    H253841   4.793   0.030  12.645  1.4748 -0.4592 -0.5375
10784TIP3   OH253842   1.307   2.542   0.887 -0.1757  0.3154 -0.3179
10784TIP3    H153843   1.393   2.577   0.912  0.5760 -0.0703 -2.2116
10784TIP3    H253844   1.271   2.508   0.969  2.2992 -1.2450  0.2394
10785TIP3   OH253845   0.143   2.603  17.130 -0.3073  0.1793 -0.7431
10785TIP3    H153846   0.051   2.603  17.157 -0.1868 -4.0441  0.3419
10785TIP3    H253847   0.192   2.585  17.210  0.9246 -2.8613 -2.0388
10786TIP3   OH253848   5.777   1.480  12.979  0.4089  0.0388  0.5153
10786TIP3    H153849   5.733   1.565  12.991 -0.1254 -0.1304 -0.1647
10786TIP3    H253850   5.859   1.489  13.027 -0.8010 -0.0016  2.7304
10787TIP3   OH253851   2.562   3.899  12.310 -0.0228 -0.6070 -0.1205
10787TIP3    H153852   2.581   3.980  12.357 -0.5453  0.3493 -1.4785
10787TIP3    H253853   2.544   3.927  12.220  0.2846 -2.2928 -0.7450
10788TIP3   OH253854   2.539   6.527   4.235  0.3706 -0.5357 -0.5415
10788TIP3    H153855   2.493   6.456   4.191 -0.6205 -1.9733  2.5681
10788TIP3    H253856   2.493   6.606   4.208 -0.1488 -1.3168 -2.0609
10789TIP3   OH253857   0.333   1.825  13.790 -0.5818  0.3221  0.4828
10789TIP3    H153858   0.331   1.742  13.744 -0.0419  0.5117  0.0985
10789TIP3    H253859   0.357   1.803  13.880  1.4835  0.2073 -0.0410
10790TIP3   OH253860   1.582   3.631   1.561 -0.1940 -0.2383 -0.3785
10790TIP3    H153861   1.590   3.726   1.561  0.1501 -0.2650  0.0408
10790TIP3    H253862   1.601   3.605   1.651 -0.3346 -0.7005 -0.4803
10791TIP3   OH253863   0.249   6.776   3.866  0.2974  0.1925  0.0264
10791TIP3    H153864   0.275   6.803   3.778 -1.2099  1.0283 -0.1933
10791TIP3    H253865   0.283   6.845   3.923  1.0266 -0.2036  0.0858
10792TIP3   OH253866   0.795   2.554   3.663 -0.1208 -0.6860 -0.0005
10792TIP3    H153867   0.842   2.637   3.652  0.1064 -0.9023 -0.7763
10792TIP3    H253868   0.865   2.489   3.673 -0.2357 -1.0264 -1.2684
10793TIP3   OH253869   4.279   0.308   0.875 -0.0655 -0.0190 -0.4518
10793TIP3    H153870   4.239   0.366   0.810  1.1726  0.9022 -0.4159
10793TIP3    H253871   4.248   0.220   0.850 -1.2975  0.5430 -0.9943
10794TIP3   OH253872   1.025   1.979  11.816  0.1788  0.3237 -0.1419
10794TIP3    H153873   0.933   2.002  11.806 -0.2805 -0.5084  1.6317
10794TIP3    H253874   1.073   2.058  11.792 -0.8778  0.3012 -2.6127
10795TIP3   OH253875   3.354   1.575   3.013  0.3630  0.0242 -0.2290
10795TIP3    H153876   3.434   1.527   2.994  1.0383  1.0304 -0.0573
10795TIP3    H253877   3.379   1.637   3.082 -0.5573  0.3671 -0.1763
10796TIP3   OH253878   4.968   1.711  12.060  0.1978 -0.1732 -0.0467
10796TIP3    H153879   4.885   1.760  12.063  1.0710  1.3206  1.1445
10796TIP3    H253880   4.993   1.711  11.968 -1.0021 -0.4667 -0.3981
10797TIP3   OH253881   0.461   5.460   0.179 -0.3056 -0.2069  0.3718
10797TIP3    H153882   0.487   5.397   0.245  3.6515  0.2782 -0.4900
10797TIP3    H253883   0.431   5.536   0.228 -1.6152 -1.3473  1.4386
10798TIP3   OH253884   0.502   3.679  14.810  0.0380  0.1836  0.3381
10798TIP3    H153885   0.571   3.735  14.774  0.1836  1.0460  1.8454
10798TIP3    H253886   0.493   3.608  14.747  2.1293  0.1774 -0.0374
10799TIP3   OH253887   3.029   4.325   5.832  0.0306 -0.1469  0.0509
10799TIP3    H153888   2.974   4.318   5.910  1.6128 -0.4013  1.1812
10799TIP3    H253889   3.119   4.327   5.865  0.8162 -1.3802 -1.8013
10800TIP3   OH253890   6.504   0.756   4.968 -0.8464  0.0362 -0.2472
10800TIP3    H153891   6.506   0.769   5.063 -0.1117  0.9935 -0.3757
10800TIP3    H253892   6.503   0.661   4.956 -1.2645 -0.0916  0.7162
10801TIP3   OH253893   4.913   2.540  12.821  0.5619  0.2539  0.2484
10801TIP3    H153894   4.963   2.494  12.889 -1.1207 -0.5141  1.0318
10801TIP3    H253895   4.866   2.609  12.868 -0.4739 -0.1695 -0.1417
10802TIP3   OH253896   0.792   4.330  11.378 -0.0853 -0.0572  0.0840
10802TIP3    H153897   0.781   4.248  11.427  0.8496  1.4946  3.1133
10802TIP3    H253898   0.748   4.313  11.295 -1.2723 -3.1091  1.1675
10803TIP3   OH253899   0.915   5.480   1.568  0.2120 -0.4714 -0.0904
10803TIP3    H153900   0.947   5.562   1.531 -0.6852 -0.1959 -0.2810
10803TIP3    H253901   0.989   5.446   1.617  0.5865  0.4807  0.0363
10804TIP3   OH253902   2.236   6.501  12.151  0.0797  0.0469  0.3838
10804TIP3    H153903   2.237   6.439  12.078  0.1886  0.2576  0.2066
10804TIP3    H253904   2.307   6.471  12.208 -1.0766 -1.1493  1.2769
10805TIP3   OH253905   1.015   1.032   0.097  0.1574  0.3266 -0.7092
10805TIP3    H153906   1.089   1.091   0.082 -0.2406  0.2001 -3.8295
10805TIP3    H253907   1.051   0.945   0.084 -0.3305  0.2154 -1.3520
10806TIP3   OH253908   6.004   6.261  12.138  0.2462  0.0884 -0.5352
10806TIP3    H153909   6.016   6.167  12.145 -0.1112  0.1034  0.4906
10806TIP3    H253910   6.049   6.286  12.058 -0.1230 -1.0354 -1.1096
10807TIP3   OH253911   1.566   2.172  13.541  0.0491 -0.2176 -0.2171
10807TIP3    H153912   1.479   2.211  13.539  0.1675  0.2008  1.3213
10807TIP3    H253913   1.625   2.247  13.554  0.6794 -0.4622 -1.5545
10808TIP3   OH253914   6.200   2.023  14.839 -0.0999 -0.3126  0.1238
10808TIP3    H153915   6.214   1.937  14.801 -1.6737 -0.9301  0.8757
10808TIP3    H253916   6.216   2.012  14.933 -1.1512 -0.0111  0.3537
10809TIP3   OH253917   3.364   6.346   2.038  0.5400  0.1114  0.0012
10809TIP3    H153918   3.374   6.396   1.957  2.5480 -2.2461 -1.3566
10809TIP3    H253919   3.287   6.291   2.023  1.9405 -1.6372 -1.1729
10810TIP3   OH253920   0.665   6.026   2.358  0.0067  0.2337  0.2894
10810TIP3    H153921   0.755   5.994   2.363  2.6920  6.5080  2.3429
10810TIP3    H253922   0.661   6.072   2.274 -1.3195  0.0017  0.2095
10811TIP3   OH253923   2.804   6.522  11.481  0.8823 -0.1944 -0.0789
10811TIP3    H153924   2.791   6.597  11.539 -1.1542 -0.2594 -0.3831
10811TIP3    H253925   2.785   6.555  11.394 -2.2824 -1.5036  0.0126
10812TIP3   OH253926   6.390   1.676  14.687  0.2777  0.5662 -0.4693
10812TIP3    H153927   6.407   1.748  14.627  1.5678 -0.9329 -2.0015
10812TIP3    H253928   6.419   1.598  14.640 -0.9178 -0.9551  1.1853
10813TIP3   OH253929   2.723   2.139   3.534  0.6189 -0.0176 -0.0344
10813TIP3    H153930   2.704   2.058   3.487  1.9697 -1.1721  1.2986
10813TIP3    H253931   2.793   2.180   3.483  1.3043 -0.7038  0.3305
10814TIP3   OH253932   6.294   4.984   1.729 -0.4319 -0.0324 -0.0161
10814TIP3    H153933   6.290   4.909   1.670 -0.6678  1.1308 -1.5436
10814TIP3    H253934   6.265   4.949   1.814 -1.4110 -1.4590 -0.8894
10815TIP3   OH253935   1.210   4.097  16.918 -0.1580 -0.2519 -0.2506
10815TIP3    H153936   1.263   4.173  16.940 -1.5239  0.8229 -0.5176
10815TIP3    H253937   1.186   4.110  16.826 -0.4347 -0.9984 -0.2960
10816TIP3   OH253938   5.205   3.349  11.906  0.4829  0.1961  0.3931
10816TIP3    H153939   5.245   3.288  11.968  0.7087  0.6518  0.6985
10816TIP3    H253940   5.223   3.435  11.942  3.0040  0.6448 -1.6741
10817TIP3   OH253941   2.399   3.549  16.013  0.0164  0.4177  0.3380
10817TIP3    H153942   2.408   3.508  15.927 -0.6101 -0.8428  0.8587
10817TIP3    H253943   2.487   3.542  16.052  0.1760  0.5377 -0.0003
10818TIP3   OH253944   3.581   4.314   1.424  0.5586 -0.1938 -0.2370
10818TIP3    H153945   3.537   4.278   1.346 -0.0495  2.7974 -1.3926
10818TIP3    H253946   3.672   4.289   1.413  0.3821 -0.3290 -1.6178
10819TIP3   OH253947   1.597   2.488   5.680  0.3004 -0.3908 -0.0611
10819TIP3    H153948   1.604   2.580   5.654  1.6740 -0.3440  0.3934
10819TIP3    H253949   1.648   2.440   5.616  1.2732 -0.5906  0.8269
10820TIP3   OH253950   4.047   0.209   2.266 -0.6997 -0.1593  0.9269
10820TIP3    H153951   4.141   0.192   2.260 -0.4251  1.1512  1.1659
10820TIP3    H253952   4.040   0.284   2.324 -1.8538  0.1382  0.4354
10821TIP3   OH253953   4.883   6.606   0.014 -0.1953 -0.4092  0.0284
10821TIP3    H153954   4.792   6.578   0.004 -0.5318 -0.1225  1.9544
10821TIP3    H253955   4.931   6.556  -0.053 -1.5616 -1.5977 -0.1121
10822TIP3   OH253956   3.104   4.637  12.709  0.8521 -0.0282  0.3359
10822TIP3    H153957   3.162   4.574  12.666  0.3566 -0.6045  0.4991
10822TIP3    H253958   3.103   4.713  12.651 -1.4228 -1.5266 -1.7867
10823TIP3   OH253959   5.139   3.965   0.035 -0.3756  0.3683 -1.0029
10823TIP3    H153960   5.098   3.972   0.121  0.4339  2.1502 -0.7188
10823TIP3    H253961   5.127   4.051  -0.005  2.8696  0.9779 -0.9503
10824TIP3   OH253962   2.584   1.907  14.871 -0.6149  0.3080 -0.1094
10824TIP3    H153963   2.664   1.882  14.825 -0.2643  2.5256 -0.8142
10824TIP3    H253964   2.582   1.850  14.948  1.8434  0.4192  0.1127
10825TIP3   OH253965   3.475   1.993  11.833  0.5803  0.7264  0.0885
10825TIP3    H153966   3.417   2.069  11.837  1.0165  1.1909 -1.7034
10825TIP3    H253967   3.452   1.949  11.751 -1.1280 -2.3218  2.0424
10826TIP3   OH253968   5.959   0.592  11.190  0.3355  0.6244  0.1022
10826TIP3    H153969   5.919   0.578  11.104  2.3512 -3.3813 -0.3982
10826TIP3    H253970   6.037   0.644  11.171  1.7296 -1.7054 -0.9062
10827TIP3   OH253971   6.164   0.935   6.579 -0.3731  0.0830  0.1470
10827TIP3    H153972   6.253   0.902   6.564 -0.6352 -0.0100 -1.4355
10827TIP3    H253973   6.132   0.956   6.491 -2.4881 -1.3701  0.5087
10828TIP3   OH253974   4.804   6.495  13.801 -0.3279  0.3389  0.2457
10828TIP3    H153975   4.817   6.580  13.759 -0.2186  0.8195  1.2355
10828TIP3    H253976   4.802   6.432  13.728  0.1947  1.1120 -0.4491
10829TIP3   OH253977   2.754   2.982   1.960 -0.0204 -0.5946  0.3353
10829TIP3    H153978   2.795   2.898   1.979  0.5927 -0.2880  0.3779
10829TIP3    H253979   2.815   3.026   1.901  1.8852  1.6276  3.6319
10830TIP3   OH253980   2.951   4.186   0.441  0.0766 -0.0283  0.0570
10830TIP3    H153981   2.929   4.134   0.363  1.9271  0.2625 -0.7001
10830TIP3    H253982   3.014   4.133   0.489  0.8690  0.8580  0.0314
10831TIP3   OH253983   0.437   3.436  15.084  0.5511  0.3312 -0.6037
10831TIP3    H153984   0.410   3.346  15.066 -2.6801  0.8646  0.7733
10831TIP3    H253985   0.458   3.437  15.177  0.0702  1.0851 -0.4943
10832TIP3   OH253986   5.982   3.115   5.073 -0.5140 -0.2170  0.0136
10832TIP3    H153987   6.058   3.082   5.025  0.7401  1.3564  0.8418
10832TIP3    H253988   5.990   3.076   5.160 -2.1075 -2.0661 -0.5721
10833TIP3   OH253989   2.829   6.431   2.350 -0.2260  0.3109  0.2393
10833TIP3    H153990   2.764   6.495   2.320 -0.1970 -0.2285 -1.0279
10833TIP3    H253991   2.913   6.470   2.324 -0.2422 -0.5388 -1.2050
10834TIP3   OH253992   1.033   6.495  13.283  0.1861 -0.4462 -0.0213
10834TIP3    H153993   0.942   6.525  13.282  0.4769  0.4778 -0.6511
10834TIP3    H253994   1.047   6.462  13.371 -0.9981 -1.3646 -0.1559
10835TIP3   OH253995   1.901   5.781  15.011 -0.4336  0.0069  0.4475
10835TIP3    H153996   1.835   5.761  14.945 -0.8293 -2.0681  1.3788
10835TIP3    H253997   1.903   5.877  15.016  1.0236  0.4188 -3.9181
10836TIP3   OH253998   1.006   4.916  12.433  0.5408  0.2250 -0.3442
10836TIP3    H153999   1.048   4.830  12.430 -0.4598 -0.2687 -0.5225
10836TIP3    H254000   0.961   4.924  12.349 -1.4150 -0.1488  0.6233
10837TIP3   OH254001   2.596   3.051  15.467  0.1044 -0.8665  0.4871
10837TIP3    H154002   2.621   3.125  15.412 -1.4946 -0.3133  0.4751
10837TIP3    H254003   2.668   2.988  15.457 -0.0643 -0.7212 -2.1278
10838TIP3   OH254004   4.651   2.635   1.222  0.1606  0.2050  0.3693
10838TIP3    H154005   4.617   2.607   1.137  1.4033 -0.7686  0.1498
10838TIP3    H254006   4.624   2.566   1.282  1.0131 -0.1593  0.3477
10839TIP3   OH254007   4.840   1.604   0.128 -0.2513  0.6901 -0.1740
10839TIP3    H154008   4.785   1.528   0.148 -0.9768  1.8141  2.6656
10839TIP3    H254009   4.919   1.590   0.181  0.6002  0.8798 -1.3578
10840TIP3   OH254010   4.609   5.043  15.424 -0.4423 -0.7700  0.4618
10840TIP3    H154011   4.694   5.053  15.381 -1.3823  0.0181 -1.3562
10840TIP3    H254012   4.579   4.956  15.399  0.1944 -1.4169  1.8636
10841TIP3   OH254013   0.456   6.316  14.443  0.6653  0.0440 -0.2967
10841TIP3    H154014   0.533   6.368  14.420  0.6958 -0.2265 -0.8130
10841TIP3    H254015   0.476   6.228  14.411  0.7487 -0.3790  0.8432
10842TIP3   OH254016   0.042   3.780   0.959 -0.1981  0.2925 -0.6732
10842TIP3    H154017   0.134   3.786   0.984 -0.3351 -0.6246  0.1451
10842TIP3    H254018   0.041   3.719   0.885 -0.2048 -0.1965 -0.2756
10843TIP3   OH254019   5.118   6.626   1.182 -0.2799 -0.0471 -0.0184
10843TIP3    H154020   5.106   6.677   1.102  2.1258  2.1906  0.8932
10843TIP3    H254021   5.212   6.604   1.183 -0.0688  0.6821  2.5121
10844TIP3   OH254022   0.759   6.603  16.279  0.3301 -0.1666  0.2244
10844TIP3    H154023   0.841   6.652  16.287  0.5250 -0.1192 -1.6186
10844TIP3    H254024   0.715   6.615  16.363  2.0674  0.0621  1.1346
10845TIP3   OH254025   0.785   5.666  15.396  0.1115  1.0268 -0.2191
10845TIP3    H154026   0.757   5.734  15.335 -3.5784  1.8848  2.0797
10845TIP3    H254027   0.785   5.586  15.344 -1.9446  1.8430 -1.6209
10846TIP3   OH254028   0.583   3.990  14.814 -0.0303  0.3235 -0.4630
10846TIP3    H154029   0.641   4.018  14.743  0.0110 -0.9894 -0.9833
10846TIP3    H254030   0.635   4.001  14.893  0.0678  1.4299 -0.6652
10847TIP3   OH254031   1.772   6.763  13.207 -0.6678 -0.1167  0.2317
10847TIP3    H154032   1.750   6.853  13.182  1.1109  0.2962  0.0423
10847TIP3    H254033   1.779   6.767  13.303  2.5119  0.7790  0.0682
10848TIP3   OH254034   2.154   0.353   1.470 -0.4633 -0.2807  0.1026
10848TIP3    H154035   2.211   0.352   1.393  0.3813  2.0681  0.6178
10848TIP3    H254036   2.092   0.424   1.453 -0.4355  0.0956  1.4530
10849TIP3   OH254037   3.056   2.570   3.080  0.0498  0.0594 -0.0417
10849TIP3    H154038   3.044   2.576   2.985  0.8118 -0.3760 -0.1695
10849TIP3    H254039   3.032   2.480   3.101 -0.8144  0.3536  0.2958
10850TIP3   OH254040   1.995   6.826  16.807  0.2524 -0.0348 -0.5223
10850TIP3    H154041   1.917   6.845  16.756  0.4680  0.4726 -0.6742
10850TIP3    H254042   2.068   6.851  16.750  0.5096 -0.0902 -0.2199
10851TIP3   OH254043   2.985   5.295   1.894 -0.2687  0.2451  0.1503
10851TIP3    H154044   2.896   5.308   1.862 -0.2567 -3.4621 -1.9216
10851TIP3    H254045   3.041   5.319   1.820  0.1552 -1.7499 -0.2205
10852TIP3   OH254046   5.404   3.131  15.547 -0.2778 -0.3757 -0.0443
10852TIP3    H154047   5.432   3.137  15.455  0.7290 -2.2243  0.0829
10852TIP3    H254048   5.442   3.049  15.578 -2.5760 -1.0155  1.3570
10853TIP3   OH254049   4.009   5.010   3.785 -0.5327  0.3507  0.0617
10853TIP3    H154050   3.915   5.011   3.804 -0.4881  0.4137  0.2793
10853TIP3    H254051   4.045   5.082   3.837 -0.2614 -0.1080  0.5072
10854TIP3   OH254052   1.254   6.709   2.521  0.1508 -0.1602  0.1881
10854TIP3    H154053   1.344   6.704   2.488  0.2656  1.0760  0.2858
10854TIP3    H254054   1.201   6.676   2.449  0.5279  1.0306 -0.6742
10855TIP3   OH254055   3.297   4.820  15.320 -0.3173  0.3717  0.1404
10855TIP3    H154056   3.203   4.828  15.303 -0.7137  0.2042  2.0586
10855TIP3    H254057   3.304   4.762  15.395  1.5683 -2.6951 -2.1348
10856TIP3   OH254058   2.705   1.133   2.567  0.0258 -0.0089  0.0133
10856TIP3    H154059   2.711   1.095   2.654 -0.7845  0.4013  0.2625
10856TIP3    H254060   2.613   1.158   2.558  0.3131  0.8986 -0.5595
10857TIP3   OH254061   4.150   2.561   2.804  0.4119  0.1216  0.1812
10857TIP3    H154062   4.165   2.581   2.711  0.4060 -0.5989  0.0122
10857TIP3    H254063   4.229   2.514   2.831  0.1864 -0.1474  0.3859
10858TIP3   OH254064   0.383   3.713  14.343 -0.0708 -0.1710  0.2663
10858TIP3    H154065   0.383   3.710  14.248 -1.0850 -0.9418  0.2793
10858TIP3    H254066   0.310   3.769  14.366  0.0971 -0.0829  0.5979
10859TIP3   OH254067   5.341   0.816  16.253  0.5409  0.3342 -0.1680
10859TIP3    H154068   5.325   0.723  16.237 -1.2013  0.0948  2.2549
10859TIP3    H254069   5.380   0.849  16.172 -0.7594 -2.0407 -1.8818
10860TIP3   OH254070   5.245   2.891  15.752  0.6191 -0.1920  0.1580
10860TIP3    H154071   5.178   2.954  15.727 -0.9219 -0.7354  2.6024
10860TIP3    H254072   5.266   2.845  15.670 -0.5802  1.2850 -1.0373
10861TIP3   OH254073   0.026   1.670  16.054 -0.1882 -0.0505  0.3843
10861TIP3    H154074  -0.002   1.701  15.968  0.7484  2.0127  0.7868
10861TIP3    H254075  -0.041   1.605  16.078 -0.8406 -0.1764 -1.5720
10862TIP3   OH254076   2.870   0.726   1.948 -0.6099  0.1509 -0.2520
10862TIP3    H154077   2.850   0.730   2.042  0.9156  1.4617  0.0595
10862TIP3    H254078   2.813   0.792   1.908 -0.8473 -0.0103 -0.1871
10863TIP3   OH254079   5.306   2.809  13.368 -0.0017 -0.1585  0.3092
10863TIP3    H154080   5.388   2.851  13.393 -1.5454  2.2504  1.6332
10863TIP3    H254081   5.287   2.748  13.439 -0.2743  0.6553  0.9433
10864TIP3   OH254082   3.662   5.537  13.513 -0.1708  0.6667  0.0740
10864TIP3    H154083   3.701   5.562  13.597  2.1830 -0.7532 -0.5075
10864TIP3    H254084   3.605   5.463  13.534 -0.3445  0.9299  0.5479
10865TIP3   OH254085   4.169   4.067  11.487 -0.0421 -0.0603  0.2528
10865TIP3    H154086   4.154   4.069  11.581  1.2936 -0.4260  0.4912
10865TIP3    H254087   4.081   4.068  11.449 -0.6346 -1.0253  1.5152
10866TIP3   OH254088   3.659   1.623   3.496 -0.3538  0.0390 -0.1836
10866TIP3    H154089   3.583   1.667   3.536  0.3477 -1.4208  3.1339
10866TIP3    H254090   3.732   1.683   3.513 -0.4721  0.7676 -2.0654
10867TIP3   OH254091   5.601   3.350   2.166 -0.0327 -0.1424 -0.1013
10867TIP3    H154092   5.562   3.390   2.088 -3.1965  0.2086  1.4966
10867TIP3    H254093   5.596   3.418   2.233  1.1010 -0.9702  0.8655
10868TIP3   OH254094   0.994   4.678  16.533  0.0234  0.2088 -0.1491
10868TIP3    H154095   1.027   4.707  16.618 -0.5443  2.2923 -0.5740
10868TIP3    H254096   0.961   4.758  16.492 -0.7745 -0.9399 -1.8618
10869TIP3   OH254097   5.787   0.617   4.640 -0.0647  0.2136  0.0533
10869TIP3    H154098   5.881   0.627   4.622 -0.3030  1.9924 -0.3977
10869TIP3    H254099   5.748   0.606   4.553 -0.2362 -1.1981  0.2853
10870TIP3   OH254100   4.870   1.166  14.554 -0.1789  0.1069  0.1038
10870TIP3    H154101   4.863   1.199  14.644  1.3590 -0.7983  0.5953
10870TIP3    H254102   4.799   1.103  14.546 -0.9927  0.9705  0.3116
10871TIP3   OH254103   5.391   0.924  16.507  0.2379  0.3295 -0.0930
10871TIP3    H154104   5.346   0.848  16.545 -0.6855  0.8766 -0.0706
10871TIP3    H254105   5.391   0.907  16.413  0.2410  0.1901 -0.0679
10872TIP3   OH254106   2.333   5.970   1.224  0.0683 -0.0064  0.2777
10872TIP3    H154107   2.306   5.945   1.312  0.8226 -0.2820  0.4402
10872TIP3    H254108   2.378   5.892   1.190 -0.3351  0.0454 -0.4043
10873TIP3   OH254109   4.461   5.132   2.039  0.0387 -0.2385  0.0795
10873TIP3    H154110   4.493   5.181   1.963 -0.9836  0.7978  0.2934
10873TIP3    H254111   4.502   5.174   2.114  0.3335 -0.6799  0.1678
10874TIP3   OH254112   5.745   2.101  17.102 -0.0293 -0.0111  0.2443
10874TIP3    H154113   5.694   2.172  17.141 -0.1991 -0.2092  0.3904
10874TIP3    H254114   5.743   2.118  17.008  0.5337  0.5717  0.3314
10875TIP3   OH254115   0.634   1.320  17.107  0.0838  0.4253 -0.0697
10875TIP3    H154116   0.653   1.226  17.113  0.5778  0.2796 -2.6911
10875TIP3    H254117   0.707   1.362  17.153  0.8737 -0.4541 -0.4792
10876TIP3   OH254118   1.171   0.881   0.425 -0.0755  0.4922  0.4353
10876TIP3    H154119   1.200   0.970   0.447  0.8439  0.2736  0.1231
10876TIP3    H254120   1.234   0.823   0.468 -0.2208  0.0018 -0.0009
10877TIP3   OH254121   3.643   6.375   4.945  0.1997  0.3543  0.2060
10877TIP3    H154122   3.670   6.341   5.030 -0.6700 -1.1767 -0.0774
10877TIP3    H254123   3.547   6.374   4.948  0.1518  1.3466 -0.4064
10878TIP3   OH254124   1.501   4.076  15.854 -0.2945 -0.2576  0.1734
10878TIP3    H154125   1.498   4.149  15.793 -0.6100  0.6630  1.2567
10878TIP3    H254126   1.409   4.060  15.876 -0.0651  1.4791  2.7471
10879TIP3   OH254127   1.859   2.957   1.385 -0.2364 -0.4653  0.3294
10879TIP3    H154128   1.810   2.883   1.419 -2.0379 -0.0947 -1.2989
10879TIP3    H254129   1.836   2.962   1.292  1.9988  0.4706 -0.2607
10880TIP3   OH254130   0.680   2.402  14.008  0.5762  0.1513 -0.4808
10880TIP3    H154131   0.590   2.436  14.009  0.9790  1.3088 -1.2538
10880TIP3    H254132   0.715   2.426  14.093  0.2449 -0.0363 -0.2891
10881TIP3   OH254133   5.512   4.958   3.582  0.2279  0.3148 -0.2791
10881TIP3    H154134   5.515   5.025   3.651 -0.2320 -1.8743  2.0150
10881TIP3    H254135   5.602   4.928   3.574  0.0722 -0.3819  0.4235
10882TIP3   OH254136   2.419   5.739  14.958 -0.1689 -0.2313 -0.1923
10882TIP3    H154137   2.449   5.823  14.922  1.2298 -0.1812  0.9959
10882TIP3    H254138   2.335   5.759  14.999  0.9367  1.0657  1.6345
10883TIP3   OH254139   1.686   1.208   0.909 -0.0557  0.5348  0.3036
10883TIP3    H154140   1.616   1.265   0.878 -1.2970 -0.9095  0.2938
10883TIP3    H254141   1.718   1.163   0.831 -0.0506  0.2192  0.4829
10884TIP3   OH254142   4.888   2.399  16.109  0.3669  0.0426 -0.2094
10884TIP3    H154143   4.805   2.387  16.063  0.9848  0.1046 -1.3829
10884TIP3    H254144   4.863   2.416  16.200 -0.8697 -0.6612 -0.3943
10885TIP3   OH254145   1.927   3.712   5.756  0.1432  0.1840  0.2622
10885TIP3    H154146   1.979   3.632   5.765 -1.4990 -0.9117  0.4498
10885TIP3    H254147   1.913   3.721   5.662 -2.3577 -1.6391  0.3600
10886TIP3   OH254148   6.663   6.172   1.728 -0.5271 -0.0985 -0.1345
10886TIP3    H154149   6.625   6.173   1.815 -0.7312 -0.2922 -0.2203
10886TIP3    H254150   6.758   6.176   1.743 -0.4856 -1.5132  0.1585
10887TIP3   OH254151   2.489   5.679  15.575 -0.5575  0.5514 -0.2625
10887TIP3    H154152   2.409   5.727  15.598 -0.7044  0.3429 -0.3430
10887TIP3    H254153   2.474   5.648  15.486 -1.1756 -1.1102  0.3769
10888TIP3   OH254154   4.760   5.042   3.160  0.9008 -0.5949  0.5328
10888TIP3    H154155   4.677   4.994   3.167  1.1651 -0.8802  2.4067
10888TIP3    H254156   4.818   4.997   3.222  1.9108  0.6699  0.5438
10889TIP3   OH254157   4.825   5.844   2.891  0.2840  0.3636 -0.1593
10889TIP3    H154158   4.743   5.796   2.891  0.2019  0.4641  1.5835
10889TIP3    H254159   4.799   5.936   2.895  0.4277  0.7238 -3.7738
10890TIP3   OH254160   4.693   2.789  14.911  0.2675  0.4672  0.1101
10890TIP3    H154161   4.647   2.705  14.904 -1.3704  0.9520  3.3321
10890TIP3    H254162   4.786   2.765  14.911 -0.1000 -1.1171 -0.7105
10891TIP3   OH254163   3.449   0.263  16.989 -0.4258 -0.3574 -0.0233
10891TIP3    H154164   3.427   0.325  16.920 -1.0627 -1.5202 -0.9095
10891TIP3    H254165   3.512   0.204  16.949  2.4714  1.3557  1.6933
10892TIP3   OH254166   0.656   2.695   2.427 -0.3483 -0.0711  0.1208
10892TIP3    H154167   0.725   2.634   2.452 -0.7293 -0.6329 -0.1968
10892TIP3    H254168   0.701   2.763   2.377 -0.1016 -0.7187 -0.5542
10893TIP3   OH254169   4.238   1.227  13.463  0.6061 -0.3623 -0.4715
10893TIP3    H154170   4.320   1.224  13.513 -0.5453 -0.5141  1.5315
10893TIP3    H254171   4.190   1.149  13.492 -0.5785  0.1545 -0.9907
10894TIP3   OH254172   1.176   0.453   3.152 -0.3770  0.6006 -0.0730
10894TIP3    H154173   1.124   0.486   3.078  0.1000 -1.9388 -1.6489
10894TIP3    H254174   1.121   0.385   3.192  0.5299 -0.0595  0.0865
10895TIP3   OH254175   0.504   6.524  13.750 -0.0969  0.2001 -0.0437
10895TIP3    H154176   0.417   6.484  13.746  0.7332 -1.6025 -1.5415
10895TIP3    H254177   0.518   6.560  13.662  1.2504 -0.9262 -0.3314
10896TIP3   OH254178   6.568   5.472   2.844 -0.4597 -0.2507  0.3493
10896TIP3    H154179   6.588   5.502   2.755  1.6971  0.7341  1.1027
10896TIP3    H254180   6.505   5.400   2.831 -0.1308 -0.2045 -1.9651
10897TIP3   OH254181   3.031   3.256  15.706  0.9494  0.2429 -0.1560
10897TIP3    H154182   3.005   3.316  15.775  0.7417  0.8215 -0.7282
10897TIP3    H254183   2.957   3.197  15.696  1.6041 -0.8715  1.2068
10898TIP3   OH254184   3.031   2.736  13.862  0.4931 -0.3265  0.6254
10898TIP3    H154185   2.936   2.722  13.858  0.6226 -0.9682 -1.7355
10898TIP3    H254186   3.041   2.818  13.910 -1.1504 -0.9238  2.0995
10899TIP3   OH254187   4.450   2.682  15.653  0.1096 -0.0912 -0.4074
10899TIP3    H154188   4.385   2.626  15.611 -0.2411 -0.0150  0.0196
10899TIP3    H254189   4.426   2.680  15.746  2.4667 -2.4622  0.2530
10900TIP3   OH254190   5.843   0.666   6.058 -0.2671  0.0558  0.6736
10900TIP3    H154191   5.761   0.715   6.069  0.3808  1.5582 -0.6375
10900TIP3    H254192   5.908   0.718   6.106  0.3048  0.1008 -0.1345
10901TIP3   OH254193   0.042   1.374  11.195  0.7472  0.1930  0.5611
10901TIP3    H154194  -0.044   1.376  11.153  1.2339  4.3131 -0.6996
10901TIP3    H254195   0.103   1.359  11.123  1.2314 -0.0349  1.0166
10902TIP3   OH254196   0.546   3.248  11.817 -0.1218 -0.1856 -0.1196
10902TIP3    H154197   0.620   3.266  11.875  0.4726 -1.3284 -0.4773
10902TIP3    H254198   0.586   3.207  11.740 -1.0326  0.0704 -0.7454
10903TIP3   OH254199   6.220   1.233   1.595  0.2832  0.4355 -0.0262
10903TIP3    H154200   6.257   1.239   1.683  0.1659  1.4542 -0.0354
10903TIP3    H254201   6.288   1.190   1.543  1.1199  1.5156  0.1488
10904TIP3   OH254202   0.614   1.250   5.123 -0.1291 -0.4782  0.2252
10904TIP3    H154203   0.546   1.231   5.058  1.0548 -1.2614 -0.8386
10904TIP3    H254204   0.569   1.241   5.207 -1.2622 -1.3240 -0.4300
10905TIP3   OH254205   1.944   2.676   0.037 -0.1218  0.3500 -0.4999
10905TIP3    H154206   1.880   2.724   0.088  0.0122  0.2479 -0.2332
10905TIP3    H254207   1.893   2.627  -0.027 -0.2811  0.5776 -0.5472
10906TIP3   OH254208   6.118   5.226   0.943  0.1823 -0.3534  0.1952
10906TIP3    H154209   6.147   5.293   1.006  0.7529 -0.4253  0.0156
10906TIP3    H254210   6.099   5.149   0.996  1.2528 -0.6078  0.2275
10907TIP3   OH254211   0.627   4.893   2.105 -0.3441 -0.5531  0.5757
10907TIP3    H154212   0.625   4.955   2.179  1.4146 -1.6133  1.5814
10907TIP3    H254213   0.559   4.829   2.126 -2.4647  1.1309 -0.6713
10908TIP3   OH254214   0.223   6.243  16.377  0.1749 -0.0518 -0.1374
10908TIP3    H154215   0.185   6.165  16.416  0.8410 -0.0016  0.6336
10908TIP3    H254216   0.222   6.226  16.282  2.5174 -2.0656  0.0932
10909TIP3   OH254217   6.147   0.031   2.619 -0.2263  0.2727  0.7456
10909TIP3    H154218   6.154   0.105   2.680  1.0127  1.0059 -0.2342
10909TIP3    H254219   6.238   0.011   2.596 -0.6697  0.4719 -1.3537
10910TIP3   OH254220   3.871   0.184  11.952  0.2721 -0.0843  0.5953
10910TIP3    H154221   3.832   0.099  11.933  0.3564 -0.1386  0.6694
10910TIP3    H254222   3.814   0.222  12.019  0.2885 -0.1214  0.6301
10911TIP3   OH254223   5.623   5.284  15.428 -0.7115  0.3271  0.1227
10911TIP3    H154224   5.629   5.198  15.386  2.0873  0.4638  0.0163
10911TIP3    H254225   5.619   5.346  15.355  1.3612  0.4212  0.0228
10912TIP3   OH254226   4.432   4.532  13.407 -0.3345 -0.2607 -0.1370
10912TIP3    H154227   4.465   4.560  13.493 -1.8611 -0.9956  0.7441
10912TIP3    H254228   4.489   4.576  13.344 -0.3652  1.8855  1.2150
10913TIP3   OH254229   0.947   6.146   4.583  0.3277  0.1919  0.4646
10913TIP3    H154230   1.026   6.175   4.536  0.3704  0.9182  0.9618
10913TIP3    H254231   0.918   6.069   4.535  1.3836 -0.1310  0.3144
10914TIP3   OH254232   4.264   5.277   3.416  0.4821  0.5705  0.4240
10914TIP3    H154233   4.331   5.320   3.363  1.8039 -0.4320  1.2277
10914TIP3    H254234   4.203   5.241   3.352  0.8269  1.2928 -0.3309
10915TIP3   OH254235   0.510   4.605  15.635 -0.5602 -0.2777  0.5506
10915TIP3    H154236   0.478   4.630  15.721 -0.1459 -0.5214  0.7784
10915TIP3    H254237   0.553   4.521  15.649  1.1930  0.5550  0.4966
10916TIP3   OH254238   1.687   4.448  11.437  0.2936 -0.2028 -0.3246
10916TIP3    H154239   1.691   4.365  11.485  2.2810 -0.6968 -1.2481
10916TIP3    H254240   1.738   4.509  11.490 -0.9886  0.4125  0.2446
10917TIP3   OH254241   3.892   4.802  11.656 -0.2339 -0.4266  0.2243
10917TIP3    H154242   3.926   4.890  11.643  0.0931 -0.4226  1.0545
10917TIP3    H254243   3.966   4.744  11.639 -0.8077 -0.6501 -1.7617
10918TIP3   OH254244   1.727   3.367  16.688 -0.5587 -0.3491 -0.4747
10918TIP3    H154245   1.809   3.344  16.645 -0.6148 -0.2825 -0.6153
10918TIP3    H254246   1.661   3.361  16.620 -0.7587 -0.9591 -0.2366
10919TIP3   OH254247   6.658   0.586  14.722  0.7419 -0.0707 -0.2989
10919TIP3    H154248   6.699   0.547  14.645  0.9035 -1.5038  0.4947
10919TIP3    H254249   6.601   0.518  14.757  1.2660  0.2676  1.3052
10920TIP3   OH254250   2.990   2.907   1.688  0.1220  0.3357  0.3350
10920TIP3    H154251   3.065   2.893   1.746 -0.1922  1.4191  1.0361
10920TIP3    H254252   3.004   2.994   1.651  0.5895 -0.5502 -1.6786
10921TIP3   OH254253   1.003   2.394  13.233 -0.2669 -0.8273 -0.0976
10921TIP3    H154254   0.955   2.457  13.285  1.2137  0.5299 -0.2729
10921TIP3    H254255   0.943   2.370  13.162 -1.5012 -1.0324  0.9917
10922TIP3   OH254256   2.931   2.073  14.091 -0.0294 -0.0110  0.3336
10922TIP3    H154257   2.837   2.063  14.106  0.1947 -0.6511  1.4377
10922TIP3    H254258   2.970   2.066  14.179  0.9656  1.3059  0.0183
10923TIP3   OH254259   1.209   2.042   5.244  0.2779 -0.3195 -0.2703
10923TIP3    H154260   1.260   2.036   5.325  1.0234 -0.8051 -0.7705
10923TIP3    H254261   1.120   2.062   5.273  0.3002 -1.6080  0.7290
10924TIP3   OH254262   0.337   3.923   4.969 -0.4486  0.1220  0.3851
10924TIP3    H154263   0.364   4.013   4.988 -0.2755  0.4208 -1.0924
10924TIP3    H254264   0.285   3.930   4.889  1.7010 -1.3283 -1.2832
10925TIP3   OH254265   3.965   2.049  13.204  0.1146  0.5394 -0.1141
10925TIP3    H154266   4.025   1.976  13.216 -0.2351  0.3609  0.6338
10925TIP3    H254267   3.989   2.087  13.120  1.6134  0.7864  0.3904
10926TIP3   OH254268   4.737   6.243   5.785  0.2747  0.3718 -0.1874
10926TIP3    H154269   4.683   6.237   5.864 -0.2097  0.7448 -0.4873
10926TIP3    H254270   4.827   6.242   5.818  0.1123 -0.7824  0.2882
10927TIP3   OH254271   0.244   1.789   5.256  0.2290 -0.1822  0.0322
10927TIP3    H154272   0.229   1.814   5.165 -1.9081 -0.4483  0.2723
10927TIP3    H254273   0.260   1.872   5.301 -0.4027  0.1215 -0.2940
10928TIP3   OH254274   6.827   0.976  13.164  0.0625 -0.4306  0.3351
10928TIP3    H154275   6.820   1.043  13.232 -0.4171 -0.2014  0.0640
10928TIP3    H254276   6.889   0.913  13.199  0.4411  0.1025  0.6399
10929TIP3   OH254277   2.288   6.255  12.024  0.3715  0.0170 -0.1527
10929TIP3    H154278   2.256   6.179  12.073  2.4381 -1.0657 -0.3880
10929TIP3    H254279   2.235   6.256  11.944 -0.0227 -0.8643  0.0830
10930TIP3   OH254280   0.501   1.782   2.817  0.5757  0.6230 -0.0678
10930TIP3    H154281   0.508   1.779   2.912 -0.3288 -0.2002 -0.0073
10930TIP3    H254282   0.533   1.869   2.792  1.1102  0.7257  0.9528
10931TIP3   OH254283   3.490   1.573  12.878 -0.2701 -0.2109 -0.6374
10931TIP3    H154284   3.438   1.530  12.946 -0.5813  0.1046 -0.6762
10931TIP3    H254285   3.553   1.626  12.927 -2.0857  1.9937 -0.5479
10932TIP3   OH254286   6.656   2.507  11.561 -0.2281 -0.4236 -0.3051
10932TIP3    H154287   6.644   2.506  11.656  0.2042 -3.3319 -0.1959
10932TIP3    H254288   6.725   2.442  11.545  0.0615  0.3513 -2.5920
10933TIP3   OH254289   6.240   6.544   1.085 -0.0958  0.0933  0.7827
10933TIP3    H154290   6.214   6.532   0.994  0.8090  0.4862  0.4589
10933TIP3    H254291   6.179   6.490   1.135  0.4400 -1.4860 -0.1846
10934TIP3   OH254292   3.837   3.844   4.764 -0.0868  1.0931 -0.1781
10934TIP3    H154293   3.796   3.765   4.728 -1.5446  1.6568  0.1461
10934TIP3    H254294   3.881   3.814   4.843 -0.7474  0.6009  0.0184
10935TIP3   OH254295   0.021   3.794   4.510  0.4970 -0.4687  0.1409
10935TIP3    H154296  -0.020   3.877   4.484  1.6754 -0.0246 -0.3850
10935TIP3    H254297   0.108   3.797   4.470  1.4930 -0.8536  2.1602
10936TIP3   OH254298   1.079   6.097   5.600 -0.3810  0.1396 -0.0070
10936TIP3    H154299   1.115   6.089   5.688 -1.6462  0.8117  0.5910
10936TIP3    H254300   0.994   6.139   5.612 -1.8162 -2.1513 -1.2562
10937TIP3   OH254301   0.662   4.609   4.529  0.0895 -0.2837 -0.0633
10937TIP3    H154302   0.714   4.665   4.470  2.7085 -2.4631 -0.0283
10937TIP3    H254303   0.651   4.527   4.480 -3.2172 -0.0501  0.0717
10938TIP3   OH254304   5.088   3.302  12.944  0.0638  0.4296  0.3095
10938TIP3    H154305   5.100   3.285  13.037 -3.4220 -0.1965  0.8100
10938TIP3    H254306   5.056   3.392  12.940  2.1095  1.1842 -0.5801
10939TIP3   OH254307   0.192   2.210  15.891 -0.4672 -0.0111  0.5140
10939TIP3    H154308   0.221   2.164  15.812  0.1867  0.4836  0.4599
10939TIP3    H254309   0.230   2.159  15.963  0.4992  0.5967  0.4447
10940TIP3   OH254310   0.641   5.267  15.787 -0.3019 -0.3381  0.2711
10940TIP3    H154311   0.685   5.262  15.702  0.7857  0.7159  0.7467
10940TIP3    H254312   0.619   5.176  15.808 -1.6638 -0.5075 -1.6668
10941TIP3   OH254313   6.241   6.186  14.746 -0.0579 -0.6968  0.0675
10941TIP3    H154314   6.180   6.254  14.774 -1.5273 -0.9013 -2.3806
10941TIP3    H254315   6.304   6.231  14.690 -0.7295 -1.2146 -1.1390
10942TIP3   OH254316   0.770   4.846  15.589 -0.5190  0.4986  0.1313
10942TIP3    H154317   0.747   4.762  15.630 -2.8944  1.4037  0.8108
10942TIP3    H254318   0.813   4.896  15.658 -1.1298  0.6368  0.4216
10943TIP3   OH254319   5.786   0.325  14.946  0.0187  0.1490  0.2153
10943TIP3    H154320   5.841   0.380  15.001 -0.6173 -0.0587  1.0788
10943TIP3    H254321   5.706   0.376  14.933 -0.4917 -0.4799  0.8504
10944TIP3   OH254322   3.454   3.188  14.042 -0.2780  0.0082 -0.2335
10944TIP3    H154323   3.546   3.162  14.035  0.3454  1.0999  2.6694
10944TIP3    H254324   3.406   3.117  14.000  1.8048 -1.0799 -0.9280
10945TIP3   OH254325   4.381   3.928   4.004 -0.0950  0.0926 -0.3702
10945TIP3    H154326   4.286   3.929   4.016 -0.3144  1.5357 -1.8762
10945TIP3    H254327   4.394   3.887   3.918  0.4655  1.7591 -1.1262
10946TIP3   OH254328   3.180   1.400  13.994 -0.1100 -0.8434 -0.0856
10946TIP3    H154329   3.195   1.358  14.079  1.5603 -2.3916 -1.0854
10946TIP3    H254330   3.172   1.328  13.932  0.2438  0.2726 -1.4861
10947TIP3   OH254331   0.847   5.765  15.136 -0.3346  0.4952  0.1878
10947TIP3    H154332   0.942   5.766  15.138 -0.3255 -0.3357  0.6088
10947TIP3    H254333   0.824   5.804  15.051  0.5121 -3.0501 -1.8928
10948TIP3   OH254334   1.923   4.535  12.084  0.1315  0.0337 -0.0932
10948TIP3    H154335   2.015   4.517  12.069  0.0823 -1.0962  0.7791
10948TIP3    H254336   1.880   4.449  12.079 -0.7818  0.4654  0.0572
10949TIP3   OH254337   3.513   0.020  16.031 -0.0907  0.0137 -0.1125
10949TIP3    H154338   3.607   0.033  16.049 -0.8376  2.0619  3.2520
10949TIP3    H254339   3.491   0.089  15.969  1.0511 -2.3231 -3.3909
10950TIP3   OH254340   6.677   0.486  13.670  0.1455  0.5037 -0.2967
10950TIP3    H154341   6.748   0.431  13.701  0.7645  0.6795 -1.3621
10950TIP3    H254342   6.599   0.431  13.676  0.9582 -1.0613 -2.6808
10951TIP3   OH254343   0.113   4.206   0.230  0.0827  0.2111  0.0314
10951TIP3    H154344   0.078   4.186   0.316  1.6992  0.1769  0.7155
10951TIP3    H254345   0.105   4.302   0.223 -1.1946  0.0934 -0.3230
10952TIP3   OH254346   0.394   6.173   3.674 -0.1540 -0.3291  0.4272
10952TIP3    H154347   0.400   6.165   3.579  1.6801 -2.9302  0.6708
10952TIP3    H254348   0.319   6.119   3.698 -1.1472  1.0012  0.4641
10953TIP3   OH254349   3.916   6.463  16.273 -0.2101  0.7075  0.0128
10953TIP3    H154350   3.829   6.492  16.247  0.0180  1.2569 -0.1479
10953TIP3    H254351   3.928   6.499  16.361 -0.1919  0.5327  0.0825
10954TIP3   OH254352   1.396   0.833   4.605  0.3377 -0.1426 -0.0678
10954TIP3    H154353   1.344   0.753   4.593  0.1478  0.0922 -0.8490
10954TIP3    H254354   1.353   0.879   4.676 -1.8011  1.0426 -2.0136
10955TIP3   OH254355   2.703   1.801  17.079 -0.3244 -0.3921 -0.2123
10955TIP3    H154356   2.744   1.720  17.050  0.3515  0.0178 -0.4424
10955TIP3    H254357   2.734   1.812  17.169  0.5651  0.2162 -0.5780
10956TIP3   OH254358   5.873   5.198   3.850  0.0699 -0.3664  0.1121
10956TIP3    H154359   5.948   5.140   3.863 -1.1680 -1.8901  1.0251
10956TIP3    H254360   5.830   5.201   3.936  0.2665  2.2618  0.1908
10957TIP3   OH254361   4.940   1.310   4.666  0.1222 -0.1022  0.1917
10957TIP3    H154362   5.025   1.332   4.627  0.3595  0.4008  0.9798
10957TIP3    H254363   4.879   1.369   4.622  0.4696  0.8317  0.9176
10958TIP3   OH254364   0.577   1.826   1.103  0.0568 -0.8223 -0.3309
10958TIP3    H154365   0.489   1.796   1.129  0.3631 -1.6518 -0.2079
10958TIP3    H254366   0.603   1.888   1.171 -0.1068 -1.1975  0.0798
10959TIP3   OH254367   5.977   6.666  13.694 -0.2601 -0.1969 -0.0709
10959TIP3    H154368   6.041   6.722  13.738 -2.0625  1.4720  0.5308
10959TIP3    H254369   5.950   6.716  13.617 -0.6933 -0.9838 -0.4445
10960TIP3   OH254370   2.628   1.975  16.843  0.2543 -0.2969  0.0045
10960TIP3    H154371   2.565   1.928  16.789  1.0825 -2.0314  0.4535
10960TIP3    H254372   2.642   1.917  16.919  1.3395  0.6815  0.5851
10961TIP3   OH254373   6.333   0.865  16.335  0.2673 -0.2529 -0.6428
10961TIP3    H154374   6.298   0.778  16.319 -1.3545  0.3925 -0.8222
10961TIP3    H254375   6.424   0.861  16.304  0.6279 -2.2063  0.4910
10962TIP3   OH254376   0.540   0.071  14.766  0.3044  0.1780 -0.4254
10962TIP3    H154377   0.532   0.119  14.683  0.2213 -0.9035 -1.0573
10962TIP3    H254378   0.450   0.064  14.797  0.4385  1.5796  0.3584
10963TIP3   OH254379   4.462   4.928   2.867 -0.5975 -0.0085 -0.2599
10963TIP3    H154380   4.407   5.003   2.888 -0.9392 -0.3850  0.2095
10963TIP3    H254381   4.442   4.864   2.935  2.5035  0.8643  1.6953
10964TIP3   OH254382   0.020   5.629  15.560  0.6523  0.0889 -0.0701
10964TIP3    H154383   0.053   5.612  15.648  3.0492 -0.4022 -0.9911
10964TIP3    H254384  -0.050   5.565  15.549  2.9009 -2.6320  0.1501
10965TIP3   OH254385   2.187   5.632   5.543  0.1129  0.3820  0.2137
10965TIP3    H154386   2.264   5.593   5.502  0.1095  0.2205  0.3637
10965TIP3    H254387   2.144   5.680   5.472 -0.8519 -1.3323 -0.4184
10966TIP3   OH254388   4.369   3.185   5.658  0.2917  0.4860  0.1566
10966TIP3    H154389   4.313   3.115   5.624  0.3976  0.3967  0.1679
10966TIP3    H254390   4.418   3.144   5.730  1.6756  0.0786 -0.9813
10967TIP3   OH254391   5.189   6.774   5.223  0.2258 -0.2828  0.5863
10967TIP3    H154392   5.207   6.847   5.282 -1.6136  0.4733  0.2994
10967TIP3    H254393   5.132   6.716   5.274 -0.4515 -0.1837 -0.0330
10968TIP3   OH254394   1.387   2.162  14.559 -0.2175 -0.3743  0.9830
10968TIP3    H154395   1.454   2.221  14.593 -0.8668  0.3891  0.9736
10968TIP3    H254396   1.352   2.119  14.637  0.0204 -0.4957  1.0249
10969TIP3   OH254397   0.300   0.769  11.851 -0.0806  0.0977 -0.5166
10969TIP3    H154398   0.339   0.851  11.882  2.9115 -1.6520  0.7598
10969TIP3    H254399   0.212   0.769  11.887 -0.2125  2.7424 -0.6242
10970TIP3   OH254400   3.282   1.205  16.256 -0.1866  0.4331  0.0422
10970TIP3    H154401   3.341   1.213  16.331 -0.5808 -0.4774  0.4695
10970TIP3    H254402   3.325   1.254  16.186  0.4611  0.8317  0.7030
10971TIP3   OH254403   5.238   3.298  14.743  0.3174 -0.1421 -0.3817
10971TIP3    H154404   5.162   3.241  14.759 -0.1976  0.7413  0.4349
10971TIP3    H254405   5.270   3.320  14.831 -0.0136  1.5021 -0.6381
10972TIP3   OH254406   4.930   1.674  16.588  0.2030 -0.5739 -0.1917
10972TIP3    H154407   4.936   1.659  16.682  0.0094 -1.0665 -0.2530
10972TIP3    H254408   4.951   1.589  16.549  0.5393 -0.3083 -0.6028
10973TIP3   OH254409   4.956   6.076   5.860 -0.2553 -0.2769  0.3612
10973TIP3    H154410   4.887   6.078   5.927 -1.0378 -0.5039 -0.4221
10973TIP3    H254411   5.014   6.006   5.888  0.2452  0.5867  1.5866
10974TIP3   OH254412   0.635   4.349  15.629  0.1550  0.6094 -0.4099
10974TIP3    H154413   0.707   4.299  15.667  0.8644  0.4007 -1.9682
10974TIP3    H254414   0.586   4.285  15.577 -2.1921  0.3517  1.8621
10975TIP3   OH254415   4.187   3.434   0.318 -0.3198  0.0131  0.5238
10975TIP3    H154416   4.211   3.393   0.235  2.3685  0.0553  1.1862
10975TIP3    H254417   4.129   3.371   0.360 -0.4437 -0.7255 -0.7127
10976TIP3   OH254418   1.042   3.621   1.228  0.2422  0.0844 -0.3416
10976TIP3    H154419   1.011   3.705   1.195  1.9927  1.1916  0.6863
10976TIP3    H254420   1.104   3.591   1.161 -0.3505 -0.3958 -0.6884
10977TIP3   OH254421   5.265   5.466   4.197 -0.2654 -0.5819 -0.5650
10977TIP3    H154422   5.190   5.416   4.164 -0.9256  0.4140 -0.6043
10977TIP3    H254423   5.259   5.550   4.152  0.1953 -0.0620  0.3222
10978TIP3   OH254424   3.124   3.467   3.360  0.4836 -0.4543  0.1364
10978TIP3    H154425   3.134   3.378   3.395  0.6133 -0.2880  0.5316
10978TIP3    H254426   3.061   3.509   3.419 -2.2993 -1.3208 -2.0154
10979TIP3   OH254427   3.644   5.506   4.967 -0.2269  0.4140 -0.6069
10979TIP3    H154428   3.714   5.479   4.907  0.1370  1.1482 -0.5161
10979TIP3    H254429   3.681   5.577   5.018 -0.0773 -1.0522  1.4419
10980TIP3   OH254430   2.299   2.258  12.957  0.0172 -0.2827  0.3179
10980TIP3    H154431   2.335   2.311  13.028 -0.9322 -1.2590  1.5666
10980TIP3    H254432   2.215   2.227  12.990  0.3680 -2.2544 -0.5191
10981TIP3   OH254433   1.804   2.734  10.751 -0.3445 -0.2282  0.2017
10981TIP3    H154434   1.806   2.830  10.759 -1.2316 -0.2249  0.4471
10981TIP3    H254435   1.871   2.714  10.685 -0.6216  0.6045 -0.3449
10982TIP3   OH254436   3.162   1.009  11.881  0.1257  0.0432 -0.3062
10982TIP3    H154437   3.154   0.983  11.973  1.1687  1.6139  0.2796
10982TIP3    H254438   3.190   1.101  11.885 -1.6020  0.7201 -2.2150
10983TIP3   OH254439   0.382   5.829   1.171 -0.1663  0.2359  0.3169
10983TIP3    H154440   0.319   5.892   1.207 -0.2623  0.8474 -0.8466
10983TIP3    H254441   0.340   5.796   1.092  0.4788 -0.2354  0.1627
10984TIP3   OH254442   2.495   2.330  10.766 -0.1600  0.4262  0.0294
10984TIP3    H154443   2.447   2.345  10.685 -1.7004 -0.9757  0.6416
10984TIP3    H254444   2.468   2.401  10.824  1.9579  2.2153 -1.0505
10985TIP3   OH254445   5.012   0.581   6.644 -0.0492  0.7236  0.1803
10985TIP3    H154446   4.923   0.615   6.632  0.3992  1.5252 -1.0887
10985TIP3    H254447   5.068   0.658   6.644  0.6204  0.2613  1.4339
10986TIP3   OH254448   4.410   6.774   0.438 -0.5950  0.3682  0.5522
10986TIP3    H154449   4.378   6.801   0.352 -0.4366 -0.9398  0.0597
10986TIP3    H254450   4.331   6.746   0.485 -0.6503  0.8533  0.7570
10987TIP3   OH254451   1.057   5.679  16.444 -0.0068  0.0988  0.0706
10987TIP3    H154452   0.987   5.635  16.492 -1.0312  0.0443 -1.4061
10987TIP3    H254453   1.020   5.764  16.420  1.5377  1.3618  1.8732
10988TIP3   OH254454   6.145   0.275  13.866  0.1815 -0.2542 -0.0275
10988TIP3    H154455   6.118   0.214  13.935 -0.4294 -0.0231 -0.0480
10988TIP3    H254456   6.225   0.316  13.900  0.1855 -0.5364  0.3063
10989TIP3   OH254457   0.167   6.273  11.021  0.4754  0.8136 -0.3667
10989TIP3    H154458   0.170   6.298  11.113 -0.3844 -0.0187 -0.0965
10989TIP3    H254459   0.087   6.313  10.987  1.1258  1.6697 -0.9371
10990TIP3   OH254460   1.087   4.799   4.304  0.6073 -0.4020  0.0072
10990TIP3    H154461   1.107   4.814   4.397  2.5349 -0.0142 -0.4243
10990TIP3    H254462   1.109   4.882   4.261 -1.6040 -0.0953 -0.6619
10991TIP3   OH254463   3.488   4.202  15.999  0.1505  0.3215 -0.1632
10991TIP3    H154464   3.532   4.190  16.084 -1.6979 -0.0937  0.7905
10991TIP3    H254465   3.413   4.143  16.002  0.2748 -0.0234 -2.3052
10992TIP3   OH254466   1.700   0.959   5.767 -0.2849  0.5141 -0.6754
10992TIP3    H154467   1.782   0.953   5.717  0.9458 -0.4754  1.3093
10992TIP3    H254468   1.729   0.983   5.855 -2.0481 -0.8068  0.3150
10993TIP3   OH254469   1.354   1.692  14.067 -0.7053  0.0601  0.1768
10993TIP3    H154470   1.448   1.707  14.063 -0.7283  0.0110 -0.9018
10993TIP3    H254471   1.317   1.752  14.002 -1.2034 -1.3894 -0.9470
10994TIP3   OH254472   1.195   4.477  16.101  0.1249  0.4892  0.6722
10994TIP3    H154473   1.229   4.472  16.190  2.7337  1.1835 -0.1872
10994TIP3    H254474   1.230   4.559  16.067  0.6561 -0.5746 -1.5240
10995TIP3   OH254475   1.097   6.763   5.522  0.0511 -0.2231  0.1063
10995TIP3    H154476   1.166   6.774   5.457 -1.2991  0.8236 -1.2459
10995TIP3    H254477   1.017   6.753   5.471 -1.4008  2.7776  1.4970
10996TIP3   OH254478   6.587   2.879  12.610 -0.0856  0.3784  0.2908
10996TIP3    H154479   6.562   2.950  12.670 -0.5891 -0.6108  1.2869
10996TIP3    H254480   6.535   2.896  12.531 -1.0972  0.4615  0.9593
10997TIP3   OH254481   4.825   6.328   3.602  0.5476 -0.4361  0.0081
10997TIP3    H154482   4.864   6.255   3.555  0.7296 -0.0683 -0.4256
10997TIP3    H254483   4.859   6.406   3.557  1.4930 -0.0487  1.3464
10998TIP3   OH254484   6.685   4.013   1.750 -0.3513  0.1532 -0.3709
10998TIP3    H154485   6.690   3.933   1.802  0.5395  0.9079  0.7773
10998TIP3    H254486   6.672   4.082   1.815  2.1317  1.2943 -0.9691
10999TIP3   OH254487   6.272   2.218  16.020  0.2098  0.8364  0.0936
10999TIP3    H154488   6.306   2.144  15.969 -0.5132  0.7250 -0.2506
10999TIP3    H254489   6.349   2.271  16.039  0.7323  0.0362  0.2772
11000TIP3   OH254490   4.313   6.425   0.760 -0.0487  0.5638  0.2226
11000TIP3    H154491   4.325   6.486   0.833  2.0528  2.3687 -1.4949
11000TIP3    H254492   4.303   6.482   0.683  2.6081 -1.1992 -1.5644
11001TIP3   OH254493   5.481   2.135  15.039  0.0864  0.2869 -0.4953
11001TIP3    H154494   5.513   2.190  14.967  0.8332 -0.6814 -0.9344
11001TIP3    H254495   5.478   2.047  15.001 -1.3171  0.0466  0.1156
11002TIP3   OH254496   1.535   4.571  12.585  0.0199 -0.3461  0.3855
11002TIP3    H154497   1.599   4.631  12.623  0.6305 -1.2408  0.8166
11002TIP3    H254498   1.453   4.620  12.585  0.9131  1.2515 -1.2497
11003TIP3   OH254499   1.317   2.689  12.817 -0.0092  0.0642 -0.4112
11003TIP3    H154500   1.356   2.602  12.816  0.4485  0.2628 -0.3965
11003TIP3    H254501   1.366   2.736  12.885 -1.2308 -0.1025  0.6163
11004TIP3   OH254502   2.059   3.162   0.291 -0.0328 -0.2848 -0.2279
11004TIP3    H154503   2.117   3.177   0.365  0.3950  0.9231 -0.7801
11004TIP3    H254504   2.091   3.221   0.223 -0.6783 -1.0580 -1.2324
11005TIP3   OH254505   6.251   5.803   3.399 -0.1990 -0.1593  0.0225
11005TIP3    H154506   6.346   5.809   3.410 -0.2306 -0.5244  0.5046
11005TIP3    H254507   6.233   5.853   3.319  0.6536 -2.0109 -1.3776
11006TIP3   OH254508   4.786   3.154  16.201  0.2371  0.7468  0.0405
11006TIP3    H154509   4.829   3.083  16.249  0.0771  0.8483  0.3384
11006TIP3    H254510   4.857   3.213  16.177  0.2623  0.9503  0.5922
11007TIP3   OH254511   6.488   3.513  11.264  0.5490 -0.2225 -0.1676
11007TIP3    H154512   6.419   3.447  11.251  1.2559 -1.1706  0.7101
11007TIP3    H254513   6.503   3.514  11.358  0.7447  1.0248 -0.1939
11008TIP3   OH254514   5.068   4.560  15.769  0.0782  0.4100 -0.2276
11008TIP3    H154515   5.057   4.472  15.804 -0.3220  0.4770 -0.1820
11008TIP3    H254516   5.096   4.613  15.843  0.6718  0.2495 -0.3324
11009TIP3   OH254517   3.896   4.091   1.162  0.4319  0.0277  0.3818
11009TIP3    H154518   3.852   4.091   1.076  0.5980  1.9356  0.2387
11009TIP3    H254519   3.980   4.049   1.146 -0.4544 -1.7687  0.1766
11010TIP3   OH254520   4.510   0.246   2.928  0.3789  0.7529 -0.1124
11010TIP3    H154521   4.545   0.313   2.869  2.1261 -0.3917 -0.4327
11010TIP3    H254522   4.477   0.178   2.869  0.6751  0.3192  0.2252
11011TIP3   OH254523   5.763   2.611   4.117 -0.1041  0.2946  0.5621
11011TIP3    H154524   5.752   2.520   4.090  3.2658 -0.0008 -0.4096
11011TIP3    H254525   5.763   2.608   4.212 -0.6876 -0.6279  0.5448
11012TIP3   OH254526   6.532   1.122   0.643 -0.2713  0.4919  0.1864
11012TIP3    H154527   6.550   1.213   0.621  1.8631 -0.2863 -1.6120
11012TIP3    H254528   6.592   1.102   0.715 -0.4122  0.3531  0.2688
11013TIP3   OH254529   0.643   5.354   2.964  0.3719 -0.1935 -0.0883
11013TIP3    H154530   0.658   5.303   3.044  0.8532  0.0290 -0.0360
11013TIP3    H254531   0.566   5.407   2.984  0.9302  0.4144  0.5020
11014TIP3   OH254532   5.241   3.517   0.494  0.1382 -0.0763 -0.0152
11014TIP3    H154533   5.335   3.531   0.488 -0.0797  2.9852  1.8323
11014TIP3    H254534   5.229   3.426   0.467  3.4380 -0.2233 -1.4587
11015TIP3   OH254535   0.268   5.759  10.718  0.4826  0.3842  0.3995
11015TIP3    H154536   0.243   5.781  10.629  2.2019  0.9502  0.0194
11015TIP3    H254537   0.239   5.668  10.729 -2.0370  1.0818  0.2039
11016TIP3   OH254538   3.866   0.997   4.292  0.1836 -0.5969 -0.3406
11016TIP3    H154539   3.886   1.090   4.299 -0.8360 -0.1573 -2.6315
11016TIP3    H254540   3.829   0.975   4.378  0.7411  1.0122  0.3564
11017TIP3   OH254541   0.835   4.927  10.833  0.5680 -0.6666 -0.0893
11017TIP3    H154542   0.897   4.968  10.893  1.5697 -1.2192 -0.7097
11017TIP3    H254543   0.751   4.966  10.855  0.7731 -1.3301  2.1295
11018TIP3   OH254544   0.910   1.748   3.187  0.0878 -0.0477  0.0028
11018TIP3    H154545   0.885   1.814   3.252 -2.0649  0.2388 -1.0192
11018TIP3    H254546   0.830   1.697   3.173  0.3700  0.0912 -2.6184
11019TIP3   OH254547   2.021   4.860   1.091  0.0676 -0.0891  0.0792
11019TIP3    H154548   2.086   4.873   1.159  1.8069 -0.4519 -1.4254
11019TIP3    H254549   2.070   4.823   1.017 -1.5461  1.0723 -1.6821
11020TIP3   OH254550   4.790   1.336   1.357 -0.1479 -0.2282  0.4106
11020TIP3    H154551   4.801   1.249   1.318  0.1826 -0.6993  1.5330
11020TIP3    H254552   4.860   1.389   1.317  2.0664 -1.4423  2.4127
11021TIP3   OH254553   0.908   1.146  12.195 -0.9391 -0.9198 -0.3314
11021TIP3    H154554   0.819   1.153  12.160 -1.1884 -1.1524  0.2357
11021TIP3    H254555   0.946   1.070  12.150  0.3075  1.3078 -3.3687
11022TIP3   OH254556   2.377   2.844   5.325 -0.5541  0.5827  0.5330
11022TIP3    H154557   2.380   2.750   5.343 -1.0921 -0.2319 -2.8043
11022TIP3    H254558   2.466   2.875   5.343 -0.0181 -0.8482  0.5036
11023TIP3   OH254559   4.965   4.119   5.357 -0.7693 -0.5830 -0.4143
11023TIP3    H154560   5.032   4.098   5.293  0.3365  1.8386 -0.1518
11023TIP3    H254561   4.963   4.043   5.415  0.8372 -1.2522 -1.1743
11024TIP3   OH254562   4.153   4.747   2.621  0.0585 -0.3607  0.0553
11024TIP3    H154563   4.143   4.828   2.570  1.6275  0.1331  0.4947
11024TIP3    H254564   4.239   4.713   2.596  1.0420  0.0620  2.5539
11025TIP3   OH254565   3.103   6.439   4.012  0.1399 -0.3765 -0.0375
11025TIP3    H154566   3.196   6.454   3.995 -0.1645 -0.2453 -1.8109
11025TIP3    H254567   3.059   6.514   3.972 -0.7158 -0.0453  1.4333
11026TIP3   OH254568   1.209   1.737   1.925  0.2434  0.0347 -0.1650
11026TIP3    H154569   1.139   1.796   1.954 -0.4545 -1.6721  1.9264
11026TIP3    H254570   1.165   1.653   1.912  1.9372 -1.2896  1.9533
11027TIP3   OH254571   4.942   2.007  14.746 -0.0560  0.0022 -0.4746
11027TIP3    H154572   5.002   2.056  14.803 -0.7804  1.5716 -1.0034
11027TIP3    H254573   4.869   1.983  14.803 -0.3034  0.6918 -0.4835
11028TIP3   OH254574   4.517   0.247  12.513  0.5274  0.4300 -0.3535
11028TIP3    H154575   4.490   0.179  12.576 -0.8516 -0.5511 -1.9296
11028TIP3    H254576   4.587   0.294  12.558  0.4283 -1.0035  1.4351
11029TIP3   OH254577   4.997   4.573   1.450 -0.5486  0.2581 -0.1514
11029TIP3    H154578   4.951   4.566   1.366  2.2440 -0.3238 -1.7602
11029TIP3    H254579   4.989   4.665   1.474 -0.0443  0.8107 -1.9253
11030TIP3   OH254580   3.768   4.715   6.295  0.3001 -0.7212  0.1971
11030TIP3    H154581   3.776   4.639   6.353  0.7423 -1.3780 -0.7014
11030TIP3    H254582   3.721   4.780   6.347  1.4021 -0.9888  1.5940
11031TIP3   OH254583   5.777   2.863   1.818 -0.3705  0.4000 -0.0493
11031TIP3    H154584   5.865   2.884   1.849  0.3852 -2.0288 -0.3434
11031TIP3    H254585   5.726   2.855   1.899  0.7647 -2.4086  0.5123
11032TIP3   OH254586   1.898   0.121  14.866 -0.1482 -0.0674  0.4716
11032TIP3    H154587   1.804   0.111  14.886  0.1513 -1.1616  1.4014
11032TIP3    H254588   1.899   0.152  14.776 -1.4625  1.8823  1.0488
11033TIP3   OH254589   3.554   3.234  15.580  0.5174  0.0141  0.7476
11033TIP3    H154590   3.495   3.279  15.641  0.0951 -0.3257  0.5967
11033TIP3    H254591   3.497   3.207  15.507  0.8324 -0.4427  0.6656
11034TIP3   OH254592   6.568   0.143   2.351  0.3557  0.2418 -0.2101
11034TIP3    H154593   6.605   0.229   2.330 -1.7174  0.9922 -1.1186
11034TIP3    H254594   6.595   0.087   2.279  0.4161  0.5571 -0.4349
11035TIP3   OH254595   2.234   1.221   3.213  0.0378 -0.4971 -0.1546
11035TIP3    H154596   2.148   1.236   3.253 -1.3296 -1.2564 -2.5994
11035TIP3    H254597   2.251   1.128   3.226 -0.2254 -0.6621 -0.9604
11036TIP3   OH254598   4.763   0.274   1.858  0.3153 -0.1003  0.3432
11036TIP3    H154599   4.670   0.250   1.849  0.2721  0.1587  0.0716
11036TIP3    H254600   4.762   0.357   1.905  0.2873  0.9629 -1.4581
11037TIP3   OH254601   3.703   6.688  12.270  0.0273 -0.3673 -0.3508
11037TIP3    H154602   3.639   6.741  12.316  1.8524  0.5985  1.2377
11037TIP3    H254603   3.704   6.605  12.316 -0.0401 -0.3663 -0.3470
11038TIP3   OH254604   5.010   3.923   4.070 -0.5190  0.2106  0.0056
11038TIP3    H154605   4.936   3.983   4.071 -1.4249 -0.8636  0.6060
11038TIP3    H254606   5.049   3.934   3.984 -1.9088  0.1829 -0.6579
11039TIP3   OH254607   4.795   2.244  10.629 -0.7022 -0.4684 -0.6401
11039TIP3    H154608   4.811   2.206  10.542  0.3613  0.2594 -0.7768
11039TIP3    H254609   4.866   2.211  10.684  0.3110  1.3279 -0.7862
11040TIP3   OH254610   0.614   3.195   0.614 -0.4083 -0.3444 -0.2404
11040TIP3    H154611   0.527   3.231   0.633 -0.2107  0.3705 -0.6326
11040TIP3    H254612   0.655   3.184   0.700 -0.4562  0.4529 -0.1031
11041TIP3   OH254613   3.243   5.975  15.398 -0.2400  0.0925  0.0281
11041TIP3    H154614   3.306   5.996  15.467  0.0402  0.3528 -0.3033
11041TIP3    H254615   3.183   5.912  15.438 -0.1372  0.3164  0.5362
11042TIP3   OH254616   1.762   0.057  13.488 -0.4826  0.0307  0.5364
11042TIP3    H154617   1.769   0.152  13.501  1.4648 -0.2395  1.9101
11042TIP3    H254618   1.702   0.028  13.557  0.1376  0.1099  1.1275
11043TIP3   OH254619   5.751   6.056  12.107  0.3755  0.6840  0.3228
11043TIP3    H154620   5.840   6.073  12.140  0.2145 -0.4726  1.4414
11043TIP3    H254621   5.738   5.963  12.122 -1.2126  0.9375  0.6108
11044TIP3   OH254622   5.601   1.794  11.949 -0.1106  0.2212 -0.2479
11044TIP3    H154623   5.624   1.704  11.971 -2.6380 -0.3705  0.3506
11044TIP3    H254624   5.538   1.820  12.016  1.8554  3.1309  0.6416
11045TIP3   OH254625   6.049   2.901  13.584 -0.0876  0.2740 -0.6064
11045TIP3    H154626   5.994   2.975  13.559  0.4192  0.6672 -0.5419
11045TIP3    H254627   6.029   2.887  13.676  1.2967  1.6181 -0.0651
11046TIP3   OH254628   6.452   4.910   0.010 -0.1463  0.2967  0.0203
11046TIP3    H154629   6.433   4.835  -0.047  0.1601  0.3960 -0.2173
11046TIP3    H254630   6.456   4.985  -0.050 -2.9709  0.9838  0.5011
11047TIP3   OH254631   5.521   0.982  14.673  0.3347  0.3192  0.1271
11047TIP3    H154632   5.553   0.992  14.763 -0.4630  1.0146  0.3500
11047TIP3    H254633   5.598   0.956  14.623  0.7247 -0.3781  1.0664
11048TIP3   OH254634   1.947   6.268   5.877  0.2523  0.7135 -0.1439
11048TIP3    H154635   1.916   6.358   5.866  0.2088  0.4478 -2.5812
11048TIP3    H254636   2.000   6.251   5.799  0.1862 -1.4109  0.2272
11049TIP3   OH254637   0.687   5.687   4.836 -0.1323 -0.1486 -0.0631
11049TIP3    H154638   0.637   5.736   4.770 -0.7055 -1.4375 -0.6173
11049TIP3    H254639   0.621   5.648   4.893  0.2307 -1.5100 -0.5365
11050TIP3   OH254640   1.716   5.676   3.351  0.6938  0.7355  0.0052
11050TIP3    H154641   1.718   5.685   3.446  2.4093 -0.4490  0.1179
11050TIP3    H254642   1.805   5.696   3.322  0.7116 -0.7789 -1.1382
11051TIP3   OH254643   6.756   1.092   4.393 -0.3931  0.0692 -0.2433
11051TIP3    H154644   6.704   1.019   4.426  1.0553 -1.7121 -1.6529
11051TIP3    H254645   6.834   1.093   4.448  0.5995 -0.9330 -1.5527
11052TIP3   OH254646   3.118   1.401   3.273 -0.0982  0.0291 -0.0177
11052TIP3    H154647   3.130   1.432   3.184 -1.0299  0.0907 -0.1337
11052TIP3    H254648   3.166   1.319   3.277 -1.8981 -1.1467 -1.2703
11053TIP3   OH254649   1.192   1.564  16.998  0.1190 -0.7134 -0.6015
11053TIP3    H154650   1.220   1.484  17.043  3.5889 -0.1962 -1.4979
11053TIP3    H254651   1.200   1.543  16.905 -0.1814  0.2616 -0.8594
11054TIP3   OH254652   0.858   4.998  13.939  0.3976  1.1322  0.3997
11054TIP3    H154653   0.879   4.940  13.867  0.7398 -1.0693  2.1784
11054TIP3    H254654   0.881   5.086  13.907  1.3825  0.1295 -1.7991
11055TIP3   OH254655   4.844   0.756  13.756  0.5147  0.4364  0.5000
11055TIP3    H154656   4.872   0.848  13.756  1.2676  0.2100  0.3829
11055TIP3    H254657   4.925   0.706  13.748  0.0159 -0.2210 -0.6005
11056TIP3   OH254658   5.095   3.592   2.079 -0.1544  0.3089  0.9575
11056TIP3    H154659   5.153   3.516   2.067 -1.1771 -0.4570  0.6322
11056TIP3    H254660   5.033   3.564   2.146 -1.9204 -0.0466 -0.7175
11057TIP3   OH254661   2.512   1.871   2.621 -0.2529 -0.0961  0.8827
11057TIP3    H154662   2.539   1.903   2.707 -1.9444 -0.5736  1.6288
11057TIP3    H254663   2.529   1.777   2.623  1.4998  0.1616 -0.0487
11058TIP3   OH254664   3.548   4.089   5.784  0.0897  0.0308 -0.1695
11058TIP3    H154665   3.462   4.049   5.776  0.3276 -0.5708  0.2130
11058TIP3    H254666   3.562   4.099   5.878  0.7139 -0.4902 -0.1998
11059TIP3   OH254667   5.655   4.043  12.815  0.4501 -0.4053 -0.1900
11059TIP3    H154668   5.579   4.060  12.870  1.4668 -0.8184  1.4073
11059TIP3    H254669   5.677   3.952  12.832 -0.0818 -1.0316 -2.4756
11060TIP3   OH254670   2.162   2.117  13.178  0.2433 -0.2040  0.6359
11060TIP3    H154671   2.076   2.120  13.136  0.2189  1.2949  0.7375
11060TIP3    H254672   2.143   2.108  13.271 -0.0149  3.4223  1.0745
11061TIP3   OH254673   0.959   1.439  14.425  0.8563 -0.1712 -0.4909
11061TIP3    H154674   1.037   1.454  14.371  0.3641  1.9618 -0.6988
11061TIP3    H254675   0.896   1.504  14.395 -0.4094 -0.7391  0.8203
11062TIP3   OH254676   2.098   2.974  12.938 -0.4228 -0.0549 -0.1538
11062TIP3    H154677   2.108   3.031  13.014  1.3273  1.4672 -1.4208
11062TIP3    H254678   2.006   2.949  12.939 -1.3230  2.8471  0.5096
11063TIP3   OH254679   3.183   3.781  13.801 -0.8300 -0.2289 -0.0466
11063TIP3    H154680   3.103   3.792  13.853  0.3436  0.7441  1.6670
11063TIP3    H254681   3.152   3.761  13.713 -2.9510 -2.7325  1.1140
11064TIP3   OH254682   1.172   6.351  11.344 -0.4321 -0.1616  0.3805
11064TIP3    H154683   1.195   6.335  11.252 -1.0569 -0.9335  0.3503
11064TIP3    H254684   1.180   6.265  11.386 -1.4548 -0.0801  0.7538
11065TIP3   OH254685   4.273   0.274   0.485  0.0513  0.0250 -0.3576
11065TIP3    H154686   4.347   0.252   0.429 -0.4656 -0.5008 -0.8551
11065TIP3    H254687   4.252   0.365   0.462 -1.2798 -0.7239 -2.3684
11066TIP3   OH254688   2.133   1.812  13.263 -0.7290 -0.0140  0.1490
11066TIP3    H154689   2.149   1.862  13.183 -0.6454 -0.3503 -0.0480
11066TIP3    H254690   2.174   1.727  13.247 -1.9116 -0.5758 -0.0018
11067TIP3   OH254691   6.407   4.959  14.509 -0.0473  0.4746 -0.1921
11067TIP3    H154692   6.483   4.996  14.554 -0.7322 -0.3330  1.7585
11067TIP3    H254693   6.336   5.022  14.527 -0.2311  0.3735 -0.5466
11068TIP3   OH254694   4.458   6.484   2.182 -0.4113  0.2097  0.9619
11068TIP3    H154695   4.385   6.542   2.204 -0.7193  0.8436 -1.4446
11068TIP3    H254696   4.421   6.418   2.124  1.0339  1.2172 -1.2858
11069TIP3   OH254697   1.148   1.283   2.020 -0.3265 -0.0238  0.1811
11069TIP3    H154698   1.238   1.284   2.050 -0.8349 -0.3558  1.8180
11069TIP3    H254699   1.153   1.258   1.927  1.3611  1.7454 -0.2641
11070TIP3   OH254700   4.426   3.403  16.621 -0.6234  0.0770  0.8860
11070TIP3    H154701   4.401   3.495  16.611  0.0943  0.4665  2.4076
11070TIP3    H254702   4.516   3.406  16.655  0.4827 -1.2354 -1.6513
11071TIP3   OH254703   4.854   3.105   0.621 -0.2685 -0.1390  0.5355
11071TIP3    H154704   4.791   3.115   0.692 -1.7474 -0.8860 -0.6022
11071TIP3    H254705   4.804   3.064   0.550  0.5622  2.3830 -1.6897
11072TIP3   OH254706   4.041   4.324  13.109 -0.5628  0.3865 -0.2282
11072TIP3    H154707   3.967   4.379  13.133 -1.5365  0.0529 -2.2966
11072TIP3    H254708   4.007   4.265  13.042  1.4644 -0.0296 -0.9636
11073TIP3   OH254709   2.863   2.616   0.216  0.0640  0.5823  0.0799
11073TIP3    H154710   2.822   2.663   0.288 -2.6727  1.0603 -1.6524
11073TIP3    H254711   2.867   2.525   0.245  0.4361  0.9964  1.3873
11074TIP3   OH254712   2.866   4.920  14.913  0.3591 -0.1464 -0.0385
11074TIP3    H154713   2.891   4.924  14.820  0.1598  1.2501 -0.0484
11074TIP3    H254714   2.801   4.990  14.923 -0.0999 -0.7062  1.0199
11075TIP3   OH254715   4.223   5.146  14.260  0.1654  0.3693 -0.0465
11075TIP3    H154716   4.306   5.175  14.221  0.4331  0.4623  0.5776
11075TIP3    H254717   4.212   5.201  14.337  0.1649 -0.4823  0.5798
11076TIP3   OH254718   6.738   4.864   2.305 -0.1772 -0.1187  0.3656
11076TIP3    H154719   6.768   4.802   2.371 -0.9000 -3.5823 -2.2752
11076TIP3    H254720   6.819   4.899   2.267  0.2589 -0.1984  1.1885
11077TIP3   OH254721   1.911   5.845  11.206 -0.4547  0.5899  0.0783
11077TIP3    H154722   1.956   5.778  11.155 -1.8275  1.7729 -2.9392
11077TIP3    H254723   1.958   5.926  11.187 -0.7469  1.0076  1.0662
11078TIP3   OH254724   3.223   1.273  15.818  0.0698 -0.2226 -0.1035
11078TIP3    H154725   3.287   1.203  15.829  0.5657  0.4502  1.8134
11078TIP3    H254726   3.264   1.334  15.757 -0.9198 -2.1494 -2.8507
11079TIP3   OH254727   5.278   5.204   0.098 -0.5655 -0.3849  0.6585
11079TIP3    H154728   5.212   5.157   0.148 -1.3019 -0.1237 -0.0405
11079TIP3    H254729   5.248   5.295   0.099 -0.1164 -0.2330  0.4981
11080TIP3   OH254730   3.274   4.465  10.505  0.8642 -0.1258 -0.2159
11080TIP3    H154731   3.267   4.383  10.457 -0.9427  0.8131 -1.6415
11080TIP3    H254732   3.190   4.474  10.551  1.4241  0.4609  0.7418
11081TIP3   OH254733   2.788   2.913   4.512  0.2952 -0.0744  0.0653
11081TIP3    H154734   2.737   2.905   4.592 -1.1969  1.9908 -0.5820
11081TIP3    H254735   2.877   2.931   4.542 -0.1164  0.0211  1.2611
11082TIP3   OH254736   0.159   2.086   0.371  0.2950  0.1832  0.1503
11082TIP3    H154737   0.078   2.136   0.372 -0.0123 -0.3229  0.3403
11082TIP3    H254738   0.162   2.041   0.455  0.7547  0.1690  0.1328
11083TIP3   OH254739   3.535   2.476  15.929 -0.0010 -0.1130  0.6115
11083TIP3    H154740   3.548   2.564  15.894 -1.3372 -0.1278  0.0424
11083TIP3    H254741   3.623   2.449  15.956  1.0500  0.1129 -2.1918
11084TIP3   OH254742   0.617   5.779  14.505  0.1453  0.2770  0.2524
11084TIP3    H154743   0.711   5.779  14.486 -0.1125  0.7258 -1.1514
11084TIP3    H254744   0.611   5.814  14.594  1.2823  0.6968  0.1882
11085TIP3   OH254745   1.076   4.578  10.594 -0.2641 -0.3868 -0.1348
11085TIP3    H154746   1.131   4.650  10.625 -0.8246  0.1763 -0.4256
11085TIP3    H254747   1.111   4.501  10.638 -1.3552  0.4437  2.4130
11086TIP3   OH254748   2.727   3.000  17.183  0.2441 -0.1845  0.5862
11086TIP3    H154749   2.689   2.915  17.162  0.6526 -0.4164  0.7749
11086TIP3    H254750   2.698   3.018  17.272 -1.1991  0.6388 -0.0081
11087TIP3   OH254751   6.780   6.573  14.062  0.1827  0.5647 -0.1077
11087TIP3    H154752   6.788   6.550  14.155 -0.6749  2.4958  0.5169
11087TIP3    H254753   6.769   6.490  14.017 -2.2448 -0.3247  1.8709
11088TIP3   OH254754   6.245   5.277   1.197 -0.3614  0.3256 -0.0301
11088TIP3    H154755   6.160   5.290   1.240 -0.4857 -1.2085  0.2488
11088TIP3    H254756   6.286   5.207   1.247  0.2908 -0.2076 -1.2877
11089TIP3   OH254757   6.373   5.719  16.657  0.3177 -0.1240  0.1013
11089TIP3    H154758   6.313   5.675  16.597 -0.1434 -0.2724  0.6655
11089TIP3    H254759   6.354   5.812  16.645  0.2176 -0.1535  0.0243
11090TIP3   OH254760   4.967   1.642  14.682  0.1969 -0.7675  0.2250
11090TIP3    H154761   4.940   1.715  14.626  0.7255  0.1903  1.1819
11090TIP3    H254762   4.898   1.576  14.671  0.0350 -0.4003 -1.1445
11091TIP3   OH254763   4.112   4.982  13.774 -0.1371 -0.0929 -0.1898
11091TIP3    H154764   4.088   5.070  13.803 -0.5605  0.2146 -1.4045
11091TIP3    H254765   4.141   4.994  13.683 -0.2155 -1.2074 -0.3749
11092TIP3   OH254766   0.352   1.885   3.843 -0.1587 -0.1808  0.6873
11092TIP3    H154767   0.284   1.888   3.910 -0.5295 -0.1893  0.3190
11092TIP3    H254768   0.314   1.932   3.769  0.1607 -0.3625  0.4061
11093TIP3   OH254769   5.277   3.662  11.360  0.1010  0.1933  0.3068
11093TIP3    H154770   5.324   3.689  11.439 -0.0146  1.8181 -0.1411
11093TIP3    H254771   5.198   3.718  11.360 -0.0738 -0.0404 -0.7633
11094TIP3   OH254772   3.253   2.050  13.410  0.0682 -0.0402  0.3944
11094TIP3    H154773   3.281   2.004  13.489 -0.6368 -1.4396 -0.1351
11094TIP3    H254774   3.176   2.100  13.436  1.2612  1.4807  1.1506
11095TIP3   OH254775   0.020   0.126  15.077 -0.2930  0.0170  0.5016
11095TIP3    H154776  -0.002   0.168  14.994 -1.7030 -0.1555  0.7702
11095TIP3    H254777   0.019   0.032  15.058 -0.4838 -0.0184  0.6781
11096TIP3   OH254778   0.612   3.097  12.225  0.2887 -0.6951  0.0154
11096TIP3    H154779   0.702   3.107  12.257  0.0499  0.8034  0.3223
11096TIP3    H254780   0.571   3.035  12.285  0.4900  0.3759  1.3055
11097TIP3   OH254781   6.013   3.222  15.452 -0.4057 -0.0413 -0.3909
11097TIP3    H154782   5.951   3.268  15.509  0.2145 -0.4649  0.6546
11097TIP3    H254783   6.002   3.264  15.367 -1.5445  0.4337 -0.0339
11098TIP3   OH254784   0.509   2.979   6.059 -0.3443  0.4892  0.8135
11098TIP3    H154785   0.454   2.906   6.032  0.1425  0.2271  0.5181
11098TIP3    H254786   0.535   3.022   5.977 -1.7111  1.8065  1.0354
11099TIP3   OH254787   3.671   5.655  15.031  0.2031  0.0250 -0.6694
11099TIP3    H154788   3.641   5.740  14.998 -0.0932  1.0451  1.9669
11099TIP3    H254789   3.636   5.650  15.120  1.8985 -1.9753 -0.0329
11100TIP3   OH254790   3.859   4.664  11.916 -0.1346 -0.6655 -0.5158
11100TIP3    H154791   3.906   4.587  11.884 -1.3357 -1.4529 -0.4157
11100TIP3    H254792   3.836   4.713  11.837  0.5701 -0.4196 -0.5811
11101TIP3   OH254793   0.935   5.349   6.677  0.1507 -0.7004  0.7093
11101TIP3    H154794   0.985   5.309   6.749 -0.5121  0.6223  1.9610
11101TIP3    H254795   0.908   5.275   6.623  1.3307 -1.6673  1.3904
11102TIP3   OH254796   5.824   2.463   1.357  0.8446 -0.6967  0.0082
11102TIP3    H154797   5.910   2.431   1.384  1.0929  0.7370  1.0396
11102TIP3    H254798   5.762   2.395   1.386  1.5686 -1.4825 -0.2614
11103TIP3   OH254799   0.508   1.300   2.230  0.2827 -0.2083  0.1989
11103TIP3    H154800   0.469   1.246   2.299  0.9674  0.7521  1.3933
11103TIP3    H254801   0.549   1.237   2.171  2.1650 -1.0331  2.2242
11104TIP3   OH254802   6.198   1.188  12.341  0.2235  0.2100  0.2718
11104TIP3    H154803   6.218   1.273  12.301  0.3240  0.2608  0.4278
11104TIP3    H254804   6.244   1.191  12.425 -1.4433  0.8391  1.2039
11105TIP3   OH254805   2.966   1.751  16.236 -0.2564  0.3747 -0.1302
11105TIP3    H154806   3.032   1.772  16.171 -0.3547 -2.6770 -1.3766
11105TIP3    H254807   3.017   1.723  16.313 -0.1088  0.0539 -0.3428
11106TIP3   OH254808   4.262   4.486  16.766 -0.0943 -0.6772  0.1617
11106TIP3    H154809   4.239   4.551  16.700  0.4622  0.1902  0.8053
11106TIP3    H254810   4.331   4.434  16.724  1.5636  1.0050  0.6528
11107TIP3   OH254811   6.395   4.573  10.880 -0.2147 -0.5561 -0.0892
11107TIP3    H154812   6.447   4.495  10.903 -0.6297 -1.3595 -1.7599
11107TIP3    H254813   6.448   4.619  10.815  0.3010  0.9309  1.3129
11108TIP3   OH254814   4.224   6.582   2.535  0.3940  0.2017  0.1310
11108TIP3    H154815   4.172   6.525   2.479  2.0404  0.5404 -1.8773
11108TIP3    H254816   4.304   6.532   2.551  1.0051  1.1245  0.0274
11109TIP3   OH254817   4.011   2.914   3.627  0.1234  0.3984 -0.2299
11109TIP3    H154818   4.075   2.871   3.684 -0.8393 -1.7908 -0.7373
11109TIP3    H254819   3.956   2.964   3.687  0.5280 -0.0363  0.5164
11110TIP3   OH254820   2.891   1.396   5.567 -0.3821  0.1631 -0.1065
11110TIP3    H154821   2.919   1.370   5.655 -0.3386  1.6260  0.3319
11110TIP3    H254822   2.966   1.376   5.511  1.2920  3.0947  0.8924
11111TIP3   OH254823   6.219   4.780  11.696 -0.4339  0.2037  0.3003
11111TIP3    H154824   6.198   4.687  11.705 -1.4195  0.4139  0.2180
11111TIP3    H254825   6.165   4.824  11.761 -0.7935  0.8260 -0.4024
11112TIP3   OH254826   2.183   4.367  16.721 -0.1077  0.8452  0.3565
11112TIP3    H154827   2.197   4.456  16.687  2.5272  0.9961  1.5290
11112TIP3    H254828   2.257   4.353  16.780 -0.5952 -2.0571  0.4090
11113TIP3   OH254829   3.336   3.460  12.528 -0.7007  0.3392 -0.2185
11113TIP3    H154830   3.299   3.530  12.582  1.9060  2.4711 -1.0118
11113TIP3    H254831   3.377   3.400  12.591  0.6744  1.7884  0.3042
11114TIP3   OH254832   2.351   6.804   5.342 -0.5801  0.0458 -0.3002
11114TIP3    H154833   2.399   6.885   5.358  0.9883  0.1034 -4.2381
11114TIP3    H254834   2.267   6.833   5.305 -0.5889 -0.1351 -0.4226
11115TIP3   OH254835   3.339   3.939   1.584 -0.1260 -0.6410 -0.0298
11115TIP3    H154836   3.303   3.897   1.662  0.8959 -0.3964  0.5931
11115TIP3    H254837   3.318   4.031   1.595 -2.9578 -0.9802 -1.7207
11116TIP3   OH254838   3.757   0.168   5.296  0.2325  0.3297 -0.1461
11116TIP3    H154839   3.733   0.202   5.210 -1.4734 -0.4736 -0.0321
11116TIP3    H254840   3.674   0.137   5.333  1.3680 -2.1541  0.5407
11117TIP3   OH254841   3.297   5.500  13.648 -0.2741 -0.1722  0.4007
11117TIP3    H154842   3.216   5.489  13.698 -0.0026 -0.0324  0.8804
11117TIP3    H254843   3.292   5.434  13.579 -1.1741  0.3727 -0.0770
11118TIP3   OH254844   3.543   6.687   1.345  0.0279 -0.6056 -0.0919
11118TIP3    H154845   3.616   6.635   1.379 -0.3785 -0.4367  1.1136
11118TIP3    H254846   3.530   6.755   1.412 -1.1474 -0.5627 -0.3514
11119TIP3   OH254847   4.965   6.366   2.272 -0.4135  0.1950  0.1118
11119TIP3    H154848   4.905   6.369   2.346  0.9997  0.1345  1.3140
11119TIP3    H254849   4.910   6.378   2.195 -1.9809 -0.1566  1.1399
11120TIP3   OH254850   6.363   0.862  16.770  0.3183  0.0216 -0.4962
11120TIP3    H154851   6.343   0.908  16.688 -0.1279 -1.6457 -1.3709
11120TIP3    H254852   6.382   0.772  16.743 -1.1731 -0.9181  1.3390
11121TIP3   OH254853   5.805   3.100  11.814 -0.3703 -0.4946  0.8920
11121TIP3    H154854   5.817   3.194  11.797 -4.5110 -0.0314 -0.5231
11121TIP3    H254855   5.882   3.059  11.775  1.0664  2.1932  0.6106
11122TIP3   OH254856   3.334   2.633   0.264 -0.1282 -0.2048 -0.1523
11122TIP3    H154857   3.345   2.687   0.186 -0.1190  0.0973  0.0539
11122TIP3    H254858   3.420   2.633   0.306 -0.0590 -0.6044 -0.2918
11123TIP3   OH254859   4.513   2.977   5.836 -0.0354  0.2160  0.0525
11123TIP3    H154860   4.548   2.970   5.925  0.1126 -0.3425 -0.0489
11123TIP3    H254861   4.419   2.995   5.849 -0.0608 -0.1068  0.3228
11124TIP3   OH254862   6.240   3.766  12.879  0.3099 -0.2962  0.1769
11124TIP3    H154863   6.235   3.775  12.974  1.3584 -0.8523  0.2937
11124TIP3    H254864   6.149   3.755  12.852 -0.3030  2.3334  0.8337
11125TIP3   OH254865   3.164   3.806   4.675  0.2327 -0.3273 -1.3434
11125TIP3    H154866   3.251   3.796   4.636  1.4901  1.5446  0.7661
11125TIP3    H254867   3.156   3.731   4.735  1.7864  1.0685  0.7447
11126TIP3   OH254868   3.593   3.987  14.087  0.2195  0.2030  0.3707
11126TIP3    H154869   3.581   3.920  14.155  0.9409 -0.4569 -0.1312
11126TIP3    H254870   3.599   4.069  14.135 -0.0744 -0.1613  1.0490
11127TIP3   OH254871   2.789   0.627  14.027 -0.4173  0.4843 -0.3901
11127TIP3    H154872   2.882   0.609  14.014 -0.4033  0.9518 -0.9616
11127TIP3    H254873   2.772   0.599  14.117  0.2814  0.4266 -0.2692
11128TIP3   OH254874   0.561   4.967   5.666  0.7522  0.2625 -0.0267
11128TIP3    H154875   0.569   4.961   5.571  0.4351 -0.4300 -0.0190
11128TIP3    H254876   0.574   5.060   5.686 -2.2725  1.0458 -1.0691
11129TIP3   OH254877   0.700   1.069  13.699  0.0301  0.2210  0.3516
11129TIP3    H154878   0.654   1.144  13.661 -2.2221 -2.0098 -1.7049
11129TIP3    H254879   0.793   1.088  13.686 -0.3540  3.2235  1.2351
11130TIP3   OH254880   4.896   3.064  17.091 -0.4760 -0.2879 -0.2196
11130TIP3    H154881   4.922   3.020  17.172 -0.6350 -0.1900 -0.1166
11130TIP3    H254882   4.853   3.144  17.120  1.1760  0.7207 -0.4126
11131TIP3   OH254883   2.307   6.258  12.853 -0.4662  0.1776 -0.1556
11131TIP3    H154884   2.383   6.211  12.889 -0.9718 -0.5952 -0.0736
11131TIP3    H254885   2.324   6.350  12.873  0.3284 -0.0165  0.0895
11132TIP3   OH254886   3.028   5.253  13.958  0.4281  0.0837 -0.1149
11132TIP3    H154887   3.013   5.323  14.021  0.5912  0.6207 -0.6553
11132TIP3    H254888   3.030   5.173  14.010  0.5500  0.5140  0.5517
11133TIP3   OH254889   2.666   1.003   4.046 -0.1280  0.3231  0.1262
11133TIP3    H154890   2.689   0.922   4.090  2.7783  1.4788  0.9680
11133TIP3    H254891   2.595   0.979   3.986  1.2867 -2.9973 -0.3986
11134TIP3   OH254892   2.767   1.927  11.870 -0.3508  0.2518  0.2217
11134TIP3    H154893   2.717   1.973  11.938 -1.1921  0.1451 -0.3109
11134TIP3    H254894   2.829   1.993  11.837 -0.6378  0.6055  0.3847
11135TIP3   OH254895   3.616   5.383  12.076 -0.1954 -0.3849  0.3709
11135TIP3    H154896   3.666   5.455  12.114  0.3599  0.5499 -1.9123
11135TIP3    H254897   3.525   5.411  12.082 -0.1096 -0.2236  0.9285
11136TIP3   OH254898   6.229   3.668  15.674  0.4291 -0.2282 -0.0314
11136TIP3    H154899   6.143   3.647  15.635 -0.4925  0.3309  1.6079
11136TIP3    H254900   6.245   3.758  15.648 -0.3790  0.2807  1.1765
11137TIP3   OH254901   1.844   1.207  13.023  0.4129  0.4157  0.1838
11137TIP3    H154902   1.874   1.178  12.937  1.4563 -2.3241  1.3770
11137TIP3    H254903   1.913   1.179  13.083 -0.5278  1.8107  2.0043
11138TIP3   OH254904   1.375   1.296   4.959  0.0853 -0.0442  0.0133
11138TIP3    H154905   1.375   1.357   4.885  0.1893  1.7575  1.4305
11138TIP3    H254906   1.294   1.316   5.006 -0.1386 -1.3908  0.2316
11139TIP3   OH254907   6.427   0.181  15.960  0.5359  0.1088  0.3785
11139TIP3    H154908   6.340   0.143  15.976  1.2673 -1.5493  0.7012
11139TIP3    H254909   6.483   0.140  16.026  1.6896  0.6745 -0.2188
11140TIP3   OH254910   1.823   3.114   0.485 -0.0006 -0.4958 -0.0666
11140TIP3    H154911   1.870   3.074   0.558  0.1571 -0.8886 -0.3829
11140TIP3    H254912   1.871   3.088   0.407 -0.2374 -0.1746 -0.3256
11141TIP3   OH254913   3.999   1.349   0.584  0.5130  0.7954 -0.1267
11141TIP3    H154914   3.923   1.297   0.610  1.2142 -0.3166 -0.2486
11141TIP3    H254915   3.963   1.434   0.560 -0.4497  1.0285  1.9621
11142TIP3   OH254916   4.834   1.118   5.690  0.4576 -0.0062  0.0884
11142TIP3    H154917   4.900   1.057   5.657 -0.3161 -0.7621 -0.1132
11142TIP3    H254918   4.826   1.097   5.783 -0.0574 -0.4650 -0.0533
11143TIP3   OH254919   2.233   3.177   6.090  0.3521  0.0621 -0.4975
11143TIP3    H154920   2.223   3.155   5.997 -0.0631  0.4682 -0.5529
11143TIP3    H254921   2.144   3.201   6.118  0.3304 -0.7895  0.1936
11144TIP3   OH254922   4.968   6.196  14.944  0.4672 -0.1720  0.0941
11144TIP3    H154923   5.048   6.245  14.924 -1.0111  2.2020 -0.2355
11144TIP3    H254924   4.910   6.213  14.870  0.0855 -3.0921 -0.4342
11145TIP3   OH254925   6.008   4.761   0.942 -0.4208 -0.0175 -0.1421
11145TIP3    H154926   6.029   4.695   0.875  0.1201  0.3188 -0.3173
11145TIP3    H254927   5.921   4.737   0.973 -2.0834  1.5645 -3.1152
11146TIP3   OH254928   4.925   5.729  11.296  0.6126  0.1500  0.2133
11146TIP3    H154929   4.959   5.807  11.254  0.8773 -0.2400 -0.3096
11146TIP3    H254930   4.896   5.673  11.224 -1.3528  0.5375  0.6235
11147TIP3   OH254931   6.252   0.972   3.152  0.2090 -0.2967 -0.5207
11147TIP3    H154932   6.266   0.947   3.061  0.0891 -0.8474 -0.3917
11147TIP3    H254933   6.322   0.927   3.200 -0.3870 -0.9153 -0.2069
11148TIP3   OH254934   4.430   4.241   1.163 -0.5496  0.2740 -0.3633
11148TIP3    H154935   4.386   4.171   1.115  0.7490 -0.6824 -0.2009
11148TIP3    H254936   4.382   4.247   1.246 -0.0056 -1.2018  0.0778
11149TIP3   OH254937   1.223   5.744  14.901 -0.5144 -0.2110  0.2793
11149TIP3    H154938   1.176   5.765  14.981  0.0428  0.0621  0.5353
11149TIP3    H254939   1.174   5.787  14.832 -0.6028  0.1264  0.5539
11150TIP3   OH254940   4.421   4.080   1.787  0.1479 -0.4268 -0.2774
11150TIP3    H154941   4.416   3.998   1.739 -0.9616 -1.5242  1.5967
11150TIP3    H254942   4.331   4.097   1.815  0.5848  0.6847  0.5488
11151TIP3   OH254943   0.006   0.690  16.494  0.5818 -0.3555  0.5824
11151TIP3    H154944   0.020   0.677  16.588 -0.0178 -2.4840  0.4129
11151TIP3    H254945  -0.089   0.681  16.483  0.5999  0.2965 -0.1946
11152TIP3   OH254946   4.495   3.409  14.332 -0.2185  0.2916  0.3522
11152TIP3    H154947   4.450   3.339  14.379 -0.1869  0.8685  1.2701
11152TIP3    H254948   4.544   3.456  14.400  3.7107 -1.6624 -0.7891
11153TIP3   OH254949   5.508   0.159   1.272 -0.1444 -0.7586 -0.4312
11153TIP3    H154950   5.517   0.079   1.323 -0.0079 -1.6710 -1.8184
11153TIP3    H254951   5.437   0.140   1.211  0.5492 -0.2016 -1.4397
11154TIP3   OH254952   2.866   4.490  16.062  0.2683 -0.1837  0.0354
11154TIP3    H154953   2.921   4.414  16.046  1.1204  0.5524 -0.5951
11154TIP3    H254954   2.914   4.542  16.126  0.3239  0.4730 -0.5298
11155TIP3   OH254955   0.948   1.227  16.043  0.0292  0.7257  0.3734
11155TIP3    H154956   0.941   1.154  15.981  0.8929  0.8293  0.1438
11155TIP3    H254957   1.034   1.265  16.026  0.5578  0.3666  2.0837
11156TIP3   OH254958   2.440   2.045   4.176  0.1678 -0.2249 -0.2559
11156TIP3    H154959   2.495   2.108   4.223  0.1538 -0.6153  0.2890
11156TIP3    H254960   2.386   2.005   4.244 -0.6874  0.0499 -0.7658
11157TIP3   OH254961   1.761   5.327  14.011  0.2571  0.5940  0.1693
11157TIP3    H154962   1.844   5.335  14.059 -0.8338 -1.4391  2.6409
11157TIP3    H254963   1.758   5.235  13.985 -0.6061  0.9848 -1.1734
11158TIP3   OH254964   6.195   6.322   4.853 -0.3181 -0.9493  0.4225
11158TIP3    H154965   6.177   6.230   4.872  2.3586 -1.4155  1.1592
11158TIP3    H254966   6.289   6.324   4.833 -0.2954  1.6226  0.4703
11159TIP3   OH254967   4.266   6.134  11.452 -0.1238 -0.1505  0.2198
11159TIP3    H154968   4.295   6.202  11.391 -0.1135 -0.9453 -0.6875
11159TIP3    H254969   4.348   6.099  11.489 -0.0663 -0.4702 -0.2060
11160TIP3   OH254970   0.081   1.367  12.296  1.1656  0.5841  0.0366
11160TIP3    H154971   0.069   1.460  12.313 -0.4844  0.7085 -1.5509
11160TIP3    H254972   0.131   1.363  12.215  0.7699  0.0974 -0.1900
11161TIP3   OH254973   4.295   0.564  15.795  0.1142 -0.2395  0.1807
11161TIP3    H154974   4.259   0.512  15.723 -2.1948  1.2244  0.1811
11161TIP3    H254975   4.383   0.529  15.808 -0.0109 -1.6717 -2.2173
11162TIP3   OH254976   1.203   5.324   2.793 -0.4337 -0.1494 -0.2128
11162TIP3    H154977   1.255   5.354   2.867 -1.2041  0.1001  0.2325
11162TIP3    H254978   1.166   5.404   2.755 -1.4150 -0.4090  0.1727
11163TIP3   OH254979   6.605   0.995   4.611  0.8265 -0.2064 -0.1275
11163TIP3    H154980   6.532   0.993   4.674 -0.4726 -3.4192 -1.4822
11163TIP3    H254981   6.653   0.914   4.629  0.1226 -1.5025 -3.4185
11164TIP3   OH254982   0.384   3.540   2.558 -0.0295 -0.0746 -0.2079
11164TIP3    H154983   0.318   3.598   2.521 -0.2286 -0.8063 -1.0331
11164TIP3    H254984   0.350   3.518   2.645 -0.8405 -0.3780 -0.5893
11165TIP3   OH254985   2.045   3.566  10.314  0.2380  0.3917 -0.2467
11165TIP3    H154986   2.096   3.643  10.291  3.2388 -1.5398 -0.7471
11165TIP3    H254987   1.954   3.594  10.311  1.2129  4.0073  0.2372
11166TIP3   OH254988   2.755   4.576   5.451 -0.3026  0.4758  0.0023
11166TIP3    H154989   2.684   4.640   5.460 -0.5151  0.3021 -0.4074
11166TIP3    H254990   2.833   4.629   5.436 -0.6091  0.6256 -1.1801
11167TIP3   OH254991   1.711   0.650   5.222  0.2291  0.0405  0.0355
11167TIP3    H154992   1.769   0.706   5.273 -0.8007  1.4742 -0.3112
11167TIP3    H254993   1.636   0.634   5.280  0.0034 -0.0418 -0.2782
11168TIP3   OH254994   5.549   3.941   1.631  0.4398  0.0421  0.4393
11168TIP3    H154995   5.471   3.934   1.686  0.9520 -0.4572  1.1024
11168TIP3    H254996   5.524   4.003   1.562  0.4056  2.1698  2.2734
11169TIP3   OH254997   4.994   1.722  12.777  0.2461 -0.3183 -0.2001
11169TIP3    H154998   4.951   1.645  12.739  2.9456 -1.4182 -1.3043
11169TIP3    H254999   4.992   1.706  12.871 -2.4625  0.1673 -0.0874
11170TIP3   OH255000   1.036   4.472  12.033 -0.1876  0.1941  0.0445
11170TIP3    H155001   1.009   4.383  12.056  0.7873 -0.7978 -2.3753
11170TIP3    H255002   1.117   4.485  12.083 -1.2059  0.4157  1.7032
11171TIP3   OH255003   5.171   2.318   4.883  0.1690  0.0485 -0.0089
11171TIP3    H155004   5.138   2.379   4.949 -3.0830  0.3056 -1.6693
11171TIP3    H255005   5.171   2.233   4.926  0.6467  0.5827  1.0746
11172TIP3   OH255006   0.081   6.769  16.672  0.3208  0.2415  0.2354
11172TIP3    H155007   0.163   6.769  16.723 -0.9687 -0.2940  2.4657
11172TIP3    H255008   0.063   6.676  16.656  1.1148  0.4292 -2.0035
11173TIP3   OH255009   3.079   0.069  12.953  0.3526  0.1091  0.1662
11173TIP3    H155010   3.047   0.006  13.018 -0.4328  0.0097 -0.2983
11173TIP3    H255011   3.006   0.078  12.891  1.7155 -1.1725 -1.7209
11174TIP3   OH255012   1.820   2.081  13.417  0.6870  0.2229 -0.1924
11174TIP3    H155013   1.827   2.055  13.509  1.2595 -0.0184 -0.3012
11174TIP3    H255014   1.730   2.110  13.407  0.0894 -1.4823 -0.0084
11175TIP3   OH255015   4.184   2.272   2.451 -0.0479 -0.3874  0.2835
11175TIP3    H155016   4.129   2.234   2.383 -1.6161  1.6325  0.3360
11175TIP3    H255017   4.170   2.215   2.527  0.9296 -2.0610 -0.7274
11176TIP3   OH255018   4.374   3.742  10.611 -1.3134 -0.7336 -0.1394
11176TIP3    H155019   4.446   3.701  10.657 -1.3512 -0.0315  0.5538
11176TIP3    H255020   4.382   3.836  10.630 -1.4998 -0.4588 -1.3133
11177TIP3   OH255021   6.208   5.220  11.730 -0.3616  0.0121  0.2312
11177TIP3    H155022   6.231   5.308  11.759 -0.6390 -0.1286  0.8888
11177TIP3    H255023   6.248   5.162  11.795  0.3041 -0.3837 -0.5049
11178TIP3   OH255024   6.355   3.832  14.308  0.3843  0.2232  0.3970
11178TIP3    H155025   6.300   3.760  14.277  1.5467 -0.1378 -0.9041
11178TIP3    H255026   6.310   3.865  14.386  0.0448 -2.1808  1.2781
11179TIP3   OH255027   6.476   3.289  15.367 -0.3125  0.2409 -0.1022
11179TIP3    H155028   6.479   3.342  15.447  1.6704  2.1672 -1.3193
11179TIP3    H255029   6.520   3.208  15.390  0.2801  0.7965  0.7632
11180TIP3   OH255030   0.073   2.923   0.423 -0.1084  0.1134 -0.8040
11180TIP3    H155031   0.129   2.997   0.448 -0.6013  0.2331 -0.0116
11180TIP3    H255032  -0.007   2.964   0.389 -0.7359 -0.0319  0.4470
11181TIP3   OH255033   5.282   1.414   6.062 -0.4602  0.4101  0.0001
11181TIP3    H155034   5.296   1.324   6.090  0.8686  0.6007 -0.0088
11181TIP3    H255035   5.319   1.418   5.974  0.3659  1.1976  0.3692
11182TIP3   OH255036   4.184   0.222  10.278  0.0939 -0.3642 -0.6254
11182TIP3    H155037   4.139   0.154  10.228 -0.0936 -1.2879  0.7477
11182TIP3    H255038   4.114   0.266  10.327  0.2706  0.5279 -1.1708
11183TIP3   OH255039   2.761   0.871   5.125  0.1724 -0.1059  0.0831
11183TIP3    H155040   2.836   0.855   5.182  0.0026  0.9463  0.6212
11183TIP3    H255041   2.796   0.866   5.036  0.6539 -0.6873  0.3010
11184TIP3   OH255042   3.713   3.987   1.375 -0.2831 -0.2687 -0.0399
11184TIP3    H155043   3.735   3.899   1.343  1.2350 -0.2958  1.0140
11184TIP3    H255044   3.779   4.044   1.335  0.3882 -0.0141  1.3720
11185TIP3   OH255045   1.029   5.903  14.745 -0.6410 -0.0638 -0.4027
11185TIP3    H155046   0.961   5.875  14.807 -1.9791  2.8125 -0.3996
11185TIP3    H255047   0.992   5.883  14.659 -0.4762 -0.5817 -0.3538
11186TIP3   OH255048   3.201   3.276  10.810  0.5117  0.1441 -0.1190
11186TIP3    H155049   3.272   3.259  10.748  1.9479  0.8437  1.2759
11186TIP3    H255050   3.186   3.370  10.805 -0.6772 -0.0656 -0.7568
11187TIP3   OH255051   6.267   1.375  14.878  0.4145 -0.1270  0.6461
11187TIP3    H155052   6.270   1.389  14.783  0.3435 -0.8403  0.5367
11187TIP3    H255053   6.290   1.283  14.889  0.6363  0.0125  1.3394
11188TIP3   OH255054   1.607   2.142   3.368 -0.2259 -0.1520  0.6003
11188TIP3    H155055   1.618   2.237   3.372 -1.0036 -0.0584  0.7362
11188TIP3    H255056   1.590   2.117   3.459  1.3776 -0.6241  0.8090
11189TIP3   OH255057   4.640   4.513   5.666 -0.7510  0.4418  0.0462
11189TIP3    H155058   4.709   4.456   5.633  0.6108  2.3343 -0.5434
11189TIP3    H255059   4.686   4.589   5.701 -2.5471  2.1948 -1.1861
11190TIP3   OH255060   4.917   5.612  14.992 -0.5395  0.1070 -0.2851
11190TIP3    H155061   4.942   5.680  15.054  0.1721  0.9337 -1.4355
11190TIP3    H255062   4.985   5.546  14.999  0.0117  0.6107 -0.7806
11191TIP3   OH255063   4.268   3.206  14.866 -0.3675  0.3581  0.4940
11191TIP3    H155064   4.217   3.282  14.893  1.0872  0.9225  1.8164
11191TIP3    H255065   4.245   3.137  14.927 -0.7640  0.0972  0.0581
11192TIP3   OH255066   3.374   3.259  10.588 -0.1508 -0.1763 -0.0981
11192TIP3    H155067   3.370   3.327  10.520  1.6639  0.7937  0.6859
11192TIP3    H255068   3.463   3.224  10.582 -0.8385 -2.0509 -0.0145
11193TIP3   OH255069   1.231   5.514  17.080 -0.5830 -0.5425  0.2497
11193TIP3    H155070   1.197   5.425  17.074 -3.9641  0.3343  2.9421
11193TIP3    H255071   1.249   5.527  17.173  2.9493  0.6855 -0.4650
11194TIP3   OH255072   2.421   2.842   1.462 -0.1907 -0.3672  0.0373
11194TIP3    H155073   2.432   2.758   1.506  0.1648 -0.4307 -0.1675
11194TIP3    H255074   2.496   2.848   1.403  0.5226  0.7017  1.0120
11195TIP3   OH255075   6.370   4.497  15.800 -0.0161  0.5264 -0.0925
11195TIP3    H155076   6.319   4.459  15.729 -0.4585  0.5594  0.2050
11195TIP3    H255077   6.411   4.574  15.761 -2.1005  1.8885  0.2670
11196TIP3   OH255078   0.401   4.438  16.680 -0.1967 -0.1974  0.0551
11196TIP3    H155079   0.421   4.480  16.764 -1.9637  0.1071  0.3679
11196TIP3    H255080   0.352   4.360  16.704  0.5635 -0.9001 -0.6494
11197TIP3   OH255081   3.415   5.531   2.007 -0.6275 -0.0371 -0.3138
11197TIP3    H155082   3.440   5.488   1.925 -1.1921 -0.8291 -0.0866
11197TIP3    H255083   3.497   5.560   2.046 -0.2094 -1.0620 -0.4018
11198TIP3   OH255084   6.484   0.599  15.909 -0.0123  0.2544 -0.0920
11198TIP3    H155085   6.473   0.515  15.865 -2.2497  0.0857  0.6643
11198TIP3    H255086   6.428   0.659  15.859 -1.7408  0.3016  1.7991
11199TIP3   OH255087   4.249   0.839  13.599 -0.1173  0.5040 -0.5079
11199TIP3    H155088   4.194   0.886  13.661  0.2275 -0.5792  0.6522
11199TIP3    H255089   4.329   0.892  13.593 -0.9724  1.7448 -1.7160
11200TIP3   OH255090   4.853   0.207  10.324  0.7140 -0.6180  0.0635
11200TIP3    H155091   4.802   0.277  10.284  2.5155  0.7564  0.0170
11200TIP3    H255092   4.846   0.223  10.418  1.7424  0.1628  0.0361
11201TIP3   OH255093   4.028   2.837   5.825  0.0253  0.3765  0.1771
11201TIP3    H155094   4.035   2.824   5.919 -0.4975  1.0434  0.3121
11201TIP3    H255095   4.056   2.927   5.810  0.9709  0.0039 -0.4192
11202TIP3   OH255096   0.384   2.410  11.798  0.3558  0.1253  0.0247
11202TIP3    H155097   0.316   2.383  11.859  0.3031  0.8060  0.2754
11202TIP3    H255098   0.415   2.328  11.759 -1.9875 -0.0963 -1.5993
11203TIP3   OH255099   5.514   0.164   3.577  0.1543  0.2258  0.0025
11203TIP3    H155100   5.462   0.105   3.522  0.1600  0.6968 -0.5286
11203TIP3    H255101   5.533   0.114   3.656 -0.1795 -0.3365 -0.2674
11204TIP3   OH255102   6.809   3.614   4.127  0.5743  0.1363  0.2419
11204TIP3    H155103   6.854   3.575   4.201  0.8112  0.2540  0.1590
11204TIP3    H255104   6.735   3.555   4.111  1.0580 -0.4105 -0.0261
11205TIP3   OH255105   6.597   1.308  12.761  0.4220  0.0018  0.4899
11205TIP3    H155106   6.609   1.382  12.821 -0.4255 -0.0722  0.7503
11205TIP3    H255107   6.646   1.236  12.801  0.2679  0.0920  0.8431
11206TIP3   OH255108   2.263   0.943   3.314 -0.0489 -0.2701  0.0016
11206TIP3    H155109   2.179   0.898   3.304 -0.8200  0.9750  0.5564
11206TIP3    H255110   2.308   0.929   3.230 -1.0977 -0.3914 -0.5619
11207TIP3   OH255111   3.023   5.994   2.400  0.2169 -0.2262  0.2786
11207TIP3    H155112   3.019   6.052   2.475  0.4971 -1.0789  0.9701
11207TIP3    H255113   2.932   5.979   2.376  0.0575 -1.0282  1.3139
11208TIP3   OH255114   6.280   2.444  14.179 -0.6530  0.0343 -0.1479
11208TIP3    H155115   6.195   2.452  14.223 -0.1431 -1.2400  1.1421
11208TIP3    H255116   6.341   2.492  14.235  0.1136 -2.0979  0.9336
11209TIP3   OH255117   0.895   4.683   2.830 -0.7476  0.4582 -0.0056
11209TIP3    H155118   0.926   4.626   2.760 -0.5713  0.9972 -0.3688
11209TIP3    H255119   0.800   4.683   2.821 -0.9542 -1.6128  1.4280
11210TIP3   OH255120   2.129   5.778   4.592  0.2554 -0.0431  0.2596
11210TIP3    H155121   2.137   5.775   4.496  0.8770 -0.1660  0.3091
11210TIP3    H255122   2.122   5.872   4.612 -3.7648 -0.0788 -0.1631
11211TIP3   OH255123   6.541   1.004  16.523  0.2673 -0.8632  0.1589
11211TIP3    H155124   6.610   1.028  16.461  0.8669  0.1652  1.1888
11211TIP3    H255125   6.537   0.909  16.518  2.3899 -1.0343  0.6946
11212TIP3   OH255126   1.632   0.126  14.914  0.0976 -0.1608 -0.1474
11212TIP3    H155127   1.573   0.077  14.971 -2.0231 -0.4277 -2.4246
11212TIP3    H255128   1.638   0.212  14.956 -0.5328 -0.6494  1.0118
11213TIP3   OH255129   2.652   3.174   2.161  0.2851  0.4171  0.0030
11213TIP3    H155130   2.677   3.121   2.085  0.2295  0.2729  0.0843
11213TIP3    H255131   2.589   3.237   2.127  0.9247  0.9358 -0.2552
11214TIP3   OH255132   4.418   0.369   0.132  0.0775  0.1289 -0.0953
11214TIP3    H155133   4.455   0.320   0.206  0.6080 -0.3830 -0.6860
11214TIP3    H255134   4.324   0.363   0.144  0.1514  1.5060  1.4731
11215TIP3   OH255135   5.643   3.719   5.681  0.0357 -0.9455 -0.2733
11215TIP3    H155136   5.629   3.811   5.661  2.4949 -0.4988 -0.2260
11215TIP3    H255137   5.609   3.709   5.770 -1.3664 -0.4310 -0.7142
11216TIP3   OH255138   1.012   3.244  15.533 -0.0730 -0.4417  0.0333
11216TIP3    H155139   0.987   3.152  15.539 -0.8486 -0.2104  0.4537
11216TIP3    H255140   1.098   3.248  15.573  0.5012 -1.1901 -1.0822
11217TIP3   OH255141   2.293   2.601   2.709 -0.0918  0.2320  0.7043
11217TIP3    H155142   2.370   2.654   2.732  0.1172  1.2895 -1.9764
11217TIP3    H255143   2.221   2.642   2.757  0.6700  0.5827  1.5891
11218TIP3   OH255144   3.536   1.807   4.570  0.8620 -0.0409 -0.1063
11218TIP3    H155145   3.630   1.798   4.560  1.2695  1.9579  1.2463
11218TIP3    H255146   3.511   1.876   4.509  1.1849  2.8312  2.7158
11219TIP3   OH255147   4.717   4.934   2.822 -0.1924  0.0061  0.1188
11219TIP3    H155148   4.762   4.981   2.892  1.0249 -1.1172  0.1425
11219TIP3    H255149   4.628   4.920   2.855  0.3450 -0.4663  1.4403
11220TIP3   OH255150   3.818   2.696   1.045  0.2650 -0.2710 -0.4608
11220TIP3    H155151   3.891   2.638   1.067  0.2996 -0.4218 -0.9465
11220TIP3    H255152   3.751   2.638   1.008 -0.7401 -0.3695  1.3841
11221TIP3   OH255153   5.756   5.033  13.166 -0.6058  0.0762  0.2795
11221TIP3    H155154   5.765   4.985  13.248 -1.4651  1.3510  1.1489
11221TIP3    H255155   5.798   5.118  13.182 -0.3455  0.1675 -0.7656
11222TIP3   OH255156   1.103   2.125  15.420  0.5742 -0.0293  0.4699
11222TIP3    H155157   1.161   2.063  15.463  2.7127  1.5074 -0.0303
11222TIP3    H255158   1.156   2.204  15.408 -1.2305  1.0446 -1.1632
11223TIP3   OH255159   1.436   6.036  16.293 -0.4279  0.3665 -0.4908
11223TIP3    H155160   1.404   6.096  16.225 -2.2657 -0.4969 -0.4457
11223TIP3    H255161   1.363   5.976  16.309  0.3930 -0.2265  1.3761
11224TIP3   OH255162   2.464   0.055   4.666  0.5753 -0.6896 -0.4306
11224TIP3    H155163   2.454   0.146   4.696 -1.9126  0.1263 -3.2830
11224TIP3    H255164   2.412   0.003   4.727 -0.4388  0.2227 -0.4978
11225TIP3   OH255165   3.714   5.014  15.141  0.5126  0.5235 -0.1172
11225TIP3    H155166   3.774   4.953  15.184  1.4154  1.3569 -0.1667
11225TIP3    H255167   3.627   4.984  15.168  0.9805 -0.0957  0.7715
11226TIP3   OH255168   2.900   5.148   4.369  0.1254  0.3642 -0.2894
11226TIP3    H155169   2.969   5.130   4.304  0.7711 -0.8833  0.6918
11226TIP3    H255170   2.917   5.237   4.398  1.8315 -0.1516  0.4600
11227TIP3   OH255171   6.775   2.835   5.300 -0.1033  0.2135 -0.3129
11227TIP3    H155172   6.739   2.756   5.341  1.3683 -0.0373  0.5667
11227TIP3    H255173   6.868   2.834   5.324 -0.3015  2.9593  0.9828
11228TIP3   OH255174   1.279   0.010  13.949  0.8047 -0.3447  0.2439
11228TIP3    H155175   1.272   0.054  14.034 -0.1132 -0.3173  0.1618
11228TIP3    H255176   1.236   0.069  13.887  1.4085 -0.3952 -0.2374
11229TIP3   OH255177   4.206   0.042   0.843 -0.2643 -0.5231 -0.4062
11229TIP3    H155178   4.128   0.002   0.881  0.1471  0.4198  1.5679
11229TIP3    H255179   4.274  -0.024   0.855 -0.0732 -0.1276  0.8288
11230TIP3   OH255180   5.606   2.193  16.293  0.8301 -0.1443 -0.1035
11230TIP3    H155181   5.657   2.179  16.373 -0.9782 -0.8545  0.9917
11230TIP3    H255182   5.628   2.119  16.237  0.5417 -0.7939  0.6241
11231TIP3   OH255183   2.116   5.780   5.312  0.9406 -0.2373  0.1793
11231TIP3    H155184   2.085   5.871   5.318  2.8515  0.5833 -1.2629
11231TIP3    H255185   2.037   5.727   5.311 -0.2223  1.4189  0.9928
11232TIP3   OH255186   1.382   4.504  16.734 -0.0298 -0.3983  0.1367
11232TIP3    H155187   1.418   4.539  16.816 -1.2701 -0.5981  0.8005
11232TIP3    H255188   1.331   4.576  16.697 -0.4958 -0.6976  0.1908
11233TIP3   OH255189   6.372   1.230   4.311 -0.1687  0.3218 -0.0135
11233TIP3    H155190   6.333   1.311   4.279 -0.2179  0.3581  0.1361
11233TIP3    H255191   6.465   1.238   4.289 -0.3778 -0.1352 -1.1273
11234TIP3   OH255192   2.804   5.724   5.107  0.1262  0.0692  0.6882
11234TIP3    H155193   2.778   5.647   5.158  1.1637  0.7898  2.4233
11234TIP3    H255194   2.844   5.688   5.028  1.6244 -1.2781  1.9646
11235TIP3   OH255195   5.517   1.609   2.133  0.0610 -0.4759  0.1864
11235TIP3    H155196   5.527   1.656   2.050  2.3755 -1.8028 -0.3676
11235TIP3    H255197   5.423   1.591   2.138 -0.3147  0.7036 -1.5225
11236TIP3   OH255198   2.457   0.622  15.141  0.3033  0.1519  0.6677
11236TIP3    H155199   2.459   0.688  15.210 -0.1945 -0.2798  1.0969
11236TIP3    H255200   2.381   0.568  15.161 -0.5646  0.7346 -0.8862
11237TIP3   OH255201   1.135   2.755  11.048  0.3181  0.3398 -0.9456
11237TIP3    H155202   1.182   2.694  11.105 -1.7610  0.9091  1.5975
11237TIP3    H255203   1.072   2.701  11.000  0.1744  0.1660 -0.5676
11238TIP3   OH255204   0.232   1.417  16.749  0.2410  0.1927  0.6855
11238TIP3    H155205   0.199   1.362  16.820  0.8602  0.0799  0.8960
11238TIP3    H255206   0.327   1.405  16.752  0.1694 -2.8855 -2.6127
11239TIP3   OH255207   5.195   6.162  13.019  0.1632 -0.1845  0.3211
11239TIP3    H155208   5.253   6.095  13.055  0.5950  0.5976  1.1175
11239TIP3    H255209   5.182   6.136  12.928 -0.0004 -1.5641  0.7061
11240TIP3   OH255210   0.673   6.428  11.032  0.2481 -0.2003 -0.2542
11240TIP3    H155211   0.624   6.507  11.056 -1.7600 -2.1880  3.0171
11240TIP3    H255212   0.695   6.441  10.940 -1.5800  3.3152 -0.3994
11241TIP3   OH255213   3.190   6.205  16.853 -0.3993  0.6084  0.8257
11241TIP3    H155214   3.273   6.159  16.866 -1.1806 -0.5175  2.1775
11241TIP3    H255215   3.131   6.139  16.817 -0.5864  1.5460 -0.6656
11242TIP3   OH255216   0.873   1.199   1.773 -0.4757 -0.2708  0.1604
11242TIP3    H155217   0.854   1.106   1.763 -1.2578 -0.1210  0.1861
11242TIP3    H255218   0.838   1.222   1.858  0.1735 -0.0556  0.3792
11243TIP3   OH255219   2.090   2.885   0.258  0.5174 -0.4984  0.2416
11243TIP3    H155220   2.000   2.854   0.269  0.5766 -1.2893 -1.2593
11243TIP3    H255221   2.081   2.980   0.252 -0.1236 -0.5084  0.8020
11244TIP3   OH255222   3.100   3.799  14.255 -0.0414 -0.2788  0.2954
11244TIP3    H155223   3.106   3.847  14.338 -1.0965  0.8640 -0.2566
11244TIP3    H255224   3.169   3.732  14.261  0.1687  0.0371  1.9134
11245TIP3   OH255225   6.507   5.689   5.157  0.0403 -0.2437 -0.4509
11245TIP3    H155226   6.522   5.721   5.246  0.0794 -1.7480  0.1182
11245TIP3    H255227   6.593   5.658   5.128 -0.7140 -4.0893  0.8448
11246TIP3   OH255228   1.763   1.179  14.990  0.1559 -0.2657  0.1984
11246TIP3    H155229   1.716   1.159  14.909 -1.4137 -2.2730  1.5251
11246TIP3    H255230   1.694   1.196  15.054  1.3516  0.5157  1.3297
11247TIP3   OH255231   0.666   6.613   6.581 -0.1949 -0.4112 -0.3017
11247TIP3    H155232   0.758   6.594   6.559 -0.3198  0.3822 -1.5761
11247TIP3    H255233   0.635   6.533   6.623  1.3573 -0.3361  1.0865
11248TIP3   OH255234   2.542   2.415   2.872  0.1904  0.4126 -0.5074
11248TIP3    H155235   2.624   2.384   2.832  0.4523  0.5619 -0.0951
11248TIP3    H255236   2.483   2.429   2.798 -0.5246 -2.6659 -0.6849
11249TIP3   OH255237   5.309   0.773  14.795  0.1488 -0.6073  0.1012
11249TIP3    H155238   5.347   0.688  14.817  0.8670 -0.8170 -1.7734
11249TIP3    H255239   5.385   0.831  14.788 -0.3675  0.3585  1.8536
11250TIP3   OH255240   5.257   5.675  12.006  0.2824  0.1312 -0.1288
11250TIP3    H155241   5.351   5.660  11.992  0.2400  0.1432 -0.4316
11250TIP3    H255242   5.234   5.742  11.942  0.0103 -0.0656 -0.2380
11251TIP3   OH255243   4.710   6.577   2.573  0.3299 -0.6542  0.1441
11251TIP3    H155244   4.754   6.504   2.529 -1.0934 -1.2079 -0.4196
11251TIP3    H255245   4.724   6.560   2.666  3.1546  0.3911  0.0053
11252TIP3   OH255246   1.085   4.422   1.114  0.2259  0.5264  0.0685
11252TIP3    H155247   1.150   4.360   1.080 -0.4221 -0.0273 -0.1763
11252TIP3    H255248   1.076   4.488   1.045  1.7254  1.5397  0.7762
11253TIP3   OH255249   1.359   4.905  14.986 -0.1894  0.1861 -0.2090
11253TIP3    H155250   1.300   4.972  15.020  0.4855  0.5329  0.2938
11253TIP3    H255251   1.388   4.938  14.901  2.3298  1.9272  1.1986
11254TIP3   OH255252   2.894   2.332   0.793  0.2425 -0.1458 -0.0185
11254TIP3    H155253   2.971   2.282   0.821  0.7435  0.8565  0.4514
11254TIP3    H255254   2.905   2.418   0.834 -0.5574  0.3842 -0.8687
11255TIP3   OH255255   0.783   5.306   0.154 -0.4397 -0.0111  0.0636
11255TIP3    H155256   0.741   5.312   0.240  1.7803  0.7169  1.1667
11255TIP3    H255257   0.743   5.229   0.113 -1.9683 -0.0215  1.4840
11256TIP3   OH255258   2.122   3.586   3.915  0.1622 -0.0996  0.0383
11256TIP3    H155259   2.041   3.542   3.940 -0.7204 -0.0013 -2.3548
11256TIP3    H255260   2.175   3.517   3.874  1.2728 -0.1365  1.4720
11257TIP3   OH255261   1.933   3.617  13.706 -0.1090 -0.6127 -0.1848
11257TIP3    H155262   1.948   3.638  13.798 -1.0374  3.2377 -0.7783
11257TIP3    H255263   1.928   3.521  13.705  2.2394 -0.9758  3.3505
11258TIP3   OH255264   5.908   1.131   4.002 -0.6363 -0.4485 -0.2818
11258TIP3    H155265   5.854   1.209   3.999  1.9799  1.4670 -0.6500
11258TIP3    H255266   5.845   1.059   4.009 -3.1419  1.6612  0.6181
11259TIP3   OH255267   5.710   0.273  13.306  0.3946 -0.0896  0.0854
11259TIP3    H155268   5.712   0.308  13.217 -3.3724  1.0957  0.2825
11259TIP3    H255269   5.677   0.184  13.296  1.1871 -0.4092  0.2441
11260TIP3   OH255270   4.693   3.253   5.468  0.1598 -0.5427  0.5279
11260TIP3    H155271   4.726   3.306   5.395  1.1575 -0.7724  0.8017
11260TIP3    H255272   4.677   3.316   5.538  0.0932 -0.4387  0.4195
11261TIP3   OH255273   4.063   6.662  13.521 -0.2468 -0.3264  0.4799
11261TIP3    H155274   3.999   6.591  13.527 -1.2477  0.5705  0.7068
11261TIP3    H255275   4.133   6.626  13.466 -1.6243 -0.8567 -1.0219
11262TIP3   OH255276   1.978   0.629  14.990 -0.0068  0.2088  0.1265
11262TIP3    H155277   2.011   0.718  15.003 -0.7554  0.4977  0.0456
11262TIP3    H255278   2.019   0.601  14.908  2.0256 -0.3762  1.2492
11263TIP3   OH255279   3.616   5.925   4.841  0.3328 -0.2441  0.6211
11263TIP3    H155280   3.523   5.899   4.838 -0.1731  0.4680  4.5297
11263TIP3    H255281   3.614   6.021   4.843  1.3895 -0.1217 -1.4954
11264TIP3   OH255282   1.342   3.247  13.019 -0.7507  0.3523  0.1891
11264TIP3    H155283   1.331   3.186  12.946 -1.2694  0.5229  0.1173
11264TIP3    H255284   1.361   3.331  12.977  0.0963  0.2223  0.2921
11265TIP3   OH255285   4.342   4.173   4.431 -0.7607 -0.5439 -0.0623
11265TIP3    H155286   4.349   4.078   4.444 -0.9119 -0.5798 -0.2373
11265TIP3    H255287   4.364   4.186   4.339 -2.1616 -0.5695 -0.4206
11266TIP3   OH255288   0.042   2.335   4.871 -0.4111  0.6559 -0.2327
11266TIP3    H155289  -0.009   2.264   4.832 -1.5191  1.2023  0.1854
11266TIP3    H255290   0.083   2.378   4.796  1.3951 -1.2165 -0.4077
11267TIP3   OH255291   5.699   2.969   4.435 -0.1368 -0.5078 -0.1507
11267TIP3    H155292   5.729   2.993   4.348  2.1317 -0.1858  0.6555
11267TIP3    H255293   5.673   3.052   4.475 -0.1403 -0.5124 -0.1432
11268TIP3   OH255294   1.648   5.230  10.433  0.1605  0.4402  0.1928
11268TIP3    H155295   1.704   5.178  10.376 -0.2521 -0.2748  0.4391
11268TIP3    H255296   1.693   5.231  10.517  0.6359  1.2753 -0.0568
11269TIP3   OH255297   1.198   4.728   3.587 -0.6012 -0.6281 -0.7272
11269TIP3    H155298   1.106   4.753   3.598 -0.2999 -0.3000  1.3920
11269TIP3    H255299   1.196   4.633   3.580 -0.9248 -0.9682  2.5930
11270TIP3   OH255300   5.240   5.858   4.674 -0.3145 -0.3862  0.3946
11270TIP3    H155301   5.294   5.895   4.604 -1.1342 -2.1509 -1.2682
11270TIP3    H255302   5.199   5.934   4.715  0.9807  0.7703 -0.3835
11271TIP3   OH255303   2.266   2.448  16.787 -0.3084 -0.5258 -0.2147
11271TIP3    H155304   2.201   2.482  16.726 -0.3854 -1.0487 -0.4376
11271TIP3    H255305   2.295   2.524  16.837 -0.8972 -0.2407 -0.2942
11272TIP3   OH255306   0.514   4.805   3.398  0.5455  0.1176 -0.1027
11272TIP3    H155307   0.574   4.807   3.324  2.5267  1.0971  1.4057
11272TIP3    H255308   0.547   4.873   3.457 -1.6306  0.1684  1.1720
11273TIP3   OH255309   2.905   6.765   1.937  0.6297 -0.1680 -0.2053
11273TIP3    H155310   2.953   6.845   1.958  0.3664  0.6021 -2.2734
11273TIP3    H255311   2.813   6.790   1.944  0.4133 -1.3895  2.8393
11274TIP3   OH255312   2.953   2.943   3.088 -0.1873 -0.2734  0.4562
11274TIP3    H155313   2.926   2.969   3.176  1.4518  0.1340  0.8612
11274TIP3    H255314   3.029   2.998   3.068 -1.4284  0.7466 -1.8534
11275TIP3   OH255315   6.162   1.134   3.700 -0.6668  0.0508 -0.0118
11275TIP3    H155316   6.083   1.096   3.661  0.2378  0.2033 -2.1405
11275TIP3    H255317   6.216   1.058   3.723 -0.6722 -0.0214 -0.2350
11276TIP3   OH255318   3.784   2.290   4.888  0.5923 -0.7152  0.4607
11276TIP3    H155319   3.705   2.235   4.889 -0.1102  0.2657  0.1877
11276TIP3    H255320   3.838   2.252   4.818 -0.2938 -0.5043 -0.3504
11277TIP3   OH255321   6.745   5.797  14.719  0.1696 -0.8821  0.2361
11277TIP3    H155322   6.670   5.793  14.779 -0.0580 -0.7819 -0.0385
11277TIP3    H255323   6.757   5.891  14.702  1.3831 -0.7774  1.5483
11278TIP3   OH255324   2.041   3.098  13.177 -0.3132  0.4699  0.3532
11278TIP3    H155325   2.007   3.141  13.256 -0.0407  3.1598 -0.8619
11278TIP3    H255326   1.965   3.092  13.118  0.2952  2.5458 -0.7498
11279TIP3   OH255327   0.485   3.266   1.447  0.0694 -0.0583  0.0875
11279TIP3    H155328   0.472   3.361   1.442  1.4394  0.1034 -1.1256
11279TIP3    H255329   0.574   3.255   1.479  1.1738 -0.7969 -2.8664
11280TIP3   OH255330   4.534   0.570   1.326 -0.1075 -0.3682  0.2202
11280TIP3    H155331   4.451   0.532   1.354  0.6618 -1.4181  1.1469
11280TIP3    H255332   4.534   0.560   1.230 -0.1887 -2.2015  0.3764
11281TIP3   OH255333   3.797   4.171  14.231  0.3314  0.2908  1.3557
11281TIP3    H155334   3.813   4.257  14.270  2.7476 -0.0250  1.2110
11281TIP3    H255335   3.843   4.174  14.147 -1.6516 -0.3315  0.1655
11282TIP3   OH255336   5.695   3.938  11.523  0.1408  0.5781 -0.1776
11282TIP3    H155337   5.692   3.881  11.446 -1.3384  0.2375  0.0882
11282TIP3    H255338   5.613   3.987  11.520 -0.2485  0.1093  1.4940
11283TIP3   OH255339   4.529   0.449  15.949 -0.0865  0.3859  0.1685
11283TIP3    H155340   4.532   0.388  16.023  2.2303  1.4643  1.0345
11283TIP3    H255341   4.577   0.404  15.879 -1.7246 -0.3554 -0.5515
11284TIP3   OH255342   2.307   0.279  15.728  0.4768  0.0753 -0.1065
11284TIP3    H155343   2.358   0.348  15.686 -0.2626  0.9327  0.3628
11284TIP3    H255344   2.299   0.211  15.662 -0.7798  1.4473 -1.4204
11285TIP3   OH255345   3.666   4.585   5.474  0.1592 -0.3604  0.3450
11285TIP3    H155346   3.588   4.595   5.419 -0.2604 -0.0597  0.9710
11285TIP3    H255347   3.733   4.638   5.431  0.1765 -1.0304 -0.4744
11286TIP3   OH255348   4.330   3.784  11.764 -0.2545 -0.3893 -0.0311
11286TIP3    H155349   4.334   3.869  11.806  1.8969 -0.3589 -0.2095
11286TIP3    H255350   4.334   3.721  11.836 -1.6831 -0.3846  0.0893
11287TIP3   OH255351   4.168   6.492  11.478  0.2330  0.3897 -0.5790
11287TIP3    H155352   4.216   6.420  11.435  1.2319 -1.1541  2.7692
11287TIP3    H255353   4.237   6.550  11.510 -0.1654 -0.3811  1.8647
11288TIP3   OH255354   6.775   1.344  16.504 -0.2602  0.5545  0.3123
11288TIP3    H155355   6.710   1.297  16.556 -0.3138  2.5717  2.2202
11288TIP3    H255356   6.832   1.276  16.469 -2.3258 -1.1393  0.0269
11289TIP3   OH255357   6.797   5.030   1.474 -0.2420 -0.0029 -0.0609
11289TIP3    H155358   6.745   5.057   1.550 -0.8593  3.6653 -1.5831
11289TIP3    H255359   6.886   5.058   1.495  0.3935 -2.4506  0.7848
11290TIP3   OH255360   4.154   4.935  15.963 -0.0424 -0.2626  0.1651
11290TIP3    H155361   4.182   4.911  15.874  0.9858 -0.8497  0.6246
11290TIP3    H255362   4.061   4.913  15.965 -0.6761  1.8722 -1.4622
11291TIP3   OH255363   1.037   4.245   5.895  0.2024 -0.3893  0.2814
11291TIP3    H155364   1.030   4.149   5.897 -1.4894 -0.2869  0.2043
11291TIP3    H255365   1.008   4.269   5.808 -2.0085  0.3564  1.1745
11292TIP3   OH255366   4.897   0.256   1.269 -0.3493 -0.0625 -0.0932
11292TIP3    H155367   4.991   0.252   1.253 -0.1072 -0.2786  1.2295
11292TIP3    H255368   4.874   0.170   1.304 -0.5586  0.7014  1.7881
11293TIP3   OH255369   2.893   4.252  15.183 -0.0495  0.1239 -0.7968
11293TIP3    H155370   2.975   4.301  15.176  0.9765 -1.2770  0.6023
11293TIP3    H255371   2.907   4.174  15.129 -0.6251  0.0779 -0.8821
11294TIP3   OH255372   6.756   0.391   4.703 -0.0869 -0.2205  1.0072
11294TIP3    H155373   6.782   0.403   4.795 -1.4797  1.0862  1.2672
11294TIP3    H255374   6.839   0.388   4.655  0.6448  1.3460  2.0788
11295TIP3   OH255375   3.761   3.495  15.536 -0.2389 -0.1183  0.2545
11295TIP3    H155376   3.685   3.543  15.501 -0.0612  0.4159  0.5823
11295TIP3    H255377   3.820   3.564  15.567  0.0648 -0.5516  0.6525
11296TIP3   OH255378   6.704   3.332  15.865 -0.1044  0.2964  0.3777
11296TIP3    H155379   6.696   3.410  15.809  0.8597  0.9657  1.1518
11296TIP3    H255380   6.631   3.339  15.926 -0.3626  0.2725  0.0790
11297TIP3   OH255381   5.641   1.754   4.078 -0.1969 -0.9089  0.4863
11297TIP3    H155382   5.663   1.810   4.003 -0.5501  0.0517  1.0786
11297TIP3    H255383   5.724   1.745   4.126 -0.2385 -0.4664  0.6517
11298TIP3   OH255384   0.838   3.534   0.429 -0.1767 -0.4224 -0.5651
11298TIP3    H155385   0.838   3.628   0.447  2.0086 -0.5382  0.3308
11298TIP3    H255386   0.892   3.525   0.350 -0.2500 -0.9312 -0.5605
11299TIP3   OH255387   4.427   3.539  17.081  0.0814 -0.7337  0.3557
11299TIP3    H155388   4.371   3.483  17.134  0.4556 -0.7555  0.7298
11299TIP3    H255389   4.433   3.620  17.130 -1.7510  0.2649 -0.9203
11300TIP3   OH255390   5.166   6.179   0.709  0.1555  0.0887  0.2361
11300TIP3    H155391   5.099   6.122   0.747 -1.0531  0.1232 -1.6737
11300TIP3    H255392   5.195   6.132   0.631  1.1043  0.8927  0.0908
11301TIP3   OH255393   0.237   4.019  13.327  0.0281 -0.4343  0.1801
11301TIP3    H155394   0.235   3.926  13.350 -1.5771 -0.0673  1.7965
11301TIP3    H255395   0.148   4.038  13.299  0.5154  0.4875 -0.7760
11302TIP3   OH255396   3.616   6.085  15.807 -0.4943 -0.2595 -0.1082
11302TIP3    H155397   3.601   6.032  15.885 -1.6183  1.1557  0.6673
11302TIP3    H255398   3.711   6.095  15.803 -0.2221 -2.4783 -0.4108
11303TIP3   OH255399   5.481   6.342  13.946 -0.0953  0.0499 -0.4555
11303TIP3    H155400   5.472   6.415  13.885 -1.4824  1.2426  1.0829
11303TIP3    H255401   5.567   6.353  13.985  0.8865 -0.8296 -2.2470
11304TIP3   OH255402   1.537   5.034  13.094  0.7039  0.1903 -0.1154
11304TIP3    H155403   1.466   5.070  13.147  2.3910  0.3357  2.1616
11304TIP3    H255404   1.584   5.111  13.061 -0.0604  0.0917 -1.5624
11305TIP3   OH255405   5.411   0.101  13.580 -0.6068  0.3642 -0.0697
11305TIP3    H155406   5.345   0.035  13.600  1.7594 -1.6504  1.6833
11305TIP3    H255407   5.419   0.152  13.661  1.9959 -1.3964  0.9125
11306TIP3   OH255408   0.758   3.931  11.758 -0.5019 -0.2682  0.6546
11306TIP3    H155409   0.678   3.904  11.713  0.3752 -1.1551 -0.4457
11306TIP3    H255410   0.824   3.933  11.689  0.3679  0.7228  1.4942
11307TIP3   OH255411   6.248   4.741   1.594 -0.3510 -0.2682  0.6069
11307TIP3    H155412   6.197   4.762   1.516  0.7065  1.2391  0.2839
11307TIP3    H255413   6.278   4.651   1.579 -1.9134 -0.7770  0.2946
11308TIP3   OH255414   0.314   3.840   5.941  0.4696 -0.1538  0.5139
11308TIP3    H155415   0.342   3.749   5.948 -0.0300 -0.2514  1.4048
11308TIP3    H255416   0.321   3.874   6.029 -1.2120  0.0954  0.5852
11309TIP3   OH255417   4.896   6.154  15.853  0.0535  0.1448 -0.1182
11309TIP3    H155418   4.848   6.103  15.918  0.3265  1.8290  1.4969
11309TIP3    H255419   4.983   6.115  15.851  0.1410  0.2818  0.7971
11310TIP3   OH255420   0.621   6.279   3.307 -0.0461 -0.6229  0.3864
11310TIP3    H155421   0.589   6.333   3.378 -0.5956 -0.5682  0.1019
11310TIP3    H255422   0.681   6.336   3.258 -0.8742 -0.1588 -0.1046
11311TIP3   OH255423   5.598   3.697   2.850  0.0292  0.0156  0.5196
11311TIP3    H155424   5.662   3.761   2.818  0.5261 -1.0572 -0.7281
11311TIP3    H255425   5.640   3.659   2.927 -0.0478  0.8285  0.9686
11312TIP3   OH255426   5.764   5.785  12.101  0.0508 -0.3122 -0.1493
11312TIP3    H155427   5.809   5.772  12.018  2.4789 -1.4484  1.2364
11312TIP3    H255428   5.807   5.725  12.161 -2.1406 -0.0896  1.7776
11313TIP3   OH255429   0.059   6.739  12.462 -0.2477 -0.4055 -0.3331
11313TIP3    H155430   0.074   6.809  12.526 -0.3671 -0.5373 -0.1604
11313TIP3    H255431  -0.028   6.706  12.483 -0.5764  0.0168 -1.0049
11314TIP3   OH255432   6.233   4.398   4.514  0.0170 -0.1000 -0.0661
11314TIP3    H155433   6.231   4.309   4.479 -0.0037 -0.3267  0.5022
11314TIP3    H255434   6.261   4.453   4.440  0.7726 -0.6715 -0.2115
11315TIP3   OH255435   0.940   3.127  15.012 -0.0466 -0.4162 -0.6532
11315TIP3    H155436   0.912   3.053  15.067  0.8859  0.0361  0.4846
11315TIP3    H255437   0.905   3.108  14.925 -1.4790 -1.2181  0.0755
11316TIP3   OH255438   6.139   0.712  14.415 -0.1792 -0.7150 -0.0709
11316TIP3    H155439   6.227   0.676  14.397  0.1532 -0.5786  1.1841
11316TIP3    H255440   6.086   0.683  14.340  0.9268 -0.8146 -0.8454
11317TIP3   OH255441   3.375   6.603   4.931 -0.2701 -0.0860  0.4499
11317TIP3    H155442   3.460   6.575   4.897 -0.3826 -0.5146  0.5179
11317TIP3    H255443   3.323   6.523   4.936 -0.3289  0.0043  1.4260
11318TIP3   OH255444   3.112   4.305  11.416  0.2243 -0.1251 -0.5262
11318TIP3    H155445   3.044   4.345  11.472 -0.1680 -0.9059 -0.4356
11318TIP3    H255446   3.180   4.278  11.477  1.0038  1.3495 -0.6825
11319TIP3   OH255447   6.762   5.358  15.835 -0.7106 -0.5926 -0.7309
11319TIP3    H155448   6.802   5.345  15.921 -0.8218 -0.6937 -0.6950
11319TIP3    H255449   6.820   5.313  15.775  1.4765  2.5281 -1.2303
11320TIP3   OH255450   0.833   0.920  14.652 -0.2278  0.1224 -0.7114
11320TIP3    H155451   0.849   0.831  14.619 -0.4355  0.0352 -0.5776
11320TIP3    H255452   0.759   0.951  14.599 -1.1132 -0.3241  0.2182
11321TIP3   OH255453   5.717   2.549   2.233 -0.5788 -0.0932  0.3271
11321TIP3    H155454   5.789   2.494   2.202 -0.5590 -0.8209  1.5963
11321TIP3    H255455   5.655   2.551   2.161  0.8227  0.7875 -0.9175
11322TIP3   OH255456   1.221   1.948  16.442  0.0487  0.1217 -0.3952
11322TIP3    H155457   1.210   2.033  16.485  0.1862 -0.0920  0.0722
11322TIP3    H255458   1.149   1.944  16.379 -0.1146  0.4736 -0.2385
11323TIP3   OH255459   3.550   4.437  14.141  0.7636  0.2265 -0.6066
11323TIP3    H155460   3.494   4.399  14.073  3.4192 -0.2293 -2.7180
11323TIP3    H255461   3.533   4.384  14.218 -0.5024 -0.9224 -1.6196
11324TIP3   OH255462   4.113   3.435  14.903  0.3499 -0.3101 -0.3101
11324TIP3    H155463   4.097   3.499  14.973  0.4935  0.1428 -0.6908
11324TIP3    H255464   4.032   3.383  14.900  0.6262 -0.8324  0.7054
11325TIP3   OH255465   4.925   2.074   4.683 -0.2847 -0.1378 -0.1385
11325TIP3    H155466   4.853   2.080   4.621  0.7120 -0.0553 -1.3450
11325TIP3    H255467   4.928   1.981   4.708  1.0218 -0.7906 -2.4357
11326TIP3   OH255468   5.134   1.604   4.371 -0.1840 -0.4126  0.1794
11326TIP3    H155469   5.060   1.661   4.349 -0.8463 -1.4228 -0.2518
11326TIP3    H255470   5.204   1.665   4.396 -0.3456  0.6760 -1.8366
11327TIP3   OH255471   3.612   6.285  11.497  0.3775  0.3998 -0.8583
11327TIP3    H155472   3.551   6.212  11.485  1.6690 -0.4328 -2.7173
11327TIP3    H255473   3.651   6.298  11.411  0.9162  2.6605 -0.3303
11328TIP3   OH255474   6.260   3.525  15.348 -0.2850 -0.1528 -0.3450
11328TIP3    H155475   6.296   3.612  15.364  0.6468 -0.1419 -2.2517
11328TIP3    H255476   6.316   3.467  15.400 -0.2552  0.2624  0.1050
11329TIP3   OH255477   1.935   3.800  10.583 -0.2347  0.2246 -0.5278
11329TIP3    H155478   1.973   3.796  10.496 -0.4343 -1.9753 -0.5797
11329TIP3    H255479   1.844   3.773  10.571 -0.2030 -0.3387  0.3704
11330TIP3   OH255480   6.187   6.702   5.731 -0.2327  0.5832 -0.7530
11330TIP3    H155481   6.164   6.735   5.644 -1.2176  0.7789 -0.4297
11330TIP3    H255482   6.111   6.722   5.785 -0.3136 -0.9802 -0.2180
11331TIP3   OH255483   4.222   0.668   4.204 -0.1546  0.2781 -0.0212
11331TIP3    H155484   4.132   0.685   4.231 -0.7114 -0.5216 -1.3058
11331TIP3    H255485   4.253   0.752   4.170  0.3543  1.1426  2.3944
11332TIP3   OH255486   3.550   0.734  13.828  0.1150  0.6550 -0.6974
11332TIP3    H155487   3.455   0.746  13.827 -0.0962 -0.5528  1.0015
11332TIP3    H255488   3.584   0.812  13.871 -0.4351 -0.3684  1.7363
11333TIP3   OH255489   0.863   2.277   4.551  0.0931 -0.0424  0.1154
11333TIP3    H155490   0.934   2.310   4.496  0.6041 -2.9112 -1.1245
11333TIP3    H255491   0.874   2.324   4.634  1.3879  1.9546 -1.0896
11334TIP3   OH255492   4.233   1.581   5.090  0.5141 -0.2038  0.1861
11334TIP3    H155493   4.175   1.529   5.033 -0.8617 -0.5622  1.8496
11334TIP3    H255494   4.260   1.655   5.035 -3.4028  1.2743 -0.0405
11335TIP3   OH255495   3.797   3.794   0.156  0.1467 -0.9388  0.1389
11335TIP3    H155496   3.873   3.846   0.183 -0.3430  0.6397 -1.2761
11335TIP3    H255497   3.744   3.785   0.235 -0.9148  2.8778  0.1045
11336TIP3   OH255498   0.418   2.722  15.215 -0.3619  0.0542  0.2510
11336TIP3    H155499   0.347   2.771  15.257  1.4952  0.1819  3.5797
11336TIP3    H255500   0.388   2.632  15.216 -0.8581  0.2151  0.8554
11337TIP3   OH255501   5.750   5.824  12.974  0.2544 -0.3637  0.0449
11337TIP3    H155502   5.837   5.816  13.013  0.1706 -0.2391  0.2583
11337TIP3    H255503   5.690   5.817  13.048  0.0554 -1.0282 -0.1673
11338TIP3   OH255504   3.590   1.313   4.908  0.0093 -0.4540  0.4883
11338TIP3    H155505   3.641   1.368   4.967 -0.6780  0.2392  0.4443
11338TIP3    H255506   3.499   1.339   4.923 -0.4483 -2.2462  1.1833
11339TIP3   OH255507   1.674   4.992  12.685 -0.2046 -0.0923  1.0236
11339TIP3    H155508   1.769   4.982  12.689 -0.3369 -3.3844 -0.5621
11339TIP3    H255509   1.640   4.920  12.737 -1.9179  1.5783  2.3509
11340TIP3   OH255510   3.594   3.045   2.674 -0.8309 -0.1606 -0.0421
11340TIP3    H155511   3.508   3.026   2.636 -1.2465 -2.5523  1.8588
11340TIP3    H255512   3.641   2.962   2.670  0.0542  0.1693  2.1890
11341TIP3   OH255513   2.188   3.119  14.202  0.1377  0.1800  0.3341
11341TIP3    H155514   2.154   3.197  14.157  0.7133 -0.2557 -0.9089
11341TIP3    H255515   2.152   3.045  14.153 -0.0324 -0.3471  1.2241
11342TIP3   OH255516   6.689   1.512  13.040  0.1035  0.7158 -0.1944
11342TIP3    H155517   6.782   1.505  13.061  0.4461  3.2284 -0.6034
11342TIP3    H255518   6.652   1.564  13.112 -0.5742  1.3965 -1.0086
11343TIP3   OH255519   1.155   3.651   2.262  0.0823 -0.5766 -0.3137
11343TIP3    H155520   1.149   3.727   2.319  0.6777  0.2149 -1.2540
11343TIP3    H255521   1.074   3.651   2.212 -0.1959 -0.9379  0.1388
11344TIP3   OH255522   1.272   5.961   1.852  1.0675  0.2763  0.4159
11344TIP3    H155523   1.232   6.007   1.926 -0.7480 -0.4355 -0.0912
11344TIP3    H255524   1.343   5.911   1.892  0.6621  0.5651  1.5448
11345TIP3   OH255525   5.790   5.333   5.459  0.3832  0.4258 -0.8250
11345TIP3    H155526   5.740   5.272   5.512 -1.2153  2.6829  0.4315
11345TIP3    H255527   5.761   5.316   5.369  1.2385 -1.7242 -0.7477
11346TIP3   OH255528   5.634   6.811  13.274 -0.3049  0.5291 -0.3673
11346TIP3    H155529   5.633   6.736  13.334  3.4333 -0.7317 -1.5519
11346TIP3    H255530   5.622   6.773  13.187 -1.4228  1.7635 -0.7876
11347TIP3   OH255531   5.751   4.108   5.523  0.1948 -0.0671 -0.3262
11347TIP3    H155532   5.807   4.126   5.599  0.8333 -2.0564 -0.2864
11347TIP3    H255533   5.791   4.032   5.481  0.6393  1.7042 -3.4399
11348TIP3   OH255534   2.748   5.549   5.288 -0.2402  1.2426  0.0020
11348TIP3    H155535   2.730   5.466   5.244 -0.6231  1.0389  0.5339
11348TIP3    H255536   2.714   5.538   5.377 -0.1088  1.8953  0.1453
11349TIP3   OH255537   5.676   6.767  13.660  0.5806 -0.1239  0.4559
11349TIP3    H155538   5.757   6.809  13.633  0.9024  0.7079  2.4895
11349TIP3    H255539   5.607   6.828  13.633  0.8753  0.5905  1.2517
11350TIP3   OH255540   6.582   0.101  11.231 -0.1590  0.1807 -0.5152
11350TIP3    H155541   6.511   0.084  11.169  1.8055 -1.7906 -2.4118
11350TIP3    H255542   6.657   0.054  11.195  1.4358 -0.0902  2.7860
11351TIP3   OH255543   4.661   4.881   4.804  0.3398 -0.3616  0.1186
11351TIP3    H155544   4.736   4.821   4.799 -0.1186 -0.8912 -3.4999
11351TIP3    H255545   4.616   4.870   4.719 -1.1544  3.3724  0.2308
11352TIP3   OH255546   3.040   3.236   4.611  0.1702  0.0208  0.1305
11352TIP3    H155547   3.094   3.262   4.537  1.0462 -0.6411  0.5189
11352TIP3    H255548   3.101   3.232   4.685 -0.4301 -0.6038  0.6099
11353TIP3   OH255549   1.766   4.886   4.863 -0.1767  0.1662 -0.4304
11353TIP3    H155550   1.758   4.795   4.837  0.2225  0.4393 -1.5862
11353TIP3    H255551   1.839   4.887   4.925  0.1949 -0.2275 -0.8509
11354TIP3   OH255552   1.681   3.593   2.242 -0.4102  0.1339  0.0198
11354TIP3    H155553   1.617   3.660   2.267  0.6334  2.0336 -1.9923
11354TIP3    H255554   1.666   3.522   2.303 -1.4404  2.2836  2.4748
11355TIP3   OH255555   0.943   0.787   4.876  0.2123 -0.3363 -0.7005
11355TIP3    H155556   0.983   0.764   4.792 -2.1241  1.7182 -2.5435
11355TIP3    H255557   0.851   0.761   4.866 -0.5926  1.9048  0.3460
11356TIP3   OH255558   2.868   0.758  10.828 -0.0880 -0.4700 -0.5859
11356TIP3    H155559   2.814   0.835  10.808  0.9806  0.6275  0.5825
11356TIP3    H255560   2.955   0.794  10.845  0.1084 -1.7562  1.4834
11357TIP3   OH255561   3.478   3.560   3.115 -0.3081  0.0191  0.1101
11357TIP3    H155562   3.495   3.651   3.091 -1.4842 -0.0774 -1.1899
11357TIP3    H255563   3.561   3.515   3.099  0.3876  0.9109  1.1020
11358TIP3   OH255564   5.664   2.578  13.415  0.3752 -0.0199  0.2282
11358TIP3    H155565   5.655   2.526  13.495  0.5108 -0.0025  0.2542
11358TIP3    H255566   5.589   2.637  13.417  0.0672 -0.4013  0.0576
11359TIP3   OH255567   5.985   5.094  12.744  0.2718  0.1497 -0.1432
11359TIP3    H155568   5.893   5.067  12.739  0.0339  0.3233  2.2052
11359TIP3    H255569   5.987   5.181  12.705 -0.7816  0.5461  0.6353
11360TIP3   OH255570   5.356   6.315   3.418  0.2360  0.2933 -0.5160
11360TIP3    H155571   5.424   6.344   3.480  0.1050 -1.4260  0.4857
11360TIP3    H255572   5.342   6.223   3.440 -2.4003  0.5879 -0.7264
11361TIP3   OH255573   3.028   0.804   0.716 -0.7086  0.0290  1.0797
11361TIP3    H155574   3.065   0.811   0.804 -1.8895  1.3104  1.5100
11361TIP3    H255575   3.016   0.895   0.687  0.9606 -0.3229 -1.0134
11362TIP3   OH255576   3.030   6.165  13.522 -0.0280 -0.1836  0.1401
11362TIP3    H155577   2.992   6.125  13.443  0.4160 -0.3224 -0.0068
11362TIP3    H255578   2.962   6.225  13.553 -0.6149 -0.8848  0.2351
11363TIP3   OH255579   3.071   1.431   1.035 -0.3508  0.2652  0.0043
11363TIP3    H155580   3.070   1.527   1.040 -1.0644  0.1965  1.4967
11363TIP3    H255581   3.092   1.402   1.123  0.8769 -0.9661 -0.6594
11364TIP3   OH255582   3.644   1.166  11.639 -0.0098 -0.5127  0.1625
11364TIP3    H155583   3.590   1.118  11.576  0.7827 -1.4068  0.1416
11364TIP3    H255584   3.621   1.128  11.724 -0.2213 -0.1211  0.2819
11365TIP3   OH255585   1.324   3.809  16.782 -0.3000 -0.3456  0.3879
11365TIP3    H155586   1.300   3.888  16.734 -0.3569 -0.8115 -0.3602
11365TIP3    H255587   1.263   3.742  16.750 -0.7474 -0.5194  1.5501
11366TIP3   OH255588   0.323   4.306   0.506  0.2517  0.4404 -0.0169
11366TIP3    H155589   0.330   4.225   0.455  1.4208 -0.5135  1.5803
11366TIP3    H255590   0.342   4.375   0.442 -0.3621 -0.5533 -1.3237
11367TIP3   OH255591   3.392   5.734  14.826 -0.6567  0.1488  0.6183
11367TIP3    H155592   3.383   5.656  14.881  0.2759 -0.4052  0.0145
11367TIP3    H255593   3.468   5.780  14.862 -0.2323 -0.0562  0.0031
11368TIP3   OH255594   1.703   5.607   2.992  0.4095  0.4433 -0.7946
11368TIP3    H155595   1.688   5.603   2.897  0.4519 -1.8439 -0.7644
11368TIP3    H255596   1.619   5.581   3.030  0.7498  0.1269 -0.2518
11369TIP3   OH255597   3.993   0.181  11.423  0.1037  0.1097 -0.4997
11369TIP3    H155598   3.917   0.187  11.480 -0.2398 -0.4253 -0.8876
11369TIP3    H255599   4.014   0.272  11.401 -0.8102  0.2376 -0.8878
11370TIP3   OH255600   4.576   6.464  11.517 -0.2270  0.1639 -0.3445
11370TIP3    H155601   4.546   6.544  11.561 -0.3841 -0.4929  0.7788
11370TIP3    H255602   4.658   6.490  11.474 -0.7530  1.1549 -0.7661
11371TIP3   OH255603   3.504   4.918  15.757 -0.0672 -0.0129  0.2921
11371TIP3    H155604   3.562   4.851  15.721 -0.7133  0.0973 -0.9703
11371TIP3    H255605   3.419   4.874  15.767 -0.8698  0.9319 -1.8394
11372TIP3   OH255606   5.206   6.218   2.268 -0.8983 -0.4891 -0.6697
11372TIP3    H155607   5.192   6.165   2.346  0.2116  0.9255  0.5380
11372TIP3    H255608   5.125   6.268   2.259  0.0016  1.4547  1.3209
11373TIP3   OH255609   1.633   1.436   1.100  0.0249 -0.2645  0.4577
11373TIP3    H155610   1.641   1.341   1.112 -0.2678 -0.2579  0.7423
11373TIP3    H255611   1.723   1.468   1.096  0.1925 -0.8568 -2.3351
11374TIP3   OH255612   1.225   5.498  11.133  0.1971 -0.0276  0.0508
11374TIP3    H155613   1.170   5.573  11.156  0.2711  0.2250 -0.5711
11374TIP3    H255614   1.313   5.522  11.162 -0.3401 -1.4281  3.3271
11375TIP3   OH255615   2.686   2.912   4.249 -0.1048  0.0037 -0.3727
11375TIP3    H155616   2.734   2.907   4.332 -0.7687  0.3639  0.0402
11375TIP3    H255617   2.750   2.945   4.186  0.6194 -1.0006 -0.1902
11376TIP3   OH255618   4.880   1.098  11.643 -0.9290 -0.3893  0.1768
11376TIP3    H155619   4.897   1.039  11.569  0.3973  1.1115 -0.7735
11376TIP3    H255620   4.892   1.042  11.720  0.3865 -1.3776 -0.6848
11377TIP3   OH255621   5.271   2.089   5.602 -0.8705 -0.4208  0.0284
11377TIP3    H155622   5.214   2.166   5.594 -0.1690  0.2455  1.1862
11377TIP3    H255623   5.354   2.116   5.563 -0.0625  0.0482  1.9670
11378TIP3   OH255624   0.412   5.229  14.826 -0.0341  0.5678 -0.2965
11378TIP3    H155625   0.492   5.227  14.774 -0.6150  1.3651 -1.2593
11378TIP3    H255626   0.415   5.313  14.872 -0.5761  0.8599 -0.7816
11379TIP3   OH255627   2.073   4.144   5.440  0.1753  0.0493 -0.2778
11379TIP3    H155628   2.125   4.072   5.476 -1.1420 -1.0417 -0.4715
11379TIP3    H255629   2.003   4.158   5.504  0.1462  0.8344 -0.4764
11380TIP3   OH255630   2.004   2.175   4.177 -0.5819  0.8260 -0.4502
11380TIP3    H155631   1.976   2.092   4.216 -0.0185  1.2569  0.9588
11380TIP3    H255632   1.934   2.237   4.200  0.7291  1.5774  1.8505
11381TIP3   OH255633   5.328   4.169   1.932 -0.6320  0.3276  0.0407
11381TIP3    H155634   5.246   4.129   1.901 -0.4215  0.2324 -0.4064
11381TIP3    H255635   5.362   4.107   1.996 -0.2912 -0.2484 -0.6691
11382TIP3   OH255636   4.590   4.744  13.188  0.6410  0.1402 -0.0090
11382TIP3    H155637   4.529   4.790  13.132  1.0338  1.5061  0.6330
11382TIP3    H255638   4.590   4.794  13.270  1.9938 -0.2855  0.2902
11383TIP3   OH255639   0.646   3.568   5.122  0.1586  0.1654 -0.2523
11383TIP3    H155640   0.641   3.473   5.117  0.1195 -0.0639  2.5441
11383TIP3    H255641   0.627   3.598   5.033 -0.9167 -2.3860 -0.9768
11384TIP3   OH255642   3.811   6.347   4.264  0.2721  0.3065  0.2882
11384TIP3    H155643   3.737   6.309   4.216  0.4091 -0.1229  0.4065
11384TIP3    H255644   3.796   6.321   4.355  1.4620 -1.3058  0.0717
11385TIP3   OH255645   6.515   5.146   4.806 -0.0410 -0.2450  0.3191
11385TIP3    H155646   6.569   5.216   4.843  1.8255 -1.7957  0.6238
11385TIP3    H255647   6.488   5.180   4.720  1.0901  0.7118  0.3126
11386TIP3   OH255648   4.235   5.241   0.069 -0.0682 -0.4154 -0.5197
11386TIP3    H155649   4.188   5.240  -0.015  1.1034  2.7638 -1.3268
11386TIP3    H255650   4.182   5.297   0.125  1.0835  0.5744 -0.3994
11387TIP3   OH255651   2.492   3.365  13.494 -0.2188  0.0609  0.7165
11387TIP3    H155652   2.501   3.460  13.486 -1.8776  0.4005  2.3557
11387TIP3    H255653   2.574   3.336  13.534  1.6166  0.3042 -2.4807
11388TIP3   OH255654   3.248   1.956   3.063  0.6781  0.0779 -0.1818
11388TIP3    H155655   3.337   1.982   3.039  0.5883  0.5958  0.0237
11388TIP3    H255656   3.259   1.873   3.109  0.9961 -0.1596 -0.6727
11389TIP3   OH255657   2.802   6.169  12.944 -0.1006 -0.1157 -0.3994
11389TIP3    H155658   2.846   6.096  12.988 -1.1242 -0.7195 -0.3418
11389TIP3    H255659   2.871   6.213  12.895  0.6880 -0.6305  0.2324
11390TIP3   OH255660   3.406   2.247  14.052 -0.6131 -0.1710  0.1676
11390TIP3    H155661   3.361   2.287  13.978 -2.4672 -2.1435  0.1308
11390TIP3    H255662   3.405   2.314  14.120  0.2038  1.3051 -1.2292
11391TIP3   OH255663   6.028   5.471  15.774 -0.2538  0.0712  0.2028
11391TIP3    H155664   6.109   5.521  15.781  0.4150 -0.5314 -2.2698
11391TIP3    H255665   6.047   5.387  15.817  0.7209 -0.3558 -1.0136
11392TIP3   OH255666   6.250   1.649   0.127  0.3358  0.6925 -0.4920
11392TIP3    H155667   6.161   1.675   0.151  0.5699  0.2752  0.8796
11392TIP3    H255668   6.240   1.610   0.040 -1.0209 -0.3620  0.0975
11393TIP3   OH255669   5.653   3.985  10.986  0.4711 -0.2850  0.0892
11393TIP3    H155670   5.569   3.969  11.029 -0.9136 -1.6754 -2.8218
11393TIP3    H255671   5.632   4.045  10.914  2.1929  0.1792 -0.0670
11394TIP3   OH255672   0.099   1.350  14.873  0.3772  0.5224  0.0955
11394TIP3    H155673   0.010   1.384  14.882 -0.2806 -0.8557 -0.8141
11394TIP3    H255674   0.104   1.280  14.938  1.3264  1.5307  1.1563
11395TIP3   OH255675   2.959   5.135   3.908 -0.5578  0.2890 -0.4453
11395TIP3    H155676   2.874   5.093   3.894 -1.0925  1.1849  0.0411
11395TIP3    H255677   3.021   5.062   3.915 -1.3037 -0.3780 -0.6428
11396TIP3   OH255678   3.983   1.930   0.093 -0.2518 -0.2146 -0.2262
11396TIP3    H155679   4.074   1.910   0.071  0.6359  1.4269  1.6735
11396TIP3    H255680   3.931   1.879   0.030  1.8983 -2.7908 -0.0559
11397TIP3   OH255681   3.496   2.166   2.500  0.3357 -0.2842 -0.4590
11397TIP3    H155682   3.501   2.182   2.406 -0.1072 -0.6191 -0.5436
11397TIP3    H255683   3.574   2.209   2.536  1.1126 -1.0976 -1.1119
11398TIP3   OH255684   1.282   5.635   3.228 -0.5519  0.2345 -0.1085
11398TIP3    H155685   1.205   5.629   3.171 -1.9423  2.3346  1.3928
11398TIP3    H255686   1.250   5.604   3.314  1.3756 -2.4682 -0.2388
11399TIP3   OH255687   0.139   2.673   0.675  0.0354 -0.6928  0.0655
11399TIP3    H155688   0.185   2.600   0.634 -1.4608 -1.9620  0.5543
11399TIP3    H255689   0.046   2.651   0.666 -0.4577  1.1196  0.3075
11400TIP3   OH255690   6.083   0.169   3.262 -0.4837  0.3331  0.2369
11400TIP3    H155691   6.020   0.237   3.285 -0.0405  0.9692 -0.3970
11400TIP3    H255692   6.034   0.087   3.270 -1.4457  0.8244 -0.4159
11401TIP3   OH255693   6.456   3.834  12.084 -0.5351  0.2148 -0.3732
11401TIP3    H155694   6.425   3.794  12.003 -0.7271  0.7934 -0.5880
11401TIP3    H255695   6.497   3.916  12.057 -1.8365  1.1073  0.2351
11402TIP3   OH255696   2.420   4.769   5.065 -0.6895 -0.0413  0.1324
11402TIP3    H155697   2.450   4.847   5.112  3.0009 -1.2990  0.1503
11402TIP3    H255698   2.397   4.707   5.135  0.4202 -0.3644  0.2236
11403TIP3   OH255699   0.367   4.026  13.696  0.4985  0.1220 -0.2311
11403TIP3    H155700   0.385   4.065  13.610  0.4023 -1.6829 -1.1029
11403TIP3    H255701   0.448   3.981  13.719  0.6148  0.8110  0.7857
11404TIP3   OH255702   5.194   1.194   5.470  0.0212 -0.4002 -0.2851
11404TIP3    H155703   5.151   1.165   5.389 -1.6309  1.9598 -0.3630
11404TIP3    H255704   5.175   1.125   5.533 -0.0671 -1.5066 -1.4796
11405TIP3   OH255705   3.516   1.795   0.885  0.0958 -0.1258 -0.0763
11405TIP3    H155706   3.510   1.888   0.905  0.0125 -0.5429  1.9840
11405TIP3    H255707   3.610   1.777   0.881  0.1401 -0.2462  1.1287
11406TIP3   OH255708   2.608   0.523   0.817  0.7717 -0.1337  0.3002
11406TIP3    H155709   2.658   0.446   0.845  1.1843  1.1545  3.5728
11406TIP3    H255710   2.669   0.597   0.829  0.0729  0.8701 -1.8106
11407TIP3   OH255711   4.373   6.370  14.983  0.7020  0.2978 -0.7301
11407TIP3    H155712   4.318   6.444  14.955  0.9937  0.1272 -1.8061
11407TIP3    H255713   4.398   6.392  15.073  0.2584  1.2004 -0.8071
11408TIP3   OH255714   2.465   2.251   4.977 -0.7676  0.2522 -0.0182
11408TIP3    H155715   2.501   2.170   5.013 -0.3856  0.4744  0.0989
11408TIP3    H255716   2.432   2.225   4.891  0.9621  0.3360 -0.7468
11409TIP3   OH255717   1.974   4.585  13.869  0.8775  0.3541 -0.3754
11409TIP3    H155718   2.012   4.504  13.836  3.1983  0.3240  2.0742
11409TIP3    H255719   1.919   4.558  13.942  0.1827  0.8634 -0.6991
11410TIP3   OH255720   1.924   4.292  11.302  0.3736 -0.3899  0.3702
11410TIP3    H155721   1.977   4.317  11.226 -2.1640  4.2785 -0.2911
11410TIP3    H255722   1.962   4.343  11.374 -0.9468  0.1735  0.6902
11411TIP3   OH255723   3.508   1.694  13.142  0.5401 -0.3236  0.1492
11411TIP3    H155724   3.552   1.609  13.151 -0.0873 -0.6823 -0.0900
11411TIP3    H255725   3.532   1.742  13.221  0.4550 -0.9394  0.5574
11412TIP3   OH255726   1.564   0.504   6.320 -0.5092  0.2710  0.2022
11412TIP3    H155727   1.514   0.425   6.301 -0.0231 -0.2683  1.0696
11412TIP3    H255728   1.643   0.472   6.364  0.3094  1.1481 -0.5873
11413TIP3   OH255729   4.810   6.547   0.715 -0.6391  0.2721 -0.1855
11413TIP3    H155730   4.810   6.600   0.795 -0.4770 -0.5447  0.3557
11413TIP3    H255731   4.753   6.596   0.655 -0.1101  1.3065  0.1369
11414TIP3   OH255732   4.163   3.299  11.037  0.3067 -0.5964  0.4684
11414TIP3    H155733   4.130   3.213  11.012  1.2872 -0.8902  0.1781
11414TIP3    H255734   4.224   3.323  10.968 -0.7916  0.8493 -0.0552
11415TIP3   OH255735   6.657   5.318  12.226  0.1317 -0.0227  0.0695
11415TIP3    H155736   6.717   5.346  12.295  0.7558  1.7063 -1.1254
11415TIP3    H255737   6.571   5.316  12.269  0.8471 -1.6515  1.5640
11416TIP3   OH255738   0.942   1.175   5.156 -0.4511  0.2893 -0.0565
11416TIP3    H155739   0.971   1.084   5.152  1.1020  0.7665 -0.5793
11416TIP3    H255740   0.858   1.172   5.202 -0.3061 -1.3671  0.1563
11417TIP3   OH255741   0.007   0.439  12.046 -0.2933  0.2313  0.4785
11417TIP3    H155742   0.017   0.489  11.965 -2.0982  0.2092  0.2158
11417TIP3    H255743   0.074   0.475  12.104  0.8221  0.4700 -0.8960
11418TIP3   OH255744   6.225   3.483   3.483 -0.1345  0.2344 -0.3570
11418TIP3    H155745   6.166   3.407   3.480  0.0828  0.0969 -1.5925
11418TIP3    H255746   6.170   3.554   3.517 -0.2754 -0.5139  1.0653
11419TIP3   OH255747   0.686   3.498  14.992 -0.7429 -0.3404 -0.3873
11419TIP3    H155748   0.606   3.476  15.039 -0.0812 -1.0511  0.4411
11419TIP3    H255749   0.657   3.520  14.904 -1.9768  0.7128  0.2536
11420TIP3   OH255750   0.820   1.203  11.341 -0.1082 -0.2041 -0.0473
11420TIP3    H155751   0.860   1.188  11.427  1.8025  0.2888 -0.8023
11420TIP3    H255752   0.870   1.148  11.281 -1.3376 -0.4520 -0.9040
11421TIP3   OH255753   5.068   0.488   6.088  0.0036 -0.4618  0.4785
11421TIP3    H155754   5.046   0.560   6.029  0.3084 -1.0601 -0.3756
11421TIP3    H255755   5.046   0.522   6.175 -0.6433  0.3546  0.0147
11422TIP3   OH255756   2.707   5.646  11.800 -0.2139  0.4121 -0.1442
11422TIP3    H155757   2.630   5.608  11.757  0.2068 -0.0463 -0.5083
11422TIP3    H255758   2.743   5.574  11.852  0.9912  0.0555 -1.3796
11423TIP3   OH255759   0.190   5.879  12.297  0.3833  0.7931 -0.0296
11423TIP3    H155760   0.156   5.913  12.214  2.5187  0.9799 -0.9038
11423TIP3    H255761   0.274   5.838  12.273  0.0446 -1.0732  1.7126
11424TIP3   OH255762   6.351   0.875   5.814  0.3706  0.1862 -0.0643
11424TIP3    H155763   6.334   0.965   5.786 -0.8470 -0.8612 -3.2050
11424TIP3    H255764   6.275   0.852   5.868  0.6616  0.9845  0.7116
11425TIP3   OH255765   3.066   0.603   2.283 -0.1282  0.4094  0.1282
11425TIP3    H155766   3.098   0.540   2.218  1.1208 -0.6812  1.7075
11425TIP3    H255767   3.025   0.549   2.350 -0.2824  1.4046  0.8543
11426TIP3   OH255768   4.512   2.375   0.166 -0.2476 -0.1178  0.0792
11426TIP3    H155769   4.601   2.384   0.130 -1.1587 -0.0306 -2.3948
11426TIP3    H255770   4.505   2.447   0.229  1.8641 -0.9837  1.4092
11427TIP3   OH255771   0.881   3.521  14.656  0.3139 -0.2195  0.0786
11427TIP3    H155772   0.869   3.616  14.663  1.3893  0.0319 -1.0835
11427TIP3    H255773   0.903   3.493  14.745 -1.3488  0.3923  0.7160
11428TIP3   OH255774   1.763   4.960   0.139 -0.0468 -0.1750  0.0151
11428TIP3    H155775   1.750   5.024   0.209 -0.3338  0.9037 -0.9935
11428TIP3    H255776   1.832   4.902   0.172 -0.8750 -0.3251  1.5983
11429TIP3   OH255777   0.477   6.613   4.522 -0.3554  0.1161  0.1313
11429TIP3    H155778   0.457   6.681   4.459 -0.5652  0.0772  0.1564
11429TIP3    H255779   0.451   6.531   4.480  0.6470 -0.0401 -0.2295
11430TIP3   OH255780   1.331   6.409   4.303 -0.2817 -0.6509  0.1127
11430TIP3    H155781   1.267   6.421   4.373 -0.6646 -1.1478 -0.1468
11430TIP3    H255782   1.332   6.494   4.258  2.3304  0.8153  2.6236
11431TIP3   OH255783   5.128   0.459  11.950 -0.1789  0.2466  0.6246
11431TIP3    H155784   5.075   0.485  11.874  0.7947  2.6527  0.6665
11431TIP3    H255785   5.163   0.373  11.927 -0.3059  0.7044 -1.4755
11432TIP3   OH255786   1.858   5.704   0.135  0.2682 -0.1347 -0.0840
11432TIP3    H155787   1.870   5.672   0.225 -1.0260 -0.5889 -0.0498
11432TIP3    H255788   1.796   5.642   0.096  0.0774  0.6044 -0.9946
11433TIP3   OH255789   6.177   2.835   4.988  0.1660 -0.2937  0.3449
11433TIP3    H155790   6.226   2.913   4.961 -0.1363 -0.0985  0.3580
11433TIP3    H255791   6.172   2.782   4.909 -1.6791  0.7767 -0.3177
11434TIP3   OH255792   2.222   3.835  12.871 -0.4678 -0.3441 -0.5173
11434TIP3    H155793   2.220   3.850  12.777 -3.4464 -1.5450 -0.7412
11434TIP3    H255794   2.166   3.903  12.907 -1.1269 -1.2094  0.1305
11435TIP3   OH255795   6.442   0.279   2.845 -0.4285 -0.7005  0.1026
11435TIP3    H155796   6.459   0.200   2.895  0.2302  0.5116  1.9089
11435TIP3    H255797   6.348   0.277   2.828 -0.3498 -2.0557 -0.2788
11436TIP3   OH255798   0.536   4.731  12.909  0.2944 -0.3186 -0.7780
11436TIP3    H155799   0.556   4.823  12.922  4.5314 -1.4200  3.5620
11436TIP3    H255800   0.579   4.708  12.827  0.3357  1.3204 -1.2386
11437TIP3   OH255801   4.191   1.864   1.614  0.3484 -0.1375 -0.6555
11437TIP3    H155802   4.270   1.842   1.566  1.4753 -1.4010  1.6386
11437TIP3    H255803   4.220   1.920   1.686 -0.4973 -1.9804  1.2203
11438TIP3   OH255804   4.421   2.090  14.935 -0.6423 -0.3626 -0.0483
11438TIP3    H155805   4.466   2.087  15.020 -0.6142  1.3511  0.0163
11438TIP3    H255806   4.492   2.081  14.871 -0.4889 -0.0593  0.0802
11439TIP3   OH255807   0.622   0.219   0.548  0.3011 -0.0094 -0.7338
11439TIP3    H155808   0.713   0.234   0.574  0.5646 -0.6999 -1.2249
11439TIP3    H255809   0.603   0.130   0.577 -0.1255  0.0328 -0.8808
11440TIP3   OH255810   1.709   0.319  16.586 -0.2741  0.0369  0.3696
11440TIP3    H155811   1.623   0.283  16.609 -0.7908  0.9227 -0.1090
11440TIP3    H255812   1.744   0.353  16.668 -1.4282  1.7792  0.1898
11441TIP3   OH255813   3.373   0.503   3.210 -0.2171  0.1279 -0.2558
11441TIP3    H155814   3.431   0.542   3.275  0.4779 -0.9834 -0.1934
11441TIP3    H255815   3.348   0.577   3.154  0.6177  0.7683  0.1855
11442TIP3   OH255816   4.002   6.415   4.605 -0.0470  0.6307 -0.1522
11442TIP3    H155817   3.975   6.406   4.696 -1.6638  1.8615 -0.4591
11442TIP3    H255818   4.075   6.353   4.595  0.5301  0.8682  2.0916
11443TIP3   OH255819   2.090   1.473  13.441  0.0634  0.2203 -0.2079
11443TIP3    H155820   2.039   1.468  13.361 -0.3461 -4.6651 -0.0014
11443TIP3    H255821   2.181   1.471  13.412 -0.0800 -1.9614 -0.7222
11444TIP3   OH255822   5.771   1.970  14.994 -0.4865 -0.2118 -0.4610
11444TIP3    H155823   5.718   1.890  15.000 -0.0666 -0.5241 -0.7673
11444TIP3    H255824   5.860   1.940  15.015 -0.4546  0.3282  0.1726
11445TIP3   OH255825   3.413   0.967  11.238 -0.2012 -0.3388 -0.0673
11445TIP3    H155826   3.442   1.047  11.282  1.6632 -0.6838 -0.5876
11445TIP3    H255827   3.405   0.903  11.308  0.3706 -0.2420  0.0927
11446TIP3   OH255828   1.567   5.220  14.200  0.6623 -0.1182 -0.5233
11446TIP3    H155829   1.616   5.232  14.119 -0.7029 -0.8147 -1.4877
11446TIP3    H255830   1.573   5.305  14.244  0.2873  0.7099 -2.0092
11447TIP3   OH255831   5.506   2.091  14.578 -0.3097  0.1209  0.2872
11447TIP3    H155832   5.448   2.084  14.654 -1.9921  0.5609 -0.8944
11447TIP3    H255833   5.476   2.169  14.532  1.0138  0.1538 -0.5619
11448TIP3   OH255834   6.382   0.544   0.372 -0.1420 -0.4855 -0.2836
11448TIP3    H155835   6.418   0.584   0.293 -0.6668  0.2326 -0.1664
11448TIP3    H255836   6.345   0.617   0.422 -0.3891 -1.0101  0.3239
11449TIP3   OH255837   4.114   2.134   4.958 -0.0907 -0.1536  0.4444
11449TIP3    H155838   4.061   2.172   4.888 -0.9071 -1.3763  0.3595
11449TIP3    H255839   4.198   2.114   4.917 -0.7737 -1.4477 -0.3938
11450TIP3   OH255840   1.735   0.271   1.236 -0.5179  1.3139  0.7150
11450TIP3    H155841   1.782   0.189   1.251 -2.5318  0.3796  2.5831
11450TIP3    H255842   1.741   0.317   1.320 -0.0903  2.7354 -0.0706
11451TIP3   OH255843   6.344   4.980  10.227  0.2838  0.1887 -0.2238
11451TIP3    H155844   6.405   4.911  10.203  0.6834  1.2587 -2.5485
11451TIP3    H255845   6.261   4.935  10.242  0.9344 -0.9553  0.0732
11452TIP3   OH255846   0.776   0.816   0.447  0.1081 -0.1085  0.1964
11452TIP3    H155847   0.830   0.765   0.385  0.1403  0.2662 -0.0865
11452TIP3    H255848   0.840   0.861   0.502  0.1381  1.4826 -1.0598
11453TIP3   OH255849   5.078   5.070  13.666  0.2827  0.5747  0.2469
11453TIP3    H155850   5.144   5.022  13.616 -0.3875  0.6760 -0.7698
11453TIP3    H255851   5.062   5.015  13.743  0.2452 -0.3521 -0.3972
11454TIP3   OH255852   4.716   0.688   3.441  0.5413 -0.5802  0.1845
11454TIP3    H155853   4.790   0.747   3.442  1.4607 -1.6914  1.3743
11454TIP3    H255854   4.666   0.711   3.519 -0.1564 -0.1199 -0.3840
11455TIP3   OH255855   3.011   1.869   2.073 -0.0327  0.0394 -0.0120
11455TIP3    H155856   2.928   1.888   2.029 -0.3898 -0.0501  0.6025
11455TIP3    H255857   2.990   1.798   2.133 -0.6042  2.7048  3.2574
11456TIP3   OH255858   2.181   0.383   0.330 -0.0556  0.1032  0.2618
11456TIP3    H155859   2.265   0.411   0.366 -0.1086  2.6908 -1.3420
11456TIP3    H255860   2.116   0.417   0.391 -0.0083  1.3388 -0.3298
11457TIP3   OH255861   0.937   3.402  15.756 -0.2080 -0.0032  0.4583
11457TIP3    H155862   0.919   3.495  15.743  1.3475  0.3603  0.7895
11457TIP3    H255863   0.926   3.364  15.669 -0.5964  0.5188  0.2667
11458TIP3   OH255864   4.798   5.171  16.972  0.2623  0.0165 -0.0386
11458TIP3    H155865   4.855   5.102  17.008  2.1333  1.4029 -0.1544
11458TIP3    H255866   4.766   5.218  17.050 -0.1947 -0.3576  0.0021
11459TIP3   OH255867   6.449   2.293  15.705 -0.2411  0.1099 -0.0849
11459TIP3    H155868   6.503   2.253  15.637  0.4118 -0.1183  0.5389
11459TIP3    H255869   6.471   2.386  15.701  0.0500  0.0492  0.0228
11460TIP3   OH255870   2.061   6.440   6.356 -0.5127  0.0354  0.5912
11460TIP3    H155871   2.125   6.370   6.362 -1.4812 -1.2764 -2.5686
11460TIP3    H255872   2.075   6.479   6.270 -1.5216  2.2642  1.3332
11461TIP3   OH255873   6.767   5.765   3.906 -0.5126 -0.0635  0.0088
11461TIP3    H155874   6.769   5.814   3.824 -0.8725  0.3636  0.2522
11461TIP3    H255875   6.678   5.731   3.912 -0.6596  0.4043  0.5119
11462TIP3   OH255876   1.265   4.422   5.938 -0.1189 -0.2861  0.2499
11462TIP3    H155877   1.198   4.354   5.947  1.3771 -1.9234 -0.2879
11462TIP3    H255878   1.271   4.462   6.025 -0.6604 -1.2429  0.7380
11463TIP3   OH255879   5.890   4.409  15.031 -0.4221  0.2445 -0.6624
11463TIP3    H155880   5.871   4.427  14.938 -0.3219 -0.4308 -0.8198
11463TIP3    H255881   5.958   4.342  15.029  0.0566  0.7118 -0.0927
11464TIP3   OH255882   4.666   2.797   5.336  0.0649 -0.0850  0.3431
11464TIP3    H155883   4.618   2.715   5.342 -0.0276 -0.0178  0.5236
11464TIP3    H255884   4.598   2.865   5.347  0.3919  0.0030  1.9249
11465TIP3   OH255885   5.214   5.549   0.880 -0.2705  0.5244  0.4979
11465TIP3    H155886   5.179   5.505   0.958 -0.1221  3.7701  2.5950
11465TIP3    H255887   5.300   5.509   0.866 -1.7417 -2.6621 -0.4139
11466TIP3   OH255888   6.332   1.277   5.918 -0.0400  0.6993 -0.5873
11466TIP3    H155889   6.297   1.366   5.907 -0.0039  0.8474  0.4479
11466TIP3    H255890   6.371   1.256   5.833  0.9999  2.1412 -0.5058
11467TIP3   OH255891   4.648   5.670  14.644 -0.0691 -0.1954 -0.2130
11467TIP3    H155892   4.688   5.585  14.623 -0.3422 -0.4778  0.3838
11467TIP3    H255893   4.592   5.652  14.720  0.7433  0.7398  0.6362
11468TIP3   OH255894   4.356   3.236   0.526  0.0533  0.2884  0.4379
11468TIP3    H155895   4.423   3.282   0.577  1.8067 -0.6206 -0.9347
11468TIP3    H255896   4.323   3.302   0.466 -0.0901  0.6717  0.9288
11469TIP3   OH255897   2.230   3.794  14.112 -0.0129  0.0116  0.5793
11469TIP3    H155898   2.143   3.833  14.122  0.7840  1.9890  0.1893
11469TIP3    H255899   2.263   3.829  14.030  0.1304 -2.8951 -0.7412
11470TIP3   OH255900   2.490   6.410  16.302  0.1681 -0.0342 -0.4483
11470TIP3    H155901   2.443   6.435  16.223  1.1067  0.6355 -0.8066
11470TIP3    H255902   2.431   6.349  16.347 -1.2349  1.1398 -0.6370
11471TIP3   OH255903   5.890   0.915   0.714 -0.2448 -0.3887 -0.5075
11471TIP3    H155904   5.955   0.848   0.692 -0.0442 -0.3535 -0.0149
11471TIP3    H255905   5.928   0.963   0.787  0.0641  0.9234 -1.5007
11472TIP3   OH255906   6.191   6.807   2.262  0.4515 -0.2875  0.5241
11472TIP3    H155907   6.199   6.844   2.350  0.4123  1.3253 -0.1073
11472TIP3    H255908   6.101   6.774   2.257 -0.1346  1.2130  0.5453
11473TIP3   OH255909   2.453   3.131   0.694  0.0238 -0.3018 -0.2335
11473TIP3    H155910   2.460   3.099   0.784 -0.3004 -1.9766 -0.7736
11473TIP3    H255911   2.410   3.216   0.703  1.4210  0.3086  1.3080
11474TIP3   OH255912   2.192   0.609  12.402  0.5833 -0.0161 -0.2474
11474TIP3    H155913   2.100   0.584  12.402  0.4236  0.5585 -0.1807
11474TIP3    H255914   2.203   0.662  12.323  0.4618  1.3117  0.6021
11475TIP3   OH255915   2.282   6.800   5.676 -0.1987 -0.5831 -0.0099
11475TIP3    H155916   2.203   6.820   5.726 -0.5549  2.6563 -1.5487
11475TIP3    H255917   2.250   6.760   5.595 -0.4173  1.0476 -0.7874
11476TIP3   OH255918   3.069   2.899   0.994 -0.8437  0.0971  0.3020
11476TIP3    H155919   3.147   2.859   1.032 -0.8524 -0.3102 -0.0970
11476TIP3    H255920   3.103   2.960   0.928 -0.8609 -1.4449 -1.2276
11477TIP3   OH255921   1.697   5.906  16.249  0.2503 -0.0057 -0.2647
11477TIP3    H155922   1.661   5.853  16.178  0.3851 -1.0025  0.3869
11477TIP3    H255923   1.633   5.977  16.261 -0.9007 -1.0670  0.0737
11478TIP3   OH255924   5.078   1.259   0.455  0.4717  0.0113 -0.1627
11478TIP3    H155925   5.154   1.214   0.489  0.1328 -0.4194  0.0382
11478TIP3    H255926   5.003   1.207   0.485  0.1107  0.2897 -0.5523
11479TIP3   OH255927   2.711   6.102   3.855 -0.4630 -0.1197  0.0063
11479TIP3    H155928   2.670   6.098   3.768 -0.1207 -3.0829 -0.1152
11479TIP3    H255929   2.779   6.169   3.846 -0.9895  0.2450 -1.7427
11480TIP3   OH255930   3.460   3.609   0.369 -0.9738  0.1230  0.1735
11480TIP3    H155931   3.526   3.643   0.309 -1.4893 -1.6864 -1.5177
11480TIP3    H255932   3.479   3.652   0.452  2.0799 -0.0560 -0.3253
11481TIP3   OH255933   2.229   0.500  11.409  0.4928 -0.0312  0.0987
11481TIP3    H155934   2.215   0.490  11.504 -0.8780  0.0338 -0.0691
11481TIP3    H255935   2.149   0.542  11.378  1.3826  0.9508 -0.9431
11482TIP3   OH255936   5.422   2.984  14.549 -0.3551  0.3044  0.0073
11482TIP3    H155937   5.345   2.997  14.604 -0.5156  2.4083 -0.6483
11482TIP3    H255938   5.444   3.071  14.517  0.6532 -0.6425 -2.0499
11483TIP3   OH255939   3.186   1.531  16.086  0.0726 -0.1359 -0.3517
11483TIP3    H155940   3.142   1.450  16.112 -0.5392  0.4429  0.4473
11483TIP3    H255941   3.273   1.502  16.057  0.2625 -0.9860  0.9553
11484TIP3   OH255942   4.997   1.381   3.267 -0.6100  0.5834  0.0493
11484TIP3    H155943   5.073   1.400   3.323 -1.9244 -2.2968  3.1548
11484TIP3    H255944   5.031   1.322   3.200  0.5419  2.1995 -0.8437
11485TIP3   OH255945   0.966   6.557  13.713 -0.5916 -0.0178  0.2565
11485TIP3    H155946   1.056   6.543  13.685 -1.5240 -0.1548 -3.0606
11485TIP3    H255947   0.952   6.651  13.704 -0.7874  0.0022  0.7479
11486TIP3   OH255948   1.483   0.145   3.892  0.3482  0.0285  0.2317
11486TIP3    H155949   1.552   0.087   3.924  1.4164  1.2529  0.2136
11486TIP3    H255950   1.422   0.087   3.846  1.3742 -1.0722  0.2167
11487TIP3   OH255951   0.511   1.435  12.742 -0.7309  0.4604 -0.7218
11487TIP3    H155952   0.563   1.473  12.671  1.2353  1.5145  1.1849
11487TIP3    H255953   0.509   1.502  12.810 -0.9868 -1.1591  0.9634
11488TIP3   OH255954   3.211   3.931   3.266  0.0931 -0.1070 -0.1422
11488TIP3    H155955   3.224   4.023   3.242 -0.4640 -0.1877 -0.7926
11488TIP3    H255956   3.163   3.894   3.192 -1.1917 -0.5101  0.8591
11489TIP3   OH255957   4.744   4.083   2.196 -0.0098 -0.1615 -0.3785
11489TIP3    H155958   4.829   4.117   2.223 -1.1631  1.6179  1.3250
11489TIP3    H255959   4.733   4.117   2.107  0.1184  1.6036  0.2368
11490TIP3   OH255960   1.659   1.343  12.206 -0.3413 -0.1491  0.0022
11490TIP3    H155961   1.677   1.396  12.283  1.1698 -1.1031  0.3515
11490TIP3    H255962   1.659   1.406  12.133  0.3533  0.4676  0.5249
11491TIP3   OH255963   3.831   1.674  14.137 -0.4567  0.3411  0.3142
11491TIP3    H155964   3.808   1.751  14.190  1.6166  0.6129  0.8944
11491TIP3    H255965   3.748   1.627  14.127 -1.6687  2.3135  0.4634
11492TIP3   OH255966   3.340   0.138   5.614 -0.2722  0.2082  0.4200
11492TIP3    H155967   3.371   0.070   5.673 -0.5039  0.8064  1.2617
11492TIP3    H255968   3.400   0.136   5.540 -0.4113 -1.0417  0.3330
11493TIP3   OH255969   4.802   1.684   0.906  0.3184  0.1266  0.1564
11493TIP3    H155970   4.752   1.762   0.933 -1.3757 -1.5645  2.4062
11493TIP3    H255971   4.775   1.668   0.816  1.9069  2.9271 -0.9395
11494TIP3   OH255972   5.132   2.163   4.044 -0.0095 -0.3126 -0.2428
11494TIP3    H155973   5.181   2.082   4.031  1.5562  0.6843 -0.8475
11494TIP3    H255974   5.196   2.225   4.079 -1.0368  0.8084 -0.2695
11495TIP3   OH255975   1.746   4.010  16.762 -0.0804  0.3122 -0.2077
11495TIP3    H155976   1.717   4.019  16.853 -2.0455  0.3815 -0.8030
11495TIP3    H255977   1.829   3.962  16.768 -1.3232 -1.7850  1.4700
11496TIP3   OH255978   0.139   5.636  15.857  0.6308  0.8605 -0.2088
11496TIP3    H155979   0.160   5.553  15.900  0.0137  0.5825 -0.4296
11496TIP3    H255980   0.143   5.701  15.927  0.2925  0.5115  0.1403
11497TIP3   OH255981   3.557   3.007  14.460  0.8705 -0.7549 -0.0526
11497TIP3    H155982   3.526   3.097  14.455 -2.1910 -1.7583 -1.4455
11497TIP3    H255983   3.620   2.999  14.388  0.4135  0.0088 -0.5490
11498TIP3   OH255984   3.391   1.977  14.071 -1.1695  0.6486  0.4414
11498TIP3    H155985   3.319   1.955  14.130 -1.3710  2.1325  0.7914
11498TIP3    H255986   3.391   2.073  14.068  0.9913  0.7057  0.7191
11499TIP3   OH255987   2.819   0.716   3.903 -0.2236  0.1638  0.2944
11499TIP3    H155988   2.803   0.704   3.997  1.7833 -0.9865  0.5579
11499TIP3    H255989   2.844   0.808   3.895 -3.3835  1.1131  0.3423
11500TIP3   OH255990   6.297   2.545  16.019 -0.1531 -0.2528  0.3990
11500TIP3    H155991   6.251   2.497  15.951  1.3873 -0.4690 -0.5352
11500TIP3    H255992   6.299   2.485  16.094 -0.3138 -0.7016  0.0475
11501TIP3   OH255993   0.143   2.419   0.438  0.0842  0.2360 -0.0980
11501TIP3    H155994   0.109   2.386   0.521  1.6132  0.7120  0.7675
11501TIP3    H255995   0.233   2.444   0.458 -0.0958  2.1625 -1.4120
11502TIP3   OH255996   4.187   3.343   5.777  0.2846 -0.2728  0.4483
11502TIP3    H155997   4.281   3.322   5.777  0.6378  1.1961 -0.0352
11502TIP3    H255998   4.153   3.295   5.702  0.7334 -0.4609  0.3562
11503TIP3   OH255999   5.591   5.660  13.476  0.1201 -0.3847  0.0437
11503TIP3    H156000   5.576   5.608  13.555 -0.4450  0.6618  0.6530
11503TIP3    H256001   5.517   5.640  13.419 -1.1805  1.1741  1.0859
11504TIP3   OH256002   2.932   0.383   3.346  0.4054 -0.1465  0.6531
11504TIP3    H156003   3.011   0.381   3.292 -0.2155 -0.0332 -0.2948
11504TIP3    H256004   2.897   0.472   3.334 -0.1219 -0.3483  0.6635
11505TIP3   OH256005   5.649   6.213  12.442  0.1619  0.2727 -0.1129
11505TIP3    H156006   5.702   6.145  12.399  3.8092  2.6992  0.1142
11505TIP3    H256007   5.608   6.261  12.371 -0.1591 -0.4448 -0.4178
11506TIP3   OH256008   1.880   0.186  14.590  0.1827  0.2055 -0.2971
11506TIP3    H156009   1.958   0.165  14.538  1.1472  1.8139  0.4279
11506TIP3    H256010   1.872   0.281  14.585 -1.6725  0.0863 -0.2284
11507TIP3   OH256011   5.204   6.795  15.812 -0.2105  0.0623  0.6304
11507TIP3    H156012   5.203   6.749  15.728 -0.6520  1.9291 -0.4426
11507TIP3    H256013   5.287   6.769  15.852 -0.3140 -1.4057 -0.0537
11508TIP3   OH256014   1.779   2.704   1.513  0.0760  0.4129  0.3006
11508TIP3    H156015   1.775   2.761   1.589  0.5563 -0.0662  0.6896
11508TIP3    H256016   1.713   2.636   1.530 -0.4904  0.8348 -0.1582
11509TIP3   OH256017   0.076   1.586   3.635  0.0866  0.3610  0.2086
11509TIP3    H156018   0.120   1.566   3.717  0.5843 -0.9349 -0.3405
11509TIP3    H256019  -0.013   1.553   3.645  0.3017 -0.2781  0.0483
11510TIP3   OH256020   0.697   5.614   3.558 -0.4857 -0.1831  0.0927
11510TIP3    H156021   0.669   5.522   3.563 -0.6197 -0.1671 -0.3293
11510TIP3    H256022   0.632   5.661   3.610 -1.3131 -0.1380 -0.9397
11511TIP3   OH256023   6.230   6.296  15.222 -0.2262 -0.3599 -0.2247
11511TIP3    H156024   6.254   6.205  15.241 -0.4882 -0.3783  0.0154
11511TIP3    H256025   6.246   6.343  15.303 -0.6588 -0.3038 -0.1712
11512TIP3   OH256026   2.143   5.249   2.258 -0.3162 -0.1452  0.0095
11512TIP3    H156027   2.122   5.247   2.164  0.3302 -0.0365 -0.1487
11512TIP3    H256028   2.063   5.221   2.302  0.0994 -2.7040 -0.6864
11513TIP3   OH256029   5.012   3.109   4.697  0.8221  0.6789  0.2349
11513TIP3    H156030   4.995   3.043   4.764  0.3088 -1.6843 -2.0631
11513TIP3    H256031   4.925   3.141   4.674  0.5970 -1.0677 -1.6226
11514TIP3   OH256032   4.332   3.321  11.339  0.0428  0.0370 -0.8561
11514TIP3    H156033   4.304   3.240  11.295  1.4712  0.2022 -2.1485
11514TIP3    H256034   4.372   3.373  11.269  2.2089  0.4297  0.5823
11515TIP3   OH256035   2.892   0.402  13.627 -0.2147 -0.2326 -0.2639
11515TIP3    H156036   2.919   0.397  13.536  0.4895 -0.6287 -0.0375
11515TIP3    H256037   2.907   0.494  13.652  0.9754 -0.4493 -0.1327
11516TIP3   OH256038   4.023   3.148   3.426  0.1410 -0.0370 -0.4849
11516TIP3    H156039   3.949   3.185   3.379  0.6723  1.2667 -0.3545
11516TIP3    H256040   3.984   3.103   3.501 -0.4825  2.6938  0.9844
11517TIP3   OH256041   5.446   4.972  12.633 -0.2600  0.2054 -0.0565
11517TIP3    H156042   5.361   4.932  12.652 -0.2856 -0.0996 -0.7945
11517TIP3    H256043   5.494   4.904  12.586  0.8026 -0.0212  1.2907
11518TIP3   OH256044   3.792   3.338  12.771 -0.4375 -0.0789  0.6816
11518TIP3    H156045   3.861   3.404  12.757 -0.0578 -0.1878  1.9322
11518TIP3    H256046   3.839   3.255  12.777 -0.5795 -0.0896  2.1188
11519TIP3   OH256047   5.659   6.736  16.558  0.4354  0.1264  0.1414
11519TIP3    H156048   5.737   6.690  16.528  0.2151 -1.1248  1.3688
11519TIP3    H256049   5.595   6.723  16.488  0.1482 -2.1312  0.7284
11520TIP3   OH256050   2.908   1.649  11.209 -0.0587  0.6403 -0.3993
11520TIP3    H156051   2.850   1.599  11.266 -0.6195 -0.7484 -2.1322
11520TIP3    H256052   2.955   1.584  11.158  1.1717  1.8155 -0.8354
11521TIP3   OH256053   3.446   1.109  15.951  0.0909 -0.2289 -0.0732
11521TIP3    H156054   3.504   1.044  15.910 -0.3906 -1.0019  0.4323
11521TIP3    H256055   3.396   1.058  16.015 -0.3606  0.6384  0.2720
11522TIP3   OH256056   0.238   4.603   2.748 -0.1229  0.1671  0.1982
11522TIP3    H156057   0.231   4.588   2.842 -0.2417  0.3669  0.2205
11522TIP3    H256058   0.212   4.520   2.709 -0.9450  0.3638  0.3192
11523TIP3   OH256059   4.986   2.261   1.088  0.3782  0.3041  0.4262
11523TIP3    H156060   5.026   2.347   1.078  1.8475 -0.0360  2.7640
11523TIP3    H256061   4.914   2.275   1.150  1.5717 -0.3662  2.0124
11524TIP3   OH256062   5.910   3.074   5.758  0.1745  0.7258 -0.6140
11524TIP3    H156063   5.940   3.124   5.834 -1.4373 -0.5490  0.9565
11524TIP3    H256064   5.851   3.134   5.712  0.5756  1.2607 -0.4480
11525TIP3   OH256065   5.599   5.380   1.250 -0.0938 -0.3777  0.8231
11525TIP3    H156066   5.605   5.315   1.321 -0.6227  0.5255  1.7190
11525TIP3    H256067   5.509   5.373   1.219  0.4022 -1.4619 -0.4692
11526TIP3   OH256068   1.325   2.274  15.307  0.7228  0.0593 -0.6165
11526TIP3    H156069   1.287   2.344  15.253 -0.6409 -0.8855 -0.9493
11526TIP3    H256070   1.419   2.277  15.289  0.6163  1.4373 -1.0395
11527TIP3   OH256071   1.645   6.068   4.804 -0.3525 -0.0914  0.2184
11527TIP3    H156072   1.714   6.025   4.754  1.2022  1.6574  0.7534
11527TIP3    H256073   1.678   6.069   4.894 -1.8864 -0.7588  0.8276
11528TIP3   OH256074   3.600   6.298   6.174  0.0169  0.2613 -0.1396
11528TIP3    H156075   3.671   6.362   6.170  0.6071 -0.3126  0.7469
11528TIP3    H256076   3.547   6.326   6.248 -1.3832  1.3516 -1.4816
11529TIP3   OH256077   5.954   3.717  11.878  0.1074 -0.7065 -0.4376
11529TIP3    H156078   5.865   3.753  11.880 -0.0062 -0.9035 -1.5316
11529TIP3    H256079   5.969   3.695  11.786  0.7217 -2.0919 -0.0200
11530TIP3   OH256080   0.191   5.242  16.522 -0.2747 -0.0971 -0.3407
11530TIP3    H156081   0.182   5.306  16.452  1.9328  1.3313  0.5941
11530TIP3    H256082   0.105   5.240  16.563 -0.4738  2.1595 -0.5166
11531TIP3   OH256083   4.553   3.941   0.499  0.2705  0.2596 -0.2818
11531TIP3    H156084   4.646   3.915   0.501  0.2955  0.2321 -1.1843
11531TIP3    H256085   4.553   4.033   0.527  0.6342  0.4003 -0.7251
11532TIP3   OH256086   2.655   4.799  14.570  0.7308 -0.5881 -0.0598
11532TIP3    H156087   2.674   4.730  14.633 -1.4885 -1.3393 -0.1277
11532TIP3    H256088   2.620   4.753  14.493 -1.3586  0.5525  0.1116
11533TIP3   OH256089   4.906   0.275   2.662 -0.1232 -0.2048  0.2934
11533TIP3    H156090   4.936   0.202   2.718 -1.4258 -0.7422  0.3132
11533TIP3    H256091   4.974   0.282   2.595  1.1374  0.0142  1.5500
11534TIP3   OH256092   1.047   5.798  14.149 -0.6971 -0.3561 -0.4580
11534TIP3    H156093   0.957   5.776  14.124 -1.4952  0.3373  1.5750
11534TIP3    H256094   1.071   5.729  14.212 -0.2357  0.0648 -0.1684
11535TIP3   OH256095   2.591   6.170   3.187  0.0617  0.7371  0.4857
11535TIP3    H156096   2.627   6.083   3.205  1.3237  0.8038 -1.4389
11535TIP3    H256097   2.504   6.169   3.226 -0.7752 -2.1002 -1.2257
11536TIP3   OH256098   6.445   1.383  13.739 -0.1940 -0.2514  0.7290
11536TIP3    H156099   6.528   1.379  13.692 -0.8983 -0.9048 -0.5185
11536TIP3    H256100   6.427   1.477  13.748  0.1620 -0.1178  0.0704
11537TIP3   OH256101   5.981   4.829   1.505 -0.0338 -0.2087 -0.3268
11537TIP3    H156102   5.979   4.759   1.570 -1.3498 -1.2738 -1.4560
11537TIP3    H256103   5.934   4.901   1.547  0.6554 -0.2588  0.5501
11538TIP3   OH256104   2.566   2.160   6.059 -0.5508  0.0062 -0.0875
11538TIP3    H156105   2.525   2.160   6.146 -0.8709  0.1426 -0.2336
11538TIP3    H256106   2.611   2.244   6.054 -0.1169 -0.2117  0.1351
11539TIP3   OH256107   5.688   6.633  11.791 -0.2357 -0.3051 -0.0577
11539TIP3    H156108   5.751   6.678  11.734 -0.3034  0.8250  0.7308
11539TIP3    H256109   5.607   6.683  11.780 -1.3249 -2.2875 -1.7875
11540TIP3   OH256110   4.515   5.863   2.708 -0.3139 -0.2695 -0.0184
11540TIP3    H156111   4.452   5.864   2.780  0.4155  0.3539  0.6250
11540TIP3    H256112   4.542   5.954   2.699 -0.5791 -0.2991 -1.2615
11541TIP3   OH256113   0.587   0.455  11.562  0.0291  0.3257 -0.2924
11541TIP3    H156114   0.561   0.541  11.529 -0.7011  0.7507  1.3121
11541TIP3    H256115   0.566   0.457  11.655 -1.1116 -2.0285 -0.4322
11542TIP3   OH256116   0.844   3.014   4.964  0.1696  0.0493 -0.1049
11542TIP3    H156117   0.803   3.044   5.045  1.0263  3.1518 -0.6958
11542TIP3    H256118   0.913   3.078   4.947  1.4826 -1.7605 -2.1657
11543TIP3   OH256119   0.453   2.069  14.335 -0.1515 -0.2564  0.3080
11543TIP3    H156120   0.366   2.109  14.332  0.2178  0.7775  2.0866
11543TIP3    H256121   0.506   2.131  14.385  1.8889 -0.3694 -1.5407
11544TIP3   OH256122   3.977   2.127   1.007 -0.7089 -0.4921 -0.1996
11544TIP3    H156123   4.024   2.200   0.967 -1.7522 -0.5128 -1.5535
11544TIP3    H256124   3.935   2.164   1.085 -0.1304  0.0112 -0.1245
11545TIP3   OH256125   3.380   5.577  10.926  0.0910  0.1893 -0.3701
11545TIP3    H156126   3.462   5.581  10.878  0.0332  0.5700 -0.4476
11545TIP3    H256127   3.330   5.507  10.885 -0.1303  0.7897 -1.1542
11546TIP3   OH256128   4.818   2.779  13.553  0.2370  0.0640 -0.2918
11546TIP3    H156129   4.844   2.779  13.461  2.3313 -1.0729  0.2264
11546TIP3    H256130   4.835   2.869  13.582 -1.1586  0.6376 -1.1577
11547TIP3   OH256131   1.252   5.719  10.819  0.3466  0.2566  0.0888
11547TIP3    H156132   1.257   5.805  10.778 -1.6730  0.0351 -0.7419
11547TIP3    H256133   1.163   5.715  10.855  1.4524 -0.2507  3.0072
11548TIP3   OH256134   5.867   1.241   1.755  0.0914  0.5460 -0.1158
11548TIP3    H156135   5.819   1.235   1.673 -0.5711  1.0764  0.2197
11548TIP3    H256136   5.835   1.167   1.807  0.4294  0.2754 -0.2871
11549TIP3   OH256137   0.890   1.795  12.614  0.4428 -0.0343 -0.0361
11549TIP3    H156138   0.933   1.710  12.628  0.4278  0.0809  0.7634
11549TIP3    H256139   0.932   1.854  12.677 -1.1669 -0.0207  1.0849
11550TIP3   OH256140   1.703   2.366   0.700  0.0822  0.1151 -0.2479
11550TIP3    H156141   1.716   2.446   0.751 -1.3472  0.2962 -0.1108
11550TIP3    H256142   1.743   2.384   0.615  2.3345 -0.1154  0.6910
11551TIP3   OH256143   1.927   6.284   2.610  0.3036  0.1263  0.1595
11551TIP3    H156144   1.855   6.309   2.668  0.6135  0.3536  0.4529
11551TIP3    H256145   1.923   6.189   2.606 -0.5689  0.1827 -0.5541
11552TIP3   OH256146   6.033   4.507   5.416  0.3892 -0.0804 -0.2307
11552TIP3    H156147   6.035   4.582   5.476 -0.8368 -0.7112  0.6524
11552TIP3    H256148   5.942   4.501   5.388  0.7590 -0.3903 -1.4168
11553TIP3   OH256149   6.208   0.971  16.961  0.2516  0.0984 -0.3479
11553TIP3    H156150   6.114   0.959  16.953  0.3481 -0.7387 -0.3329
11553TIP3    H256151   6.245   0.917  16.891  0.7213  0.5064 -0.4238
11554TIP3   OH256152   6.023   4.256  14.610  0.6594 -0.1000  0.2729
11554TIP3    H156153   6.096   4.278  14.552  1.9394 -0.8341  1.5625
11554TIP3    H256154   6.022   4.161  14.612  0.1601 -0.0858  0.9095
11555TIP3   OH256155   2.313   6.493   3.623 -0.1019 -0.0640 -0.1027
11555TIP3    H156156   2.260   6.443   3.562  0.2640  1.0713 -1.4210
11555TIP3    H256157   2.361   6.427   3.673 -0.1724 -1.0490 -1.2768
11556TIP3   OH256158   6.137   0.064  13.701 -0.2710 -0.0661  0.4813
11556TIP3    H156159   6.130   0.122  13.776 -2.2772 -1.2020  1.2323
11556TIP3    H256160   6.087   0.108  13.632 -0.8828 -0.3761  0.7206
11557TIP3   OH256161   0.231   5.301   0.366  1.3942  0.6739  0.4495
11557TIP3    H156162   0.245   5.380   0.418  1.9650  0.3124  0.8498
11557TIP3    H256163   0.228   5.230   0.429  2.2074  0.2162 -0.0022
11558TIP3   OH256164   4.144   0.009  11.279 -0.2463 -0.1754 -0.0916
11558TIP3    H156165   4.089  -0.065  11.304 -0.2983 -0.6764 -1.5819
11558TIP3    H256166   4.094   0.086  11.305  0.3065 -0.6180  2.5083
11559TIP3   OH256167   0.482   5.127   4.601 -0.7259 -0.1187 -0.1723
11559TIP3    H156168   0.404   5.093   4.646 -1.0857 -1.1938 -1.5542
11559TIP3    H256169   0.555   5.081   4.640 -0.8416  0.3211  0.5872
11560TIP3   OH256170   5.294   0.047   5.692  0.1521 -0.2441  0.0027
11560TIP3    H156171   5.379   0.076   5.661  0.6712 -2.0495 -0.3947
11560TIP3    H256172   5.307   0.028   5.785  0.7187 -2.2042 -0.4270
11561TIP3   OH256173   0.293   6.272  15.857 -0.0392  0.1895 -0.1362
11561TIP3    H156174   0.257   6.216  15.788  0.9950  0.6583 -1.0924
11561TIP3    H256175   0.236   6.348  15.858  1.0371  1.0758 -1.8613
11562TIP3   OH256176   4.342   1.030   0.546 -0.1662  0.4756 -0.5640
11562TIP3    H156177   4.288   0.951   0.553 -0.7263  0.9992  1.7526
11562TIP3    H256178   4.294   1.087   0.487 -0.9882  0.0499 -0.3169
11563TIP3   OH256179   2.671   4.041   4.395  0.1633 -0.2909  0.1620
11563TIP3    H156180   2.702   3.976   4.458  1.1910  0.3769  0.3816
11563TIP3    H256181   2.719   4.020   4.314  0.1594 -0.0840  0.1058
11564TIP3   OH256182   1.487   3.778   2.315 -0.4592  0.7806 -0.2337
11564TIP3    H156183   1.460   3.869   2.300  0.2162  1.4560  2.1091
11564TIP3    H256184   1.414   3.740   2.364  0.2264  0.8177  0.8613
11565TIP3   OH256185   5.302   4.219  10.934  0.1899 -0.3275 -0.2204
11565TIP3    H156186   5.246   4.275  10.989  2.2762  1.6479  0.0488
11565TIP3    H256187   5.344   4.280  10.874 -0.7763 -2.2273 -3.0260
11566TIP3   OH256188   4.192   4.985   0.177  0.1234 -0.2836 -0.7495
11566TIP3    H156189   4.235   5.060   0.135  0.9815  0.2328  0.9811
11566TIP3    H256190   4.103   5.015   0.193  0.2256  0.0684 -0.8256
11567TIP3   OH256191   0.547   5.131  16.749 -0.4745 -0.2182 -0.2396
11567TIP3    H156192   0.486   5.205  16.746  0.0152  0.4582  2.9796
11567TIP3    H256193   0.492   5.056  16.774 -0.4444 -0.2644 -0.3106
11568TIP3   OH256194   3.245   4.571   3.493 -0.4689  0.1559 -0.1708
11568TIP3    H156195   3.211   4.558   3.582 -0.7730  1.1719 -0.1263
11568TIP3    H256196   3.175   4.541   3.436 -0.3608 -0.2907 -0.0729
11569TIP3   OH256197   2.016   5.505  11.466  0.0062 -0.1759  0.1188
11569TIP3    H156198   2.013   5.470  11.555  1.9853 -0.2267  0.2100
11569TIP3    H256199   2.013   5.600  11.478  2.7816 -0.0522  0.4950
11570TIP3   OH256200   0.703   0.278  12.262 -0.1694  0.2315  0.1795
11570TIP3    H156201   0.619   0.308  12.297  0.6016  1.6858  0.8751
11570TIP3    H256202   0.767   0.339  12.298  1.5294 -2.1751  1.5458
11571TIP3   OH256203   3.329   2.630   2.463  0.4242 -0.1009  0.4777
11571TIP3    H156204   3.405   2.575   2.446  0.7343  0.4819 -0.1055
11571TIP3    H256205   3.265   2.572   2.503  0.8623 -0.8027  0.1778
11572TIP3   OH256206   5.308   3.945   2.411  0.0079  0.2943 -0.5895
11572TIP3    H156207   5.354   3.866   2.439 -0.9589 -0.3913 -0.8743
11572TIP3    H256208   5.361   3.980   2.340  0.9351  0.4254  0.1601
11573TIP3   OH256209   5.055   1.298  15.951 -0.2568 -0.3438  0.2888
11573TIP3    H156210   5.027   1.261  16.035  0.0130  0.0729  0.5696
11573TIP3    H256211   5.149   1.316  15.964 -0.8613  2.8150  1.0818
11574TIP3   OH256212   5.355   1.204   4.419  0.1389 -0.0162 -0.6079
11574TIP3    H156213   5.433   1.150   4.431  0.4183  0.3345 -0.8328
11574TIP3    H256214   5.283   1.149   4.451  0.2707 -0.9695 -1.8394
11575TIP3   OH256215   2.543   0.792  15.427 -0.1006  0.2203 -0.1576
11575TIP3    H156216   2.639   0.788  15.425 -0.1502 -0.9593 -1.5330
11575TIP3    H256217   2.522   0.868  15.373  0.0366 -0.8287 -1.7543
11576TIP3   OH256218   2.299   1.692   3.043  0.1379 -0.0316 -0.4755
11576TIP3    H156219   2.328   1.776   3.077  1.7827 -0.9019  0.4062
11576TIP3    H256220   2.328   1.692   2.952 -1.6950  1.1276 -1.1226
11577TIP3   OH256221   2.428   4.249  13.497  0.0103 -0.2917 -0.3365
11577TIP3    H156222   2.423   4.284  13.408  0.9522 -1.8444 -1.0309
11577TIP3    H256223   2.367   4.175  13.498 -1.0949  0.5820  0.7765
11578TIP3   OH256224   6.232   0.307   0.661  0.5820 -0.2749  0.3000
11578TIP3    H156225   6.323   0.279   0.652  0.3403 -1.6947  1.8253
11578TIP3    H256226   6.181   0.228   0.642 -0.2517  0.0130  1.2661
11579TIP3   OH256227   4.103   2.986  11.857 -0.1393 -0.0836 -0.3928
11579TIP3    H156228   4.029   3.006  11.799 -0.3083 -2.1761 -0.9719
11579TIP3    H256229   4.079   3.026  11.940  0.0736  2.9527 -1.6369
11580TIP3   OH256230   1.680   6.782  16.383 -0.3499 -0.2963 -0.0269
11580TIP3    H156231   1.668   6.760  16.475  0.3198 -2.0928 -0.3268
11580TIP3    H256232   1.603   6.747  16.340 -0.3546 -0.0363 -0.2298
11581TIP3   OH256233   0.919   4.334   5.655  0.6234  0.2367  0.1210
11581TIP3    H156234   0.861   4.293   5.591 -0.2736 -0.1985  1.1734
11581TIP3    H256235   0.879   4.418   5.675  0.5538  0.1061  0.5573
11582TIP3   OH256236   2.973   3.987  11.032 -0.3226 -0.2581 -0.3822
11582TIP3    H156237   3.012   4.062  11.077 -1.9982  0.1360  0.5033
11582TIP3    H256238   2.962   3.922  11.101 -2.6671  0.2490 -0.2117
11583TIP3   OH256239   2.217   0.627   5.137 -0.0401  0.2967 -0.2636
11583TIP3    H156240   2.254   0.688   5.074  2.9342  0.4280  1.4069
11583TIP3    H256241   2.161   0.680   5.193  2.2607  1.5985  0.9745
11584TIP3   OH256242   5.588   3.522  16.324  0.3401  0.0589  0.2443
11584TIP3    H156243   5.588   3.554  16.234 -0.8056  0.5318  0.3928
11584TIP3    H256244   5.681   3.507  16.344  0.6496  0.4044 -0.8447
11585TIP3   OH256245   4.494   6.595  12.666 -0.1627  0.0385  0.1360
11585TIP3    H156246   4.574   6.542  12.663  0.0683  0.3340  0.9798
11585TIP3    H256247   4.465   6.599  12.575  0.9138  0.1273 -0.2115
11586TIP3   OH256248   4.489   6.362   3.361  0.5637 -0.5025  0.0478
11586TIP3    H156249   4.401   6.390   3.334  1.6488  1.5662 -1.7181
11586TIP3    H256250   4.496   6.390   3.452 -0.0802  0.7696 -0.2667
11587TIP3   OH256251   5.041   3.160  14.578 -0.1156 -0.3693  0.4745
11587TIP3    H156252   5.107   3.170  14.510  1.0035  1.7386  1.7774
11587TIP3    H256253   5.067   3.080  14.625 -0.2557 -1.2066 -0.8365
11588TIP3   OH256254   6.616   3.019  11.890  0.4797  0.3298 -0.7085
11588TIP3    H156255   6.529   2.981  11.885  0.8582 -0.4924 -1.2287
11588TIP3    H256256   6.601   3.113  11.889 -0.3488  0.2108 -1.8643
11589TIP3   OH256257   1.579   4.718   5.369 -0.2048  0.1347  0.1318
11589TIP3    H156258   1.633   4.641   5.388  0.7698  0.3623 -1.5618
11589TIP3    H256259   1.509   4.685   5.312  0.2880  0.5017 -0.7042
11590TIP3   OH256260   4.230   1.962  16.945 -0.1955 -0.3957  0.4867
11590TIP3    H156261   4.159   2.020  16.916  1.0217  0.6899 -0.4182
11590TIP3    H256262   4.282   1.947  16.866  0.2860 -1.6540  1.0105
11591TIP3   OH256263   5.234   5.351   5.825  0.0659  0.6997 -0.0113
11591TIP3    H156264   5.201   5.261   5.833 -2.3503  1.2997 -1.9783
11591TIP3    H256265   5.325   5.341   5.796  0.3896 -1.0742  1.4517
11592TIP3   OH256266   2.234   0.596   2.370 -0.4105 -0.0359 -0.1011
11592TIP3    H156267   2.286   0.518   2.352 -2.1516 -1.2523 -0.1454
11592TIP3    H256268   2.268   0.662   2.310  2.2022 -0.1824  1.0623
11593TIP3   OH256269   4.883   1.982   4.168  0.7451  0.0090  0.2792
11593TIP3    H156270   4.805   1.934   4.140  1.2539 -0.6317 -0.0650
11593TIP3    H256271   4.871   2.071   4.133  0.6302 -0.3587 -0.6320
11594TIP3   OH256272   4.988   3.859   5.497 -0.2981  0.6718 -0.2869
11594TIP3    H156273   4.982   3.872   5.592  3.9580  1.0351  0.1454
11594TIP3    H256274   5.007   3.766   5.487 -1.9564  0.3797 -0.9423
11595TIP3   OH256275   4.312   3.748   3.222  0.3125 -0.3048 -0.1790
11595TIP3    H156276   4.294   3.832   3.180 -1.5742 -0.6436 -0.1348
11595TIP3    H256277   4.294   3.683   3.154 -0.4641 -0.7515  0.4408
11596TIP3   OH256278   4.721   3.116  14.547 -0.2877  0.1106 -0.7552
11596TIP3    H156279   4.652   3.083  14.489 -0.5235  0.8632 -0.9228
11596TIP3    H256280   4.732   3.208  14.520  0.0007  0.3051  0.0147
11597TIP3   OH256281   6.456   6.307   4.786  0.1443  0.0500  0.0545
11597TIP3    H156282   6.454   6.402   4.796 -0.9924  0.0380  0.1106
11597TIP3    H256283   6.534   6.279   4.833 -0.0120  0.8682  0.8127
11598TIP3   OH256284   5.898   1.412  12.717  0.3373  0.0522  0.3734
11598TIP3    H156285   5.966   1.478  12.706  0.7440 -0.5393 -0.8045
11598TIP3    H256286   5.885   1.407  12.812  1.7168  0.4106  0.6072
11599TIP3   OH256287   2.177   2.285  14.347  0.3223 -0.3050  0.2733
11599TIP3    H156288   2.197   2.376  14.370  1.9969 -0.9809  1.6712
11599TIP3    H256289   2.188   2.236  14.428  0.9893 -1.9864 -0.7792
11600TIP3   OH256290   4.529   1.388  14.382  0.4032 -0.7987  0.5511
11600TIP3    H156291   4.603   1.374  14.323  1.7163  1.7558  1.4306
11600TIP3    H256292   4.472   1.449  14.335  1.0076  0.5452  1.5117
11601TIP3   OH256293   4.145   6.651   0.107 -0.0357 -0.2853 -0.5104
11601TIP3    H156294   4.100   6.674   0.188  0.1065 -1.0895 -0.2014
11601TIP3    H256295   4.079   6.665   0.039 -0.6137 -0.9813 -0.1119
11602TIP3   OH256296   1.872   6.055   4.619 -0.2888  0.0217 -0.5763
11602TIP3    H156297   1.962   6.029   4.637 -0.4514  0.7583  1.5352
11602TIP3    H256298   1.868   6.147   4.643 -1.6441 -0.0579 -0.4038
11603TIP3   OH256299   5.249   6.523  12.450 -0.2182 -0.3908  0.4042
11603TIP3    H156300   5.295   6.454  12.499  0.9845  0.7787  0.9930
11603TIP3    H256301   5.189   6.561  12.514 -0.6020 -0.6356  0.1907
11604TIP3   OH256302   5.753   4.631  14.773 -0.0690 -0.4156  0.0263
11604TIP3    H156303   5.795   4.546  14.757  1.2938  0.5361 -1.7815
11604TIP3    H256304   5.699   4.646  14.695  0.9244  1.0601 -0.4033
11605TIP3   OH256305   0.154   0.167  13.790  0.4237 -0.0243 -0.5237
11605TIP3    H156306   0.153   0.217  13.872  1.5768  0.0654 -0.5557
11605TIP3    H256307   0.147   0.233  13.721 -1.5500 -0.1533 -0.5208
11606TIP3   OH256308   5.492   3.529   3.169  0.0797  0.2553  0.2897
11606TIP3    H156309   5.447   3.533   3.085 -0.6119  0.3638  0.6590
11606TIP3    H256310   5.584   3.546   3.148 -0.0620  0.1319 -0.4588
11607TIP3   OH256311   4.337   0.678  14.778  0.1002  0.0105 -0.8402
11607TIP3    H156312   4.263   0.662  14.837  1.0034 -2.7541 -0.3176
11607TIP3    H256313   4.305   0.745  14.718 -1.9909  0.5916  0.7979
11608TIP3   OH256314   4.261   3.749  15.140  0.5471  0.1320 -0.5418
11608TIP3    H156315   4.196   3.770  15.207  1.9168  3.6259 -0.0740
11608TIP3    H256316   4.325   3.693  15.184  0.5013  0.9110  0.5476
11609TIP3   OH256317   0.816   1.209   3.039 -0.5917  0.0254 -0.5605
11609TIP3    H156318   0.723   1.226   3.026 -0.5648 -0.6402 -1.7622
11609TIP3    H256319   0.825   1.115   3.023 -0.1742 -0.5333  2.4119
11610TIP3   OH256320   6.529   3.190   1.745  0.0076 -0.3385 -0.3320
11610TIP3    H156321   6.608   3.221   1.702 -1.4496  1.7925 -1.6728
11610TIP3    H256322   6.519   3.246   1.822 -0.4416 -0.2448 -0.4517
11611TIP3   OH256323   3.631   1.772   1.263 -0.3732 -0.0113 -0.4846
11611TIP3    H156324   3.639   1.720   1.342 -2.1899 -0.5270 -0.5985
11611TIP3    H256325   3.612   1.861   1.294 -1.9576 -0.3856 -0.3221
11612TIP3   OH256326   6.129   5.099   2.784  0.6511  0.3606  0.0557
11612TIP3    H156327   6.169   5.025   2.739  0.2646  0.4412 -0.4354
11612TIP3    H256328   6.041   5.105   2.746 -0.8361 -1.4109  2.8899
11613TIP3   OH256329   4.574   4.823   5.931  0.2260 -0.4974  0.1569
11613TIP3    H156330   4.654   4.783   5.965 -0.3921 -0.7093  1.4435
11613TIP3    H256331   4.601   4.912   5.906  0.9451 -0.6933  0.2023
11614TIP3   OH256332   1.814   4.958  12.015 -0.2733 -0.8468  0.1206
11614TIP3    H156333   1.907   4.936  12.011  0.1966  0.8682  0.9349
11614TIP3    H256334   1.804   5.032  11.956 -0.8361 -0.1835  1.0122
11615TIP3   OH256335   2.839   3.933  12.994  0.1501 -0.0878 -0.3462
11615TIP3    H156336   2.809   4.010  12.945 -0.5960 -1.0391 -1.4297
11615TIP3    H256337   2.843   3.863  12.929  2.0755 -0.6812  0.3409
11616TIP3   OH256338   6.731   1.798  12.579  0.4372 -0.0667  0.0757
11616TIP3    H156339   6.716   1.892  12.569 -4.2048 -0.5879  0.1759
11616TIP3    H256340   6.737   1.784  12.674  0.4194  0.0455  0.0932
11617TIP3   OH256341   4.026   6.487   2.275 -0.3753 -0.6191  0.2752
11617TIP3    H156342   4.038   6.578   2.249  1.0355 -0.6256  0.8168
11617TIP3    H256343   4.096   6.440   2.231  0.4544 -1.0346  1.9567
11618TIP3   OH256344   0.787   3.505  13.905 -0.5332 -0.1456  0.1974
11618TIP3    H156345   0.834   3.562  13.845 -0.5698 -1.7931 -1.4952
11618TIP3    H256346   0.751   3.564  13.972  0.9510  1.5460 -0.4292
11619TIP3   OH256347   0.683   6.304  11.940  0.5433  0.1838  0.4141
11619TIP3    H156348   0.684   6.319  12.035  0.0412  0.1486  0.4300
11619TIP3    H256349   0.693   6.391  11.902  1.2406  0.1437  0.4953
11620TIP3   OH256350   0.656   4.882  11.987 -0.3760 -0.4330 -0.3775
11620TIP3    H156351   0.730   4.826  12.009  0.3247  0.0552 -1.4085
11620TIP3    H256352   0.590   4.823  11.951  0.1198 -0.6742 -0.8886
11621TIP3   OH256353   3.640   0.431   4.453 -0.5251 -0.8484  0.9643
11621TIP3    H156354   3.553   0.399   4.477 -0.9153 -3.4652 -2.9831
11621TIP3    H256355   3.697   0.354   4.464 -0.0209 -1.0341 -1.9966
11622TIP3   OH256356   3.751   4.716  14.683  0.2817 -0.6382  0.1395
11622TIP3    H156357   3.793   4.791  14.726  0.5488 -0.7065  0.0020
11622TIP3    H256358   3.689   4.756  14.621 -0.3369 -0.5465  0.8141
11623TIP3   OH256359   1.317   4.735  12.013 -0.9947  0.3441  0.1453
11623TIP3    H156360   1.334   4.666  12.076 -1.8446  1.9283  2.2306
11623TIP3    H256361   1.302   4.689  11.930  0.9560 -1.7619  0.8486
11624TIP3   OH256362   4.260   6.431  10.873  0.2336  0.1798  0.5533
11624TIP3    H156363   4.206   6.498  10.914  0.3798  0.3516  0.4675
11624TIP3    H256364   4.300   6.475  10.798  2.4885  0.8279  2.0253
11625TIP3   OH256365   5.048   4.017   3.790  0.2767 -0.0763  0.1893
11625TIP3    H156366   5.100   3.937   3.793  0.5090  0.0932  1.3126
11625TIP3    H256367   5.078   4.062   3.711  0.5681 -0.8098 -0.1321
11626TIP3   OH256368   3.117   0.345  15.986  0.8687  0.2129 -0.3762
11626TIP3    H156369   3.066   0.406  16.040  0.4111 -0.0719 -0.4880
11626TIP3    H256370   3.095   0.369  15.896  1.4303  0.5148 -0.4359
11627TIP3   OH256371   0.866   1.027   3.371  0.1301  0.0308  0.4687
11627TIP3    H156372   0.850   0.998   3.461 -0.0043  0.2158  0.5052
11627TIP3    H256373   0.807   1.101   3.359  0.4575  0.2813  0.3757
11628TIP3   OH256374   5.856   6.530  14.373  0.0225  0.6446  0.4240
11628TIP3    H156375   5.794   6.567  14.436 -0.5357  1.2969 -0.4920
11628TIP3    H256376   5.826   6.561  14.288 -0.8471 -2.3886 -0.4988
11629TIP3   OH256377   5.802   4.939   3.525 -0.3178  0.5753 -0.1378
11629TIP3    H156378   5.897   4.942   3.524 -0.2688 -0.4354 -1.0571
11629TIP3    H256379   5.778   4.953   3.617  0.7635 -0.1622  0.2756
11630TIP3   OH256380   1.142   0.673  12.501 -0.3188 -0.0279 -0.1007
11630TIP3    H156381   1.077   0.741  12.488 -0.1036  0.2422  0.2022
11630TIP3    H256382   1.215   0.698  12.445 -0.4916 -0.3533 -0.4733
11631TIP3   OH256383   3.914   2.232   6.686  0.2206  0.1644 -0.1489
11631TIP3    H156384   3.917   2.150   6.637  0.4657  0.2504 -0.2777
11631TIP3    H256385   3.906   2.300   6.619  1.2912  0.3346 -0.1091
11632TIP3   OH256386   1.171   6.499  12.454  0.2556 -0.1199  0.1278
11632TIP3    H156387   1.116   6.479  12.378  1.4571  0.7379 -1.0163
11632TIP3    H256388   1.171   6.595  12.459 -1.1184 -0.1415  2.2624
11633TIP3   OH256389   1.540   2.857   2.088 -0.1692  0.1656 -0.4517
11633TIP3    H156390   1.541   2.851   1.992  2.6509  0.8440 -0.5482
11633TIP3    H256391   1.490   2.937   2.106 -0.4839  0.1876 -1.3488
11634TIP3   OH256392   2.195   4.464   1.468  0.0687 -0.0481  0.8037
11634TIP3    H156393   2.281   4.496   1.494  0.7000 -0.6811 -0.4356
11634TIP3    H256394   2.164   4.527   1.404  0.4833 -0.8346 -0.2067
11635TIP3   OH256395   0.599   4.960   3.631  0.0485 -0.0171 -0.1072
11635TIP3    H156396   0.504   4.972   3.636  0.0890 -0.0232  0.7227
11635TIP3    H256397   0.636   5.040   3.668  0.3325 -1.1278  2.1844
11636TIP3   OH256398   4.184   1.824   0.954 -0.0289  0.1062  0.3133
11636TIP3    H156399   4.202   1.883   0.880 -1.0553  2.0806  1.5378
11636TIP3    H256400   4.268   1.817   1.000  0.4646 -0.6411 -0.6651
11637TIP3   OH256401   4.710   6.025  11.179  0.2150  0.7183  0.2098
11637TIP3    H156402   4.744   5.958  11.120 -0.5429  0.6328 -0.1553
11637TIP3    H256403   4.669   6.089  11.120  1.4389  1.8056  0.5172
11638TIP3   OH256404   6.805   3.645  16.064  0.5064  0.3501  0.8462
11638TIP3    H156405   6.871   3.631  15.996 -0.4337  0.0942 -0.0401
11638TIP3    H256406   6.739   3.700  16.022 -1.5214 -2.1357  0.5467
11639TIP3   OH256407   1.987   0.523   0.453  0.0181 -0.1547 -0.8188
11639TIP3    H156408   1.895   0.524   0.428  0.2066  2.9560 -1.8485
11639TIP3    H256409   1.994   0.588   0.523  1.5624  0.4515 -1.4798
11640TIP3   OH256410   1.034   1.563  12.332  0.6327 -0.4070  0.2781
11640TIP3    H156411   1.017   1.501  12.261 -0.9833  0.0260  0.2411
11640TIP3    H256412   0.966   1.629  12.323  2.0152  1.1423  0.6139
11641TIP3   OH256413   2.070   4.328  15.196  0.4726  0.2018  1.2087
11641TIP3    H156414   1.984   4.287  15.187  1.3863 -1.3695 -1.3238
11641TIP3    H256415   2.129   4.257  15.220  1.3326  0.9668  1.4260
11642TIP3   OH256416   5.739   1.891  14.041  0.2882 -0.3914 -0.3421
11642TIP3    H156417   5.668   1.858  13.986  0.0180 -1.0552  0.3833
11642TIP3    H256418   5.792   1.814  14.061  1.7287  0.2355 -1.5737
11643TIP3   OH256419   0.395   1.819  15.959  0.4490  0.1760 -0.6277
11643TIP3    H156420   0.379   1.892  16.018  1.8607 -1.3136  1.7725
11643TIP3    H256421   0.463   1.850  15.900  0.5475  1.0397 -0.0799
11644TIP3   OH256422   4.273   4.661  16.499  0.7144 -0.0370 -0.0456
11644TIP3    H156423   4.196   4.698  16.458  0.8388 -0.0893 -0.3330
11644TIP3    H256424   4.316   4.735  16.542 -0.5812 -0.3441  1.9031
11645TIP3   OH256425   3.948   5.224   2.998  0.0029 -0.0705 -0.5439
11645TIP3    H156426   3.855   5.216   3.022 -0.3894 -0.7591 -2.1751
11645TIP3    H256427   3.972   5.313   3.026 -1.1577  0.1258 -0.1221
11646TIP3   OH256428   5.980   6.206  16.437 -0.4672 -1.3005  0.6846
11646TIP3    H156429   6.014   6.126  16.476  0.9818 -1.8958 -1.5764
11646TIP3    H256430   5.907   6.178  16.383  0.0302 -1.1433 -0.1001
11647TIP3   OH256431   5.536   4.428  12.631  0.4769 -0.1748  0.0198
11647TIP3    H156432   5.584   4.352  12.665  0.8743 -0.8749 -1.9768
11647TIP3    H256433   5.446   4.399  12.623  0.5184 -0.2386 -0.2056
11648TIP3   OH256434   6.332   2.320   1.394 -0.1670 -0.3067 -0.2612
11648TIP3    H156435   6.362   2.375   1.322  0.4441  0.0767  0.2619
11648TIP3    H256436   6.361   2.232   1.370  2.2014  0.1490  0.5730
11649TIP3   OH256437   1.835   2.091   2.222  0.1544 -0.0481  0.0074
11649TIP3    H156438   1.911   2.037   2.244 -0.3985 -0.2823  1.4575
11649TIP3    H256439   1.774   2.076   2.293 -1.6617 -0.5844 -1.5870
11650TIP3   OH256440   0.521   0.973   5.258 -0.5811 -0.2294  0.4655
11650TIP3    H156441   0.471   1.045   5.220 -0.4154 -0.4013 -0.0825
11650TIP3    H256442   0.579   1.015   5.322 -1.0657  0.0265  0.7425
11651TIP3   OH256443   1.931   6.742  13.857 -0.1625 -0.6102  0.0691
11651TIP3    H156444   1.931   6.662  13.910 -1.2661 -0.5101  0.2496
11651TIP3    H256445   2.017   6.744  13.816 -0.2701 -2.1301 -0.2844
11652TIP3   OH256446   3.043   3.344   6.397 -0.5248 -0.9612  0.4049
11652TIP3    H156447   3.064   3.380   6.310  0.8077 -0.9336  0.7142
11652TIP3    H256448   3.038   3.249   6.383  0.7308 -1.0511  0.4795
11653TIP3   OH256449   0.739   1.621  14.274 -0.0670  0.4800  0.1933
11653TIP3    H156450   0.683   1.553  14.310  2.6111 -0.5152  2.8698
11653TIP3    H256451   0.722   1.698  14.329  0.4152  0.4949  0.3214
11654TIP3   OH256452   4.555   1.692  10.270  0.0821 -0.5929 -0.0269
11654TIP3    H156453   4.531   1.754  10.201  1.9645 -0.0838 -0.2759
11654TIP3    H256454   4.586   1.746  10.342  0.0051 -1.1853  0.4560
11655TIP3   OH256455   1.745   3.690   4.319  0.2137 -0.0449  0.1732
11655TIP3    H156456   1.832   3.682   4.356  0.7217 -1.8228 -1.2514
11655TIP3    H256457   1.700   3.753   4.376  1.3300 -1.5876  2.9553
11656TIP3   OH256458   0.515   2.523   1.079  0.0296 -0.5865 -0.1181
11656TIP3    H156459   0.509   2.541   1.173  0.4718  2.7305 -0.5984
11656TIP3    H256460   0.461   2.590   1.038  2.5747  0.2977 -2.3429
11657TIP3   OH256461   4.717   5.849   5.522  0.1410  0.3157  0.5521
11657TIP3    H156462   4.772   5.780   5.560  0.5624  1.7231  2.6008
11657TIP3    H256463   4.767   5.929   5.533 -0.3738  1.0417 -1.7310
11658TIP3   OH256464   3.207   5.416   4.246 -0.1687 -0.5023 -0.3713
11658TIP3    H156465   3.160   5.498   4.230 -0.2548 -0.5080 -0.1595
11658TIP3    H256466   3.287   5.443   4.290 -0.0965 -0.5138 -0.4961
11659TIP3   OH256467   0.314   0.569  11.149 -0.0833  0.2892  0.5098
11659TIP3    H156468   0.328   0.654  11.190 -1.2765  1.4782 -1.3803
11659TIP3    H256469   0.309   0.588  11.055  1.7210 -2.1679 -0.2110
11660TIP3   OH256470   4.940   4.107   1.478  0.3012  0.1906 -0.3117
11660TIP3    H156471   5.001   4.140   1.413 -2.0310  1.0487 -2.2129
11660TIP3    H256472   4.972   4.019   1.499  0.9907 -0.2665 -2.9131
11661TIP3   OH256473   1.654   0.066  11.665 -0.2571  0.3067 -0.1134
11661TIP3    H156474   1.668   0.061  11.760  0.7775  1.2502 -0.2017
11661TIP3    H256475   1.614  -0.019  11.643  0.9938 -0.6035  0.9183
11662TIP3   OH256476   4.148   5.201   3.943 -0.7171  0.2131 -0.2875
11662TIP3    H156477   4.141   5.286   3.987 -0.9136 -0.7524  1.6553
11662TIP3    H256478   4.146   5.222   3.849 -0.1787  2.3807  0.1285
11663TIP3   OH256479   1.133   0.398   6.028 -0.1807 -0.1741 -0.0225
11663TIP3    H156480   1.110   0.489   6.007 -1.6429 -0.6833 -0.7179
11663TIP3    H256481   1.185   0.368   5.953 -1.7587 -0.6505 -0.9528
11664TIP3   OH256482   6.099   1.709   3.836  0.2593 -0.6870  0.2235
11664TIP3    H156483   6.020   1.679   3.880  0.4851 -0.1900  0.9891
11664TIP3    H256484   6.163   1.719   3.906  0.3598  1.0176 -0.0645
11665TIP3   OH256485   2.543   6.329   5.250 -0.3346 -0.1834  0.0978
11665TIP3    H156486   2.522   6.246   5.208 -0.3044  0.3706 -1.0721
11665TIP3    H256487   2.638   6.328   5.261 -0.0737  0.4431 -1.6829
11666TIP3   OH256488   1.128   1.102   4.149  0.0577  0.3972 -0.1048
11666TIP3    H156489   1.143   1.083   4.242 -0.6446  0.6220  0.0618
11666TIP3    H256490   1.120   1.015   4.108 -3.0466  0.1921  0.6428
11667TIP3   OH256491   2.575   1.113   3.037 -0.2057 -0.3536 -0.3101
11667TIP3    H156492   2.642   1.131   3.102 -1.6268  0.8231  0.9031
11667TIP3    H256493   2.506   1.176   3.055 -0.9294 -0.3905 -2.5935
11668TIP3   OH256494   3.568   5.272  13.809  0.4372 -0.1049 -0.1552
11668TIP3    H156495   3.609   5.348  13.767 -0.6096  0.2439 -0.5701
11668TIP3    H256496   3.637   5.234  13.863  1.5483  0.0048 -1.4441
11669TIP3   OH256497   1.954   3.992  13.486 -1.0883 -0.7519 -0.1760
11669TIP3    H156498   1.909   3.907  13.494 -0.9699 -1.0040 -1.7523
11669TIP3    H256499   2.043   3.975  13.517 -1.4533 -0.8251  0.8657
11670TIP3   OH256500   1.534   0.042   2.518 -0.1780  0.1131  0.1759
11670TIP3    H156501   1.522   0.133   2.492 -0.2887  0.8881  2.6548
11670TIP3    H256502   1.574   0.000   2.442 -0.1801  2.2060 -1.0452
11671TIP3   OH256503   5.734   5.388   2.162  0.8118 -0.5416 -0.3633
11671TIP3    H156504   5.646   5.425   2.169  1.9284  2.2511  0.4441
11671TIP3    H256505   5.789   5.448   2.212  3.1902 -2.2242 -0.7898
11672TIP3   OH256506   6.572   0.360  11.176 -0.2722 -0.4426 -0.5678
11672TIP3    H156507   6.604   0.270  11.184 -1.0875 -0.7096 -0.2975
11672TIP3    H256508   6.480   0.351  11.155  0.0511  0.3102 -2.5119
11673TIP3   OH256509   0.415   1.432  10.837 -0.0086 -0.5032 -0.2546
11673TIP3    H156510   0.412   1.522  10.807 -0.7570 -0.7767 -1.0464
11673TIP3    H256511   0.368   1.382  10.770 -1.0750 -1.2491  0.9802
11674TIP3   OH256512   2.188   2.077   2.531  0.6433 -0.5418 -0.4324
11674TIP3    H156513   2.162   2.143   2.468  0.7847  1.6344  1.6445
11674TIP3    H256514   2.283   2.084   2.537  0.5338  0.1086  0.8298
11675TIP3   OH256515   3.463   6.344   1.745 -0.0935  0.1301 -0.3004
11675TIP3    H156516   3.525   6.352   1.673  0.5007  1.1397  0.3033
11675TIP3    H256517   3.384   6.308   1.705  1.0737 -1.8420 -0.9627
11676TIP3   OH256518   1.218   2.362  16.201 -0.0201  0.2770 -0.2355
11676TIP3    H156519   1.175   2.279  16.224 -0.7494  0.7343  0.0684
11676TIP3    H256520   1.146   2.420  16.176  0.4466  0.9757  0.0287
11677TIP3   OH256521   5.395   3.558   4.665  0.6607  0.4344 -0.4498
11677TIP3    H156522   5.404   3.521   4.753 -0.3968  1.4714  0.1232
11677TIP3    H256523   5.311   3.603   4.667  0.9335  1.0346 -1.7902
11678TIP3   OH256524   5.663   5.576   5.447  0.1806  0.3341 -0.0174
11678TIP3    H156525   5.705   5.495   5.477  1.4917  0.6786 -0.8043
11678TIP3    H256526   5.598   5.547   5.383  0.1063 -0.1372  0.2632
11679TIP3   OH256527   3.323   2.691   5.482  0.1025 -0.1569  0.2636
11679TIP3    H156528   3.274   2.613   5.508 -0.9157  0.4212  0.1310
11679TIP3    H256529   3.375   2.713   5.560 -0.2578 -0.4703  0.6013
11680TIP3   OH256530   5.187   1.172   3.113 -0.0592  0.1153  0.8036
11680TIP3    H156531   5.235   1.105   3.065 -0.4004  0.5624 -0.1977
11680TIP3    H256532   5.243   1.250   3.108  0.4521 -0.1365  2.1764
11681TIP3   OH256533   0.497   1.005  15.912  0.9192 -0.1054 -0.1433
11681TIP3    H156534   0.505   1.080  15.854  0.1244  0.6817  0.7303
11681TIP3    H256535   0.517   1.039  15.999 -0.9505 -0.5252  0.4912
11682TIP3   OH256536   1.133   3.662  16.655 -0.0057 -0.3198  0.1709
11682TIP3    H156537   1.071   3.734  16.658 -0.8311 -1.0390  2.4793
11682TIP3    H256538   1.158   3.656  16.563  0.4168  3.1161 -0.0668
11683TIP3   OH256539   5.083   0.786  16.408  0.7862 -0.3034  0.0591
11683TIP3    H156540   5.037   0.864  16.376 -0.3302 -1.4152 -1.1387
11683TIP3    H256541   5.154   0.773  16.346  0.5602 -0.6108 -0.1423
11684TIP3   OH256542   0.385   2.390   2.658  0.3649 -0.2494 -0.0600
11684TIP3    H156543   0.481   2.382   2.658  0.3885 -0.5110  2.1814
11684TIP3    H256544   0.361   2.388   2.750 -1.9463 -1.8049 -0.6233
11685TIP3   OH256545   2.977   0.756  12.377 -0.4889 -0.3163  0.2339
11685TIP3    H156546   2.955   0.841  12.417 -1.1640  0.8044 -2.3325
11685TIP3    H256547   2.893   0.713  12.363 -0.3187 -0.3897 -0.5750
11686TIP3   OH256548   2.555   5.361   3.757  0.2552  0.1164  0.3276
11686TIP3    H156549   2.500   5.437   3.778 -1.4243 -0.6083 -1.1966
11686TIP3    H256550   2.539   5.299   3.828 -0.9594 -0.0917 -0.1059
11687TIP3   OH256551   0.824   5.161  16.728 -0.1946  0.3538 -0.2590
11687TIP3    H156552   0.732   5.181  16.746 -0.8121 -1.6200 -1.0129
11687TIP3    H256553   0.873   5.213  16.792 -1.8642  0.8308  0.6794
11688TIP3   OH256554   2.692   4.217   6.439 -0.1903  0.2911  0.0991
11688TIP3    H156555   2.630   4.145   6.432 -0.1303  0.1365  1.0588
11688TIP3    H256556   2.776   4.175   6.455 -0.0438  0.5507  0.0170
11689TIP3   OH256557   6.480   2.544   0.720 -0.8025  0.0110  0.7225
11689TIP3    H156558   6.509   2.469   0.668 -0.0943 -0.2429  1.4615
11689TIP3    H256559   6.399   2.572   0.678  0.5181  0.7794 -1.4673
11690TIP3   OH256560   1.970   4.279  16.012 -0.1122  0.0341  0.6493
11690TIP3    H156561   2.020   4.262  16.091 -0.0136  0.9713  0.8026
11690TIP3    H256562   1.890   4.228  16.022 -0.6233  1.0291  1.9005
11691TIP3   OH256563   1.798   6.445  15.677 -0.0549  0.5160 -0.3474
11691TIP3    H156564   1.798   6.467  15.770 -0.1817  0.8164 -0.4165
11691TIP3    H256565   1.845   6.362  15.672 -3.6246 -1.7677  0.5130
11692TIP3   OH256566   3.485   6.610   6.195  0.4184  0.2055  0.4986
11692TIP3    H156567   3.569   6.607   6.148  0.2695  2.3111 -0.0101
11692TIP3    H256568   3.427   6.659   6.137 -1.5906 -2.2612  0.3029
11693TIP3   OH256569   2.653   2.418   6.065 -0.0702 -0.3787  0.2854
11693TIP3    H156570   2.741   2.387   6.083  0.5494  0.5084 -1.0885
11693TIP3    H256571   2.619   2.445   6.151  1.6825  1.0089  0.5928
11694TIP3   OH256572   3.711   6.365  10.636  0.2648 -0.1186  0.4452
11694TIP3    H156573   3.744   6.415  10.711  0.1678 -0.1143  0.4853
11694TIP3    H256574   3.781   6.369  10.571  0.2308  0.1250  0.4228
11695TIP3   OH256575   2.452   4.997  11.086 -0.1901 -0.1770  0.1580
11695TIP3    H156576   2.494   5.062  11.029 -1.7258  1.8212  1.1783
11695TIP3    H256577   2.395   4.947  11.028  0.0169  0.2673 -0.4403
11696TIP3   OH256578   3.997   4.414   6.790  0.0663 -0.2080  0.3325
11696TIP3    H156579   4.028   4.466   6.716 -0.7787 -0.4028 -0.1755
11696TIP3    H256580   4.077   4.384   6.833  0.5697  0.7811  0.1289
11697TIP3   OH256581   0.186   0.631   0.798 -0.0419  0.6507  0.0444
11697TIP3    H156582   0.242   0.580   0.856 -0.0383  0.8020  0.1758
11697TIP3    H256583   0.246   0.679   0.741 -0.0393  0.7552  0.1352
11698TIP3   OH256584   0.485   6.124   5.330 -0.1473  0.1734 -0.0501
11698TIP3    H156585   0.520   6.185   5.265  4.1230 -1.9523 -0.0942
11698TIP3    H256586   0.470   6.043   5.281 -0.5542 -0.3601  0.9243
11699TIP3   OH256587   2.263   6.439   1.751 -0.1616  0.1871 -0.3336
11699TIP3    H156588   2.304   6.354   1.769  0.2158  0.6218  0.9626
11699TIP3    H256589   2.176   6.432   1.790  0.1155  0.6184  0.3808
11700TIP3   OH256590   6.762   3.408  16.787  0.7263 -0.0930  0.2940
11700TIP3    H156591   6.778   3.362  16.705  0.7158 -1.1341  0.8494
11700TIP3    H256592   6.812   3.358  16.852  2.7117  2.0905  0.5812
11701TIP3   OH256593   0.984   3.033  13.726  0.5983 -0.1140  0.0602
11701TIP3    H156594   0.930   3.021  13.648  0.6829 -1.1251  0.1357
11701TIP3    H256595   1.017   2.945  13.746  2.0940  0.4312  0.1457
11702TIP3   OH256596   3.020   2.522  12.740  0.2831  0.0143 -0.6196
11702TIP3    H156597   3.018   2.495  12.832  1.6690 -0.7619 -0.7870
11702TIP3    H256598   2.928   2.527  12.715 -0.1189  0.0464  0.7524
11703TIP3   OH256599   0.406   4.959  14.110 -0.5543  0.2251  0.0632
11703TIP3    H156600   0.441   4.906  14.039 -1.2607 -0.5437  0.2848
11703TIP3    H256601   0.405   5.048  14.075  2.0802  0.3901  0.2111
11704TIP3   OH256602   1.734   5.170   1.266 -0.7086 -0.7367  0.1117
11704TIP3    H156603   1.715   5.247   1.212 -1.8032 -1.6566 -0.8752
11704TIP3    H256604   1.762   5.104   1.203 -0.0732 -1.2494  0.9173
11705TIP3   OH256605   0.792   0.575   0.132  0.4118 -0.3374 -0.1472
11705TIP3    H156606   0.791   0.670   0.139  0.9716 -0.4681  3.4741
11705TIP3    H256607   0.877   0.549   0.166 -0.1143 -2.1962 -0.1332
11706TIP3   OH256608   3.705   6.482  13.197 -0.0749  0.3075 -0.0687
11706TIP3    H156609   3.717   6.405  13.253  0.8445  0.5401  0.0726
11706TIP3    H256610   3.715   6.556  13.256  0.5280  0.5490 -0.4633
11707TIP3   OH256611   5.098   1.814  13.113 -1.0089 -0.4868  0.2025
11707TIP3    H156612   5.056   1.871  13.178 -0.2304 -0.0998  0.3774
11707TIP3    H256613   5.031   1.749  13.092 -1.7487  0.2049  0.3572
11708TIP3   OH256614   2.028   6.037  10.997  0.3656  0.6637 -0.1947
11708TIP3    H156615   2.020   6.125  10.962 -0.9772  0.4936 -0.3351
11708TIP3    H256616   2.119   6.032  11.028  0.0134  2.6229  1.2798
11709TIP3   OH256617   3.946   1.285  11.484 -0.2479 -0.1182 -0.1037
11709TIP3    H156618   3.856   1.272  11.455  0.4788 -1.5956 -1.8803
11709TIP3    H256619   3.969   1.205  11.530  0.0406  0.4168  0.7030
11710TIP3   OH256620   2.341   4.995  13.474  0.1092 -0.1596  0.2764
11710TIP3    H156621   2.294   4.924  13.428  1.2139  0.4024 -1.8392
11710TIP3    H256622   2.271   5.054  13.503 -0.6786  1.0602 -3.4568
11711TIP3   OH256623   5.404   3.368   6.341  0.1909 -0.0795 -0.2551
11711TIP3    H156624   5.347   3.342   6.413 -1.7062 -0.3725 -1.7804
11711TIP3    H256625   5.441   3.286   6.308 -0.1266 -0.1119 -0.5395
11712TIP3   OH256626   5.192   3.557   0.214  0.2845  0.3516 -0.0980
11712TIP3    H156627   5.136   3.611   0.269 -0.0154  0.0259 -0.0829
11712TIP3    H256628   5.229   3.619   0.150 -0.5083  0.4802 -0.4417
11713TIP3   OH256629   4.524   3.340   4.638  0.1994 -0.7082  0.4899
11713TIP3    H156630   4.580   3.283   4.585 -0.3178  0.0620 -0.9507
11713TIP3    H256631   4.435   3.315   4.614 -0.1735 -2.2839  3.1488
11714TIP3   OH256632   1.386   1.149  15.567  0.4945  0.2543 -0.0502
11714TIP3    H156633   1.325   1.185  15.502 -1.2987 -1.3881  0.6549
11714TIP3    H256634   1.340   1.157  15.650  1.2713 -0.9460  0.5201
11715TIP3   OH256635   1.190   2.490   3.614 -0.1955  0.3046 -0.0834
11715TIP3    H156636   1.166   2.521   3.701  0.3245  0.1575  0.1099
11715TIP3    H256637   1.130   2.536   3.555  0.1761  1.2301  0.2511
11716TIP3   OH256638   1.240   0.852   3.727  0.6405  0.0293 -0.1750
11716TIP3    H156639   1.232   0.945   3.745  0.9148  0.4824 -2.2022
11716TIP3    H256640   1.175   0.811   3.785 -0.6754  1.6095 -0.4498
11717TIP3   OH256641   4.298   1.490  12.853 -0.3988 -0.5892  0.7790
11717TIP3    H156642   4.265   1.579  12.862 -0.2673 -0.6970  2.6932
11717TIP3    H256643   4.220   1.435  12.860 -0.5815 -0.6537 -1.1185
11718TIP3   OH256644   1.903   6.034  10.758 -0.0589  0.5365 -0.2069
11718TIP3    H156645   1.945   6.120  10.747 -0.5924  0.7376 -0.7110
11718TIP3    H256646   1.924   6.010  10.848  0.6870  0.8718 -0.2762
11719TIP3   OH256647   0.951   0.980  16.893 -0.0990 -0.4772 -0.1452
11719TIP3    H156648   0.875   0.938  16.933  0.5482 -0.8842  0.6806
11719TIP3    H256649   0.918   1.017  16.811 -1.0993 -0.9615  0.0305
11720TIP3   OH256650   0.405   5.528   3.042 -0.4005 -0.1142 -0.3742
11720TIP3    H156651   0.310   5.535   3.050 -0.4046  1.0215 -1.1831
11720TIP3    H256652   0.438   5.542   3.131 -1.0029 -1.3189  0.0595
11721TIP3   OH256653   0.937   0.441  12.911 -0.7083 -0.4488  0.0849
11721TIP3    H156654   0.945   0.464  12.819  0.2666 -0.4057  0.1662
11721TIP3    H256655   0.860   0.385  12.916 -1.5218  0.5723 -0.5510
11722TIP3   OH256656   3.727   4.779   2.574  0.2995  0.6126  0.3952
11722TIP3    H156657   3.640   4.816   2.588  0.6184  0.9877  1.5132
11722TIP3    H256658   3.749   4.800   2.483 -0.4583  1.1945  0.3429
11723TIP3   OH256659   1.469   1.798  17.110 -0.7144  0.0909 -0.3642
11723TIP3    H156660   1.434   1.886  17.126  2.6784  1.5464  0.1204
11723TIP3    H256661   1.513   1.805  17.025  0.0203 -0.9428 -0.0903
11724TIP3   OH256662   0.943   0.041  12.357  0.2773  0.3265 -0.1867
11724TIP3    H156663   0.952   0.016  12.265  1.3095 -0.5674  0.1297
11724TIP3    H256664   0.924  -0.042  12.402 -2.2407  1.0322  0.1916
11725TIP3   OH256665   2.961   3.540  14.934 -0.4760 -0.5454 -0.3302
11725TIP3    H156666   2.929   3.458  14.972 -0.1061 -0.5480 -0.0282
11725TIP3    H256667   3.049   3.551  14.969  0.5799 -1.4235 -2.4928
11726TIP3   OH256668   1.866   4.660   0.661 -0.3919 -0.0776  0.1610
11726TIP3    H156669   1.871   4.627   0.750  2.3544 -0.3765 -0.0106
11726TIP3    H256670   1.817   4.742   0.668 -1.4689 -0.8196  1.6774
11727TIP3   OH256671   2.110   4.336  13.804  0.0873  0.1875  0.0276
11727TIP3    H156672   2.121   4.275  13.877  0.2035  1.3866  1.0451
11727TIP3    H256673   2.199   4.352  13.773  0.1589  0.5994  0.4253
11728TIP3   OH256674   1.086   2.076   0.469  0.1702  0.4401 -0.5217
11728TIP3    H156675   1.024   2.144   0.445 -2.3869 -1.3364  0.5648
11728TIP3    H256676   1.115   2.100   0.557 -0.2991  0.4154 -0.3592
11729TIP3   OH256677   2.873   1.193   4.722 -0.2049 -0.1119 -0.0387
11729TIP3    H156678   2.870   1.203   4.818 -0.7067 -2.1189  0.1997
11729TIP3    H256679   2.941   1.128   4.708 -1.3717 -1.1751 -0.9094
11730TIP3   OH256680   3.946   2.834   5.409 -0.2401  0.1460  0.2689
11730TIP3    H156681   3.905   2.763   5.459  0.2170 -0.0930  0.3119
11730TIP3    H256682   3.953   2.799   5.320 -0.4723  0.3319  0.1750
11731TIP3   OH256683   6.542   0.637   4.082  0.3071 -0.1721 -0.6061
11731TIP3    H156684   6.625   0.638   4.034  0.0678 -1.7495 -1.1102
11731TIP3    H256685   6.565   0.667   4.170  2.0803 -3.4723  0.2176
11732TIP3   OH256686   2.590   3.215  17.066 -0.2538 -0.1129  0.5284
11732TIP3    H156687   2.648   3.145  17.097 -0.1246  0.3513  1.3939
11732TIP3    H256688   2.504   3.192  17.099 -0.0045  0.6982  1.8180
11733TIP3   OH256689   5.989   6.809   4.912  0.1751  0.0550  0.2419
11733TIP3    H156690   5.956   6.890   4.950  1.6022  0.0149  1.6917
11733TIP3    H256691   5.911   6.760   4.887 -0.7469  1.1731  0.8420
11734TIP3   OH256692   6.604   5.416  14.570  0.3355  0.1368  0.5933
11734TIP3    H156693   6.541   5.481  14.543  0.8921 -0.0012 -1.1359
11734TIP3    H256694   6.658   5.460  14.636 -0.5108  0.7712  0.8697
11735TIP3   OH256695   1.761   2.643   3.295 -0.0654  0.2265 -0.1396
11735TIP3    H156696   1.832   2.627   3.233  1.2563  1.0591  1.0802
11735TIP3    H256697   1.806   2.675   3.374 -1.7597  0.1668  0.8872
11736TIP3   OH256698   1.965   2.107  11.277  0.5183  0.0548  0.1413
11736TIP3    H156699   1.999   2.155  11.351 -1.1326  0.0679  0.9416
11736TIP3    H256700   1.906   2.168  11.233  0.2318 -0.4686 -0.2208
11737TIP3   OH256701   4.418   0.058  11.662 -0.4557  0.3788 -0.8396
11737TIP3    H156702   4.377   0.011  11.590  0.0052 -1.4883  0.0422
11737TIP3    H256703   4.505   0.081  11.630 -0.5134  0.1888 -1.1336
11738TIP3   OH256704   1.918   3.666   5.410  0.2008  0.2085  0.5935
11738TIP3    H156705   1.850   3.726   5.379 -0.6827 -1.4536 -0.8795
11738TIP3    H256706   1.988   3.675   5.346 -0.0285 -0.4559  0.2359
11739TIP3   OH256707   1.001   2.121   2.298  0.3326 -0.0613  0.2809
11739TIP3    H156708   1.036   2.149   2.213  0.1000 -0.5281  0.0243
11739TIP3    H256709   1.004   2.200   2.352  1.7555 -0.0955  0.2689
11740TIP3   OH256710   4.738   5.874  13.798  0.6290  0.2486  0.0044
11740TIP3    H156711   4.742   5.785  13.832 -0.3196  0.7695  1.6262
11740TIP3    H256712   4.701   5.925  13.870 -1.0003  1.5483 -1.6636
11741TIP3   OH256713   2.874   6.558   3.436  0.0336  0.0168  0.3170
11741TIP3    H156714   2.792   6.608   3.436  0.6163  1.0080 -0.4079
11741TIP3    H256715   2.855   6.482   3.381 -0.3979  0.2405  0.1478
11742TIP3   OH256716   0.773   6.691   2.918 -0.9694 -0.0359  0.0887
11742TIP3    H156717   0.857   6.725   2.949 -0.7375 -0.8620  0.3766
11742TIP3    H256718   0.761   6.732   2.832 -1.6061  2.2798  1.1973
11743TIP3   OH256719   4.233   0.123  13.267 -0.1169 -0.3957  0.4970
11743TIP3    H156720   4.201   0.125  13.177 -1.8100 -1.5320  1.0367
11743TIP3    H256721   4.158   0.095  13.319  1.0273 -0.4804  2.1776
11744TIP3   OH256722   5.349   4.282   2.320 -0.0812  0.2330 -0.3047
11744TIP3    H156723   5.283   4.291   2.251 -0.0827  2.8744 -0.0431
11744TIP3    H256724   5.305   4.315   2.399  1.1692  0.9302  0.1210
11745TIP3   OH256725   4.664   3.405   6.379 -0.2893  0.2960  0.4040
11745TIP3    H156726   4.606   3.469   6.338  1.1974  0.6581 -1.2487
11745TIP3    H256727   4.617   3.322   6.372 -0.3930  0.4772 -1.4507
11746TIP3   OH256728   5.840   4.036  13.520  0.3750  0.0774 -0.1067
11746TIP3    H156729   5.821   4.020  13.427  2.9468 -0.6788 -0.5709
11746TIP3    H256730   5.933   4.054  13.523 -0.1543  3.0789  2.0350
11747TIP3   OH256731   2.381   4.809   1.643 -0.8217  0.3231 -0.5377
11747TIP3    H156732   2.368   4.904   1.646 -0.0228  0.4345  1.7472
11747TIP3    H256733   2.317   4.775   1.705  0.9271 -0.2974  1.0170
11748TIP3   OH256734   5.256   2.253  16.402 -0.0650  0.4958 -0.3890
11748TIP3    H156735   5.285   2.182  16.459 -1.9376 -0.6077 -0.7363
11748TIP3    H256736   5.161   2.256  16.413 -0.2870  1.3959 -2.1535
11749TIP3   OH256737   3.439   2.361   1.156 -0.2444  0.3474 -0.2144
11749TIP3    H156738   3.519   2.408   1.179 -0.4558  2.3640 -3.0213
11749TIP3    H256739   3.469   2.278   1.120  0.5673  0.8151 -0.6347
11750TIP3   OH256740   4.390   0.371   3.772 -0.3156  0.1023  0.6836
11750TIP3    H156741   4.383   0.451   3.825 -0.1870 -0.8627  2.2430
11750TIP3    H256742   4.326   0.311   3.810  0.4474 -0.9583  0.3643
11751TIP3   OH256743   1.781   5.318   4.211  0.0232  0.1188 -0.1428
11751TIP3    H156744   1.710   5.325   4.274 -0.0474  2.1251 -0.3973
11751TIP3    H256745   1.832   5.242   4.241 -1.8225 -0.9830  0.4004
11752TIP3   OH256746   1.739   1.755   5.670 -0.7872 -0.4323  0.0059
11752TIP3    H156747   1.762   1.692   5.738  2.8071  0.2461 -0.3889
11752TIP3    H256748   1.729   1.838   5.716 -0.8501 -0.4307 -0.0104
11753TIP3   OH256749   1.896   4.051   1.139 -0.1098 -0.0990  0.3209
11753TIP3    H156750   1.804   4.025   1.143 -0.4387  0.8188 -0.8657
11753TIP3    H256751   1.895   4.144   1.121  1.0381  1.0680  4.8340
11754TIP3   OH256752   6.779   4.938  15.183 -0.7231 -0.0469 -0.1867
11754TIP3    H156753   6.847   5.002  15.167 -1.8128  1.0233 -0.6813
11754TIP3    H256754   6.731   4.971  15.259 -1.5685 -0.0157 -0.7184
11755TIP3   OH256755   1.696   1.048   1.375 -0.1127 -0.3409  0.3104
11755TIP3    H156756   1.623   1.060   1.436  1.1836  0.6468  1.7319
11755TIP3    H256757   1.714   0.954   1.377 -1.1782 -0.5579  0.1153
11756TIP3   OH256758   3.669   2.886   6.085 -0.0089  0.0813 -0.1112
11756TIP3    H156759   3.738   2.826   6.112  0.7236  1.0683  0.2931
11756TIP3    H256760   3.593   2.861   6.138  0.5228  0.0290  0.6435
11757TIP3   OH256761   6.759   6.310  16.347  0.1840  0.0733  0.1650
11757TIP3    H156762   6.811   6.286  16.424  0.0353 -0.8737 -0.0114
11757TIP3    H256763   6.821   6.351  16.287  0.4799  0.0129  0.4302
11758TIP3   OH256764   2.467   3.986   4.181  0.0660  0.3228  0.4380
11758TIP3    H156765   2.373   3.972   4.170 -0.2099  1.8562  0.7186
11758TIP3    H256766   2.481   4.078   4.160  1.7677 -0.2177 -1.1941
11759TIP3   OH256767   0.849   5.281  12.798 -0.3296 -0.0097 -0.0817
11759TIP3    H156768   0.755   5.294  12.792 -0.3663 -0.2745 -0.0789
11759TIP3    H256769   0.864   5.193  12.762 -0.0184  0.2568 -0.6311
11760TIP3   OH256770   1.246   6.252  15.072 -0.7069  0.1906  0.3545
11760TIP3    H156771   1.218   6.227  14.984  0.0110  0.7832 -0.0635
11760TIP3    H256772   1.210   6.340  15.085  2.1819  1.6947 -0.8682
11761TIP3   OH256773   0.558   3.633  15.496  0.4398 -0.3340  0.0148
11761TIP3    H156774   0.516   3.700  15.441  0.9326  0.1267  0.1996
11761TIP3    H256775   0.546   3.551  15.447  1.7070  0.2113 -1.2557
11762TIP3   OH256776   0.116   5.662  11.502 -0.3783  0.0623 -0.5785
11762TIP3    H156777   0.083   5.689  11.588  1.5178 -0.3677  0.3577
11762TIP3    H256778   0.061   5.588  11.477 -0.8942  0.1278  0.3266
11763TIP3   OH256779   0.137   0.258   0.547  0.4617 -0.5578 -0.2381
11763TIP3    H156780   0.220   0.305   0.539  0.7893 -0.9782  0.6032
11763TIP3    H256781   0.073   0.326   0.572  0.6084 -0.2918 -0.5746
11764TIP3   OH256782   0.794   3.886   3.607 -0.0946  0.0852  0.0177
11764TIP3    H156783   0.755   3.884   3.520 -1.0098 -2.9425  0.3743
11764TIP3    H256784   0.877   3.839   3.597  0.5026  1.0241  0.4989
11765TIP3   OH256785   2.548   5.556  12.051  0.0925  0.6056 -0.1127
11765TIP3    H156786   2.535   5.619  11.980 -0.1861  0.3076 -0.3298
11765TIP3    H256787   2.642   5.537  12.049  0.0146  0.2588 -0.6988
11766TIP3   OH256788   1.112   0.535   4.265  0.0544  0.0175  0.0007
11766TIP3    H156789   1.110   0.532   4.361 -0.2379  0.0607 -0.0033
11766TIP3    H256790   1.050   0.467   4.238 -0.4819  0.5492 -0.1491
11767TIP3   OH256791   3.696   5.648   2.862  0.0386  0.8305  0.0679
11767TIP3    H156792   3.661   5.635   2.950 -0.0050 -1.1272 -0.2092
11767TIP3    H256793   3.752   5.573   2.846  0.9968  1.7531 -1.1430
11768TIP3   OH256794   3.812   0.824  13.953 -0.3945 -0.6638  0.0146
11768TIP3    H156795   3.865   0.864  13.884 -1.5504  0.8167 -0.0605
11768TIP3    H256796   3.770   0.749  13.910 -0.6309 -0.1167 -0.7456
11769TIP3   OH256797   6.475   6.627  13.962 -0.5564  0.3460  0.5170
11769TIP3    H156798   6.530   6.651  13.888  3.1146 -0.6769  2.6245
11769TIP3    H256799   6.465   6.532  13.954 -2.2277  0.5144  0.1423
11770TIP3   OH256800   3.450   0.050  11.933 -0.2492 -0.1138  0.8218
11770TIP3    H156801   3.439   0.139  11.966 -1.3707 -0.0253  0.2873
11770TIP3    H256802   3.368   0.005  11.957  0.4166 -1.0823  1.3396
11771TIP3   OH256803   3.805   1.549   0.546 -0.1666 -0.1686  0.4519
11771TIP3    H156804   3.724   1.534   0.593  0.5479 -3.0101  0.9563
11771TIP3    H256805   3.791   1.510   0.460  0.3549  0.1811  0.2009
11772TIP3   OH256806   0.924   2.102   1.233  0.3359 -0.0559 -0.2973
11772TIP3    H156807   0.933   2.197   1.233 -0.5350  0.0545  1.3953
11772TIP3    H256808   1.005   2.070   1.273  0.2979  0.0032 -0.1753
11773TIP3   OH256809   1.390   0.194   4.360 -0.5899 -0.4020  0.0827
11773TIP3    H156810   1.431   0.235   4.436 -1.8264 -0.0566  0.5794
11773TIP3    H256811   1.459   0.138   4.323  0.5883  0.8111  0.3814
11774TIP3   OH256812   3.161   6.180  11.961 -0.3641 -0.4441 -1.2117
11774TIP3    H156813   3.084   6.128  11.940  0.6754 -1.3140 -3.1347
11774TIP3    H256814   3.137   6.270  11.941 -1.0565 -0.6346 -1.2400
11775TIP3   OH256815   2.658   2.755  17.108 -0.4669 -0.5040  0.0063
11775TIP3    H156816   2.606   2.723  17.182  2.0126 -1.4707  1.4409
11775TIP3    H256817   2.675   2.677  17.055  2.2933 -0.9527  1.4013
11776TIP3   OH256818   5.263   2.373   1.238  0.7618 -0.4648  0.3986
11776TIP3    H156819   5.351   2.336   1.241  0.8562 -0.3336 -0.6891
11776TIP3    H256820   5.204   2.298   1.253  1.0512 -0.4448  1.8429
11777TIP3   OH256821   1.342   5.178  11.147 -0.7771  0.1415  0.4517
11777TIP3    H156822   1.301   5.104  11.194 -0.3388 -2.0895 -2.4027
11777TIP3    H256823   1.435   5.156  11.147 -0.8641 -0.5997 -2.3151
11778TIP3   OH256824   2.973   6.051   4.088 -0.6467 -0.2696 -0.1987
11778TIP3    H156825   2.943   6.096   4.009 -1.1071  0.3803  0.3449
11778TIP3    H256826   3.056   6.011   4.061 -0.6190  0.2393 -0.9141
11779TIP3   OH256827   5.902   5.552   6.156  0.4214  0.0471 -0.0998
11779TIP3    H156828   5.975   5.610   6.178  0.7457 -1.2263  2.7714
11779TIP3    H256829   5.827   5.589   6.203 -0.2759  0.1584 -1.2745
11780TIP3   OH256830   2.725   3.772  15.182 -0.0272  0.6250 -0.0425
11780TIP3    H156831   2.765   3.839  15.238 -2.5581  1.5748  0.8076
11780TIP3    H256832   2.690   3.821  15.107 -1.1736  0.1691  0.1692
11781TIP3   OH256833   5.199   2.138  14.290 -0.4520  0.4544  0.0709
11781TIP3    H156834   5.210   2.232  14.273 -0.8338  0.2818 -1.2783
11781TIP3    H256835   5.249   2.096  14.220 -1.6009 -0.3419 -0.2936
11782TIP3   OH256836   5.398   1.801   0.831  0.6659 -0.2546  0.2648
11782TIP3    H156837   5.334   1.752   0.884 -0.9984  1.5735  0.0771
11782TIP3    H256838   5.364   1.794   0.742  0.9529  0.4155  0.1010
11783TIP3   OH256839   3.449   2.762  13.957  0.2105 -0.2085 -0.1790
11783TIP3    H156840   3.432   2.840  13.903  0.8763 -0.8990 -1.4431
11783TIP3    H256841   3.362   2.728  13.977 -0.1379  1.3721  1.2211
11784TIP3   OH256842   1.286   4.579  11.790  0.4622 -0.2903  0.3656
11784TIP3    H156843   1.227   4.516  11.751  0.7875 -0.5127  0.2261
11784TIP3    H256844   1.352   4.596  11.723 -0.4395  1.3460 -0.1767
11785TIP3   OH256845   0.571   5.061  12.987  0.2957 -0.3397  0.4272
11785TIP3    H156846   0.483   5.044  13.019 -0.2712  0.2787 -0.7412
11785TIP3    H256847   0.566   5.149  12.948  0.2675 -1.8236 -3.4147
11786TIP3   OH256848   5.808   4.542  11.482 -0.3759  0.2245 -0.4281
11786TIP3    H156849   5.881   4.603  11.475 -0.5994  0.4583 -0.7067
11786TIP3    H256850   5.843   4.459  11.451 -0.4072  0.4781 -1.1442
11787TIP3   OH256851   1.361   4.922   0.969  0.1050  0.4332 -0.2153
11787TIP3    H156852   1.413   4.950   0.894  1.8882 -1.6462  0.1375
11787TIP3    H256853   1.426   4.886   1.030 -1.5606 -0.3208  1.1804
11788TIP3   OH256854   0.811   4.225  14.807 -0.3678 -0.8391  0.2510
11788TIP3    H156855   0.893   4.176  14.818  0.0595 -0.7761 -2.1313
11788TIP3    H256856   0.824   4.306  14.857  1.2692 -0.5952 -0.5176
11789TIP3   OH256857   2.822   1.333  16.557 -0.4002 -0.2905  0.0701
11789TIP3    H156858   2.904   1.331  16.508 -0.0447 -3.4614  0.6259
11789TIP3    H256859   2.798   1.242  16.569 -1.2984  0.3039  4.4280
11790TIP3   OH256860   0.281   0.743  15.172 -0.2876 -0.1044  0.2754
11790TIP3    H156861   0.361   0.721  15.125 -0.9589  0.6775 -1.3548
11790TIP3    H256862   0.292   0.706  15.259  2.0518  0.4276  0.2691
11791TIP3   OH256863   0.556   3.051  13.441 -0.1008 -0.0663 -0.4314
11791TIP3    H156864   0.477   3.073  13.392 -1.3705  0.7481  1.8144
11791TIP3    H256865   0.540   2.961  13.472 -1.1947  0.7866  1.7288
11792TIP3   OH256866   0.728   0.881  12.797  1.0902 -0.2543  0.1858
11792TIP3    H156867   0.660   0.947  12.785  0.5534 -0.6280  1.1112
11792TIP3    H256868   0.687   0.799  12.771  1.0997 -0.5123  0.9545
11793TIP3   OH256869   5.196   5.284  14.712 -0.0144 -0.0628 -0.2291
11793TIP3    H156870   5.220   5.337  14.788  3.4720 -1.3822 -0.1993
11793TIP3    H256871   5.113   5.243  14.736  0.5225  0.2772  2.5084
11794TIP3   OH256872   6.532   1.875  16.115 -0.1523  0.0793  0.2832
11794TIP3    H156873   6.551   1.911  16.202  1.6990 -1.2753  0.4905
11794TIP3    H256874   6.556   1.783  16.122  0.2619  0.0031 -1.7242
11795TIP3   OH256875   1.646   1.028  15.630 -0.1935  0.2109 -0.1168
11795TIP3    H156876   1.652   1.045  15.724 -0.3292  1.0762 -0.2601
11795TIP3    H256877   1.552   1.032  15.612 -0.1315  0.5184 -0.3734
11796TIP3   OH256878   3.744   3.763   2.902 -0.1296 -0.0645 -0.5114
11796TIP3    H156879   3.758   3.671   2.924 -1.0767 -0.3765 -1.1568
11796TIP3    H256880   3.775   3.811   2.979 -0.6157 -0.9700  0.2716
11797TIP3   OH256881   4.790   3.520  16.357  0.3442  0.3848  0.1500
11797TIP3    H156882   4.788   3.572  16.436  0.9077  0.0421  0.3983
11797TIP3    H256883   4.877   3.536  16.320  0.1179  0.4792 -0.3608
11798TIP3   OH256884   1.061   3.182   4.915 -0.2864  0.5348  0.9015
11798TIP3    H156885   1.134   3.220   4.963 -0.5160  2.0540  0.1112
11798TIP3    H256886   1.064   3.224   4.829 -0.1954 -1.7370 -0.2711
11799TIP3   OH256887   1.084   1.795  14.697  0.1074 -0.6989 -0.2831
11799TIP3    H156888   1.131   1.838  14.769 -0.5625 -1.8872  0.9188
11799TIP3    H256889   1.015   1.858  14.673 -0.6123 -0.8751  1.1759
11800TIP3   OH256890   0.352   6.112  13.646  0.4349  0.2856 -0.0465
11800TIP3    H156891   0.437   6.122  13.602  0.2772 -2.7691 -1.3107
11800TIP3    H256892   0.373   6.070  13.730  0.2256 -0.3756 -0.3146
11801TIP3   OH256893   6.051   1.964   5.822  0.0238 -0.7008 -0.0844
11801TIP3    H156894   6.043   2.018   5.743  0.0009  0.6563  0.8083
11801TIP3    H256895   6.131   1.996   5.865 -0.8106 -0.3334  1.2316
11802TIP3   OH256896   0.905   3.130  11.836  0.2099  0.1400 -0.1835
11802TIP3    H156897   0.857   3.168  11.910  0.8317  1.3906 -0.3911
11802TIP3    H256898   0.993   3.166  11.844  0.7113 -0.9491 -0.6556
11803TIP3   OH256899   2.766   1.673   0.643 -0.0659 -0.0444  0.1094
11803TIP3    H156900   2.784   1.591   0.598  0.6403 -0.0431  0.3805
11803TIP3    H256901   2.743   1.647   0.732 -1.3117 -0.0369 -0.1873
11804TIP3   OH256902   4.070   3.739   4.224  0.2490  0.0598  0.1428
11804TIP3    H156903   4.157   3.726   4.261  0.0231 -2.0184  0.0878
11804TIP3    H256904   4.086   3.776   4.137  1.1868 -1.3796 -0.3378
11805TIP3   OH256905   3.930   3.103   5.478 -0.3684  0.1424 -0.0820
11805TIP3    H156906   3.846   3.133   5.443 -0.7446 -0.0615  0.6389
11805TIP3    H256907   3.943   3.016   5.439  0.1070  0.6640 -1.1531
11806TIP3   OH256908   5.170   0.535   4.112  0.3492  0.0300 -0.1098
11806TIP3    H156909   5.223   0.471   4.065  0.9628 -0.2386  0.9105
11806TIP3    H256910   5.080   0.509   4.096  0.5674 -0.4481 -0.5835
11807TIP3   OH256911   2.778   5.446  14.854 -0.2129  0.3482  0.1455
11807TIP3    H156912   2.770   5.350  14.854 -1.2338  0.3822  1.8006
11807TIP3    H256913   2.848   5.465  14.792  0.6666 -1.5336  0.4952
11808TIP3   OH256914   6.323   3.222  14.269 -0.0068 -0.1102  0.3264
11808TIP3    H156915   6.316   3.208  14.363  2.1817  0.5972  0.6506
11808TIP3    H256916   6.331   3.317  14.260 -1.0681 -0.0911 -0.6732
11809TIP3   OH256917   0.600   2.138   5.955  0.1722  0.3151  0.8682
11809TIP3    H156918   0.565   2.101   6.036 -0.4656 -0.1261  0.3987
11809TIP3    H256919   0.593   2.233   5.968 -3.1634  0.3251  0.0295
11810TIP3   OH256920   0.584   3.291   3.198  0.3015 -0.4331  0.5573
11810TIP3    H156921   0.653   3.321   3.257  0.6919 -2.8870  1.4472
11810TIP3    H256922   0.629   3.276   3.115 -0.1992  2.7626 -0.4377
11811TIP3   OH256923   0.591   0.867  13.553 -0.2097  0.1536  0.1409
11811TIP3    H156924   0.627   0.937  13.608  0.4632  0.7043 -0.9382
11811TIP3    H256925   0.668   0.817  13.525 -0.1805  1.3754 -2.2558
11812TIP3   OH256926   2.428   2.231   4.688  0.1006 -0.1773 -0.0709
11812TIP3    H156927   2.462   2.143   4.671 -1.1020 -0.8024  0.5489
11812TIP3    H256928   2.334   2.217   4.702 -0.2357  1.3126 -0.6662
11813TIP3   OH256929   2.416   3.471   3.169 -0.5426 -0.0117  1.2468
11813TIP3    H156930   2.423   3.376   3.157 -1.4318 -0.2940  2.7357
11813TIP3    H256931   2.332   3.494   3.129 -0.1114  0.2455  0.4637
11814TIP3   OH256932   6.422   3.681   5.113 -0.4006  0.3469 -0.3523
11814TIP3    H156933   6.474   3.628   5.054  1.7599  1.4673  0.4586
11814TIP3    H256934   6.468   3.765   5.118 -2.3055  1.4216  0.3839
11815TIP3   OH256935   0.072   5.384  13.235 -0.1097 -0.4516 -0.3765
11815TIP3    H156936   0.149   5.439  13.247  0.8597 -1.7719 -0.2477
11815TIP3    H256937  -0.002   5.440  13.256  0.9631  0.0145  2.5658
11816TIP3   OH256938   3.249   6.302  14.145  0.5303 -0.1308 -0.1835
11816TIP3    H156939   3.169   6.252  14.165  0.7672 -0.3492  0.2249
11816TIP3    H256940   3.318   6.236  14.144  0.3651 -0.3615 -2.9966
11817TIP3   OH256941   2.443   0.818   2.495  0.0963  0.3254 -0.0209
11817TIP3    H156942   2.522   0.768   2.474 -0.6427 -0.4033 -1.1519
11817TIP3    H256943   2.405   0.841   2.410 -1.9846 -1.0932  0.4520
11818TIP3   OH256944   0.922   2.771  13.869 -0.0379  0.2687  0.1056
11818TIP3    H156945   0.919   2.858  13.911 -2.5350  0.0820  0.4405
11818TIP3    H256946   0.886   2.712  13.935  0.6020 -0.8612 -0.5404
11819TIP3   OH256947   3.623   6.555  15.028 -0.1700 -0.2688  0.1870
11819TIP3    H156948   3.545   6.601  14.997 -0.8476 -1.8120 -0.4869
11819TIP3    H256949   3.696   6.613  15.005 -0.8667 -0.1704 -1.9958
11820TIP3   OH256950   0.436   4.673   4.657  0.4361  0.3294  0.1013
11820TIP3    H156951   0.367   4.693   4.594  0.2781 -1.8588 -0.5034
11820TIP3    H256952   0.507   4.636   4.604  1.2354  0.5778  0.9669
11821TIP3   OH256953   0.152   1.459   3.206 -0.1948  0.1419  0.6573
11821TIP3    H156954   0.090   1.500   3.145  0.8769  0.4701 -0.2464
11821TIP3    H256955   0.162   1.523   3.276 -2.6709 -0.8995  2.0978
11822TIP3   OH256956   0.638   6.234  15.496  0.2836 -0.4151 -0.1010
11822TIP3    H156957   0.721   6.225  15.543  1.0342 -1.8952 -1.5676
11822TIP3    H256958   0.608   6.144  15.484 -2.1308  0.1182  1.2933
11823TIP3   OH256959   5.442   3.512  13.852 -0.4618 -0.3158  0.6109
11823TIP3    H156960   5.512   3.449  13.872  0.6840  0.4676 -0.7526
11823TIP3    H256961   5.389   3.469  13.785  0.4042  0.1731 -0.4247
11824TIP3   OH256962   6.018   4.517   2.762 -0.2055 -0.1492  0.2248
11824TIP3    H156963   6.014   4.603   2.804 -1.3195 -0.2382  0.3271
11824TIP3    H256964   5.997   4.534   2.670  2.6765  0.1114 -0.4672
11825TIP3   OH256965   3.818   4.400  16.308  0.0983  0.7929  0.1530
11825TIP3    H156966   3.840   4.486  16.271  2.7814  0.0404 -0.1649
11825TIP3    H256967   3.884   4.385  16.376 -0.3667 -0.9960  0.2511
11826TIP3   OH256968   5.885   1.076  16.791  0.2360 -0.1579 -0.0331
11826TIP3    H156969   5.872   1.010  16.723  1.5718  0.8206 -1.3069
11826TIP3    H256970   5.836   1.044  16.866  1.6635 -3.1523 -0.2381
11827TIP3   OH256971   1.355   4.659  12.266  0.0257 -0.2951  0.0225
11827TIP3    H156972   1.272   4.648  12.311 -0.3773 -0.6395 -0.7821
11827TIP3    H256973   1.404   4.720  12.321 -0.7068 -0.1842  0.5705
11828TIP3   OH256974   4.796   4.373  13.814 -0.1440  0.3501  0.0897
11828TIP3    H156975   4.854   4.390  13.739 -1.6605  1.4798 -0.8958
11828TIP3    H256976   4.804   4.451  13.868 -0.7855  0.5699 -0.1143
11829TIP3   OH256977   0.640   5.790   1.105 -1.2565 -0.0343 -0.7490
11829TIP3    H156978   0.702   5.797   1.177 -0.8593 -1.3362 -0.9440
11829TIP3    H256979   0.556   5.815   1.144 -1.1105 -1.0255  0.2740
11830TIP3   OH256980   6.406   2.942   1.053 -0.5355 -0.3694  0.4113
11830TIP3    H156981   6.415   2.972   1.143  0.9245  0.5869 -0.0158
11830TIP3    H256982   6.328   2.888   1.053 -1.2881  0.6556  1.9808
11831TIP3   OH256983   4.430   5.177  16.453 -0.4134 -0.0613 -0.2175
11831TIP3    H156984   4.402   5.130  16.532  0.2341  0.3278  0.2503
11831TIP3    H256985   4.494   5.118  16.413 -0.4844 -0.1037 -0.2686
11832TIP3   OH256986   6.612   1.282   4.641 -0.0337 -0.7739 -0.2684
11832TIP3    H156987   6.629   1.188   4.631  2.6375 -0.3217 -0.6275
11832TIP3    H256988   6.698   1.323   4.638 -1.0567  1.6538  0.7263
11833TIP3   OH256989   0.077   1.206   5.436 -0.1526 -0.0030 -0.1436
11833TIP3    H156990   0.118   1.123   5.459  0.1033 -0.1584 -1.1288
11833TIP3    H256991   0.149   1.261   5.405 -0.6693 -0.3425 -2.0766
11834TIP3   OH256992   5.825   2.748  11.619 -0.0723 -0.6009  0.7237
11834TIP3    H156993   5.870   2.831  11.631 -0.3540 -0.4126  0.4860
11834TIP3    H256994   5.759   2.746  11.689  0.1607 -0.7822  0.9421
11835TIP3   OH256995   0.655   0.833   1.358 -1.1081 -0.2437 -0.1582
11835TIP3    H156996   0.612   0.810   1.275 -1.3350  1.2000 -0.4785
11835TIP3    H256997   0.601   0.904   1.394  0.8576  1.5435 -0.5059
11836TIP3   OH256998   3.678   1.434  13.122 -0.0563 -0.5919 -0.6348
11836TIP3    H156999   3.676   1.367  13.053 -2.9779  0.2998 -1.5468
11836TIP3    H257000   3.596   1.421  13.170  1.3040 -0.3327  1.9377
11837TIP3   OH257001   0.134   0.605  13.551 -0.2819 -0.1484  0.0255
11837TIP3    H157002   0.195   0.675  13.529  1.1328 -1.0318  0.9934
11837TIP3    H257003   0.070   0.645  13.610  0.6242  0.2778  0.7248
11838TIP3   OH257004   0.955   5.237  14.444 -0.1652 -0.0134 -0.0727
11838TIP3    H157005   0.911   5.155  14.466 -0.7571  0.0518 -0.9546
11838TIP3    H257006   0.885   5.303  14.447 -0.2615  0.0238 -1.9165
11839TIP3   OH257007   2.875   1.036   2.100  0.0491 -0.0009 -0.2764
11839TIP3    H157008   2.786   1.021   2.132  0.9177 -0.2858  2.2115
11839TIP3    H257009   2.865   1.045   2.005 -2.1280 -3.9529 -0.6189
11840TIP3   OH257010   0.947   1.595   0.257  0.0884 -0.3223  0.4542
11840TIP3    H157011   1.019   1.559   0.205  0.0573 -1.5777  1.2686
11840TIP3    H257012   0.990   1.647   0.325  0.1535  0.4953 -0.1911
11841TIP3   OH257013   3.482   4.863  14.556 -0.5062  0.5169 -0.2987
11841TIP3    H157014   3.389   4.842  14.544 -0.5879  0.9014 -0.3469
11841TIP3    H257015   3.482   4.952  14.591 -0.2387 -0.1032  1.3743
11842TIP3   OH257016   6.655   4.079  12.369 -0.8819  0.1590  0.4775
11842TIP3    H157017   6.623   4.169  12.358  1.4003  0.8529 -1.4811
11842TIP3    H257018   6.748   4.085  12.348 -0.1256 -2.2845  2.6593
11843TIP3   OH257019   0.348   2.116  12.990  0.6320  0.4840 -0.3313
11843TIP3    H157020   0.322   2.208  12.982  3.7048  1.5865  0.8239
11843TIP3    H257021   0.327   2.093  13.081  0.3995  0.2207 -0.4506
11844TIP3   OH257022   1.124   4.474   4.562 -0.1263 -0.1222 -0.4564
11844TIP3    H157023   1.187   4.484   4.490  1.0964 -2.4281  0.2023
11844TIP3    H257024   1.043   4.446   4.518 -0.2243  1.1648 -1.1505
11845TIP3   OH257025   1.529   2.224   5.117  0.1953  0.4944 -0.5287
11845TIP3    H157026   1.550   2.191   5.029  0.1431 -0.7929 -0.0719
11845TIP3    H257027   1.567   2.160   5.177 -0.3768  0.9864  0.3880
11846TIP3   OH257028   3.972   6.215   0.069 -0.2621  0.0673  0.3259
11846TIP3    H157029   3.996   6.175  -0.015 -0.2556  0.7635 -0.0110
11846TIP3    H257030   3.926   6.145   0.116 -1.4630  0.0424 -0.8033
11847TIP3   OH257031   3.947   0.843  14.666 -0.4579  0.2778 -0.2109
11847TIP3    H157032   3.926   0.853  14.574 -0.2958 -0.6456 -0.3625
11847TIP3    H257033   3.881   0.893  14.712 -0.9131  0.2330 -0.8072
11848TIP3   OH257034   4.701   6.009   6.826  0.3196 -0.0604 -0.0568
11848TIP3    H157035   4.740   5.936   6.777  0.8015  0.4142 -0.3973
11848TIP3    H257036   4.607   6.000   6.812  0.3737 -0.6543 -0.0432
11849TIP3   OH257037   3.058   4.752  14.611 -0.4093  0.4878 -0.5917
11849TIP3    H157038   3.020   4.840  14.617  1.2533  1.1562  1.2497
11849TIP3    H257039   3.060   4.720  14.701  0.2051 -0.9191 -1.0752
11850TIP3   OH257040   5.676   3.641  14.968 -0.5887 -0.7069 -0.3053
11850TIP3    H157041   5.715   3.654  14.881 -0.3024  0.6014 -0.0069
11850TIP3    H257042   5.601   3.701  14.969 -1.0881 -1.3302  0.0520
11851TIP3   OH257043   0.205   3.013  16.462  0.4576  0.3303 -0.1531
11851TIP3    H157044   0.220   2.983  16.551  1.8889 -1.5789 -0.9711
11851TIP3    H257045   0.274   3.076  16.445  0.3086  0.5390  0.0152
11852TIP3   OH257046   1.318   0.766  12.316 -0.0148  0.2875  0.2139
11852TIP3    H157047   1.354   0.736  12.233 -0.9176  0.5471 -0.2916
11852TIP3    H257048   1.389   0.756  12.379  0.2899 -1.0805 -0.3279
11853TIP3   OH257049   4.446   4.848  11.921  0.1039 -0.6111 -0.0429
11853TIP3    H157050   4.381   4.810  11.862  2.3483  0.0376 -3.1986
11853TIP3    H257051   4.513   4.780  11.930  0.2856 -0.3193  0.9518
11854TIP3   OH257052   3.894   5.916   3.266 -0.3277 -0.3834  0.6843
11854TIP3    H157053   3.887   5.821   3.257 -1.5901 -0.5744  2.8810
11854TIP3    H257054   3.988   5.932   3.282 -0.1201 -1.2512  0.3808
11855TIP3   OH257055   3.523   6.286  15.608 -0.6789  0.3176  0.8108
11855TIP3    H157056   3.439   6.329  15.622 -0.4923  1.2100 -0.6313
11855TIP3    H257057   3.532   6.226  15.682 -1.5202  1.8623  2.2305
11856TIP3   OH257058   3.638   3.565   4.325  0.3430 -0.0048  0.6006
11856TIP3    H157059   3.649   3.501   4.254  1.9619  0.4583  0.3906
11856TIP3    H257060   3.611   3.512   4.400  1.3732 -0.9146  0.3585
11857TIP3   OH257061   4.741   2.162   0.480 -0.1156  0.0085 -0.1166
11857TIP3    H157062   4.785   2.078   0.466  1.3729  0.8710 -0.8909
11857TIP3    H257063   4.693   2.178   0.398  0.0051  0.1486 -0.1592
11858TIP3   OH257064   3.888   0.248  16.759  0.0013 -0.5216 -0.0860
11858TIP3    H157065   3.865   0.298  16.837  1.2619  0.9247 -0.5912
11858TIP3    H257066   3.811   0.254  16.702  0.2792  1.3100 -0.3366
11859TIP3   OH257067   3.172   2.220   3.089  0.2029 -0.3109 -0.3547
11859TIP3    H157068   3.202   2.131   3.105  0.4415 -0.4368 -1.4116
11859TIP3    H257069   3.088   2.209   3.043 -0.7699  0.0311  1.2482
11860TIP3   OH257070   2.451   4.818  11.615 -0.7780  0.2232 -0.0866
11860TIP3    H157071   2.397   4.740  11.609 -2.7546  1.5668 -0.7663
11860TIP3    H257072   2.405   4.874  11.678  0.4386  0.9738  0.1780
11861TIP3   OH257073   0.856   4.940  14.587 -0.3384  0.2451 -0.3502
11861TIP3    H157074   0.841   4.866  14.646  0.9284  1.5214  1.6602
11861TIP3    H257075   0.872   4.899  14.501  1.3381 -1.9246  0.8872
11862TIP3   OH257076   0.223   2.530  15.645  0.6664 -0.2404 -0.4805
11862TIP3    H157077   0.282   2.569  15.710  0.3647 -0.7091  0.0786
11862TIP3    H257078   0.203   2.443  15.679  0.5111 -0.4946 -1.2084
11863TIP3   OH257079   3.770   5.732  16.346  0.1426  0.9531 -0.0381
11863TIP3    H157080   3.851   5.746  16.297  0.1822  0.4409 -0.1303
11863TIP3    H257081   3.788   5.656  16.402 -0.8066 -0.2591 -1.3047
11864TIP3   OH257082   1.947   0.324  15.623  0.0306 -0.0076 -0.1490
11864TIP3    H157083   1.901   0.260  15.678  0.3727  0.4795  0.7350
11864TIP3    H257084   1.952   0.283  15.537  0.8512 -1.4671  0.5585
11865TIP3   OH257085   4.614   4.730   2.166 -0.0642 -0.6785 -0.2648
11865TIP3    H157086   4.637   4.640   2.188  0.9449 -0.0863  1.2270
11865TIP3    H257087   4.619   4.732   2.070 -2.2620 -2.7298 -0.5139
11866TIP3   OH257088   4.650   1.852  16.222  0.0165  0.2377 -0.5372
11866TIP3    H157089   4.672   1.760  16.241  1.2400  0.6333  0.0597
11866TIP3    H257090   4.589   1.847  16.149 -1.0996 -1.1298  0.4113
11867TIP3   OH257091   3.841   3.003  11.317 -0.1141 -0.0534  0.4963
11867TIP3    H157092   3.915   2.954  11.282 -1.8412 -0.5487 -2.8812
11867TIP3    H257093   3.813   2.953  11.394  3.3220  0.5426  2.3395
11868TIP3   OH257094   5.146   3.111  14.165 -0.4584 -0.0499 -0.0576
11868TIP3    H157095   5.145   3.087  14.072  1.1363 -1.9104  0.3478
11868TIP3    H257096   5.216   3.177  14.172  0.2618 -0.8056 -0.0056
11869TIP3   OH257097   5.164   6.621   2.326  0.5245  0.5256 -0.0874
11869TIP3    H157098   5.120   6.543   2.292 -0.6315  0.0006  2.3988
11869TIP3    H257099   5.158   6.685   2.255 -1.7416 -0.4712 -0.8858
11870TIP3   OH257100   0.418   1.265  15.617 -0.2090  0.1957 -0.5188
11870TIP3    H157101   0.370   1.192  15.579 -1.0690  0.0126  0.8320
11870TIP3    H257102   0.355   1.337  15.620 -0.5647 -0.1293  1.5317
11871TIP3   OH257103   1.807   0.817  13.628 -0.5404  0.0002 -0.4350
11871TIP3    H157104   1.732   0.824  13.688  1.7574  1.0901  2.5731
11871TIP3    H257105   1.848   0.904  13.631  1.5800 -0.9278 -0.9126
11872TIP3   OH257106   6.567   3.088   0.606  0.6547  0.3045  0.2909
11872TIP3    H157107   6.487   3.130   0.636  0.9335 -0.4287  2.1757
11872TIP3    H257108   6.587   3.022   0.672  2.1184 -0.4212 -0.7983
11873TIP3   OH257109   5.649   4.685   1.831  0.0220 -0.4388 -0.3465
11873TIP3    H157110   5.736   4.686   1.792 -0.7645 -2.2001 -2.2843
11873TIP3    H257111   5.663   4.654   1.921  1.3741 -0.5562 -0.5814
11874TIP3   OH257112   3.225   0.622  12.905  0.2323  0.4559 -0.1875
11874TIP3    H157113   3.272   0.679  12.845  0.4698  0.0353 -0.4107
11874TIP3    H257114   3.133   0.643  12.892  0.3360  0.9649 -0.0817
11875TIP3   OH257115   5.854   3.929  15.307 -0.0868  0.2950  0.7592
11875TIP3    H157116   5.793   3.990  15.349 -1.2622 -0.6144  0.4311
11875TIP3    H257117   5.809   3.845  15.311  1.3555 -0.5006  0.9062
11876TIP3   OH257118   5.278   4.984   2.567  0.2217  0.2231 -0.1844
11876TIP3    H157119   5.284   5.032   2.649  1.0023 -0.2983  0.0776
11876TIP3    H257120   5.369   4.962   2.545 -0.0597 -0.4954 -0.6746
11877TIP3   OH257121   5.132   2.648  15.094  0.5504  0.1107  0.1100
11877TIP3    H157122   5.099   2.572  15.142  2.9501 -1.5511 -0.6396
11877TIP3    H257123   5.220   2.663  15.130 -0.1785  3.2070  0.8915
11878TIP3   OH257124   5.529   6.533  13.729  0.2411  0.4439  0.4498
11878TIP3    H157125   5.474   6.578  13.664 -0.8187 -0.4904  0.6873
11878TIP3    H257126   5.608   6.587  13.734  0.1217  0.8287 -1.2298
11879TIP3   OH257127   2.129   4.373   2.124 -0.5336  0.4994 -0.2069
11879TIP3    H157128   2.159   4.356   2.035 -1.5252  1.7655 -0.8154
11879TIP3    H257129   2.188   4.321   2.180  1.7379  1.6325 -1.4089
11880TIP3   OH257130   5.594   5.768   0.030  0.0570  0.0738  0.5071
11880TIP3    H157131   5.680   5.772   0.072  0.8880  2.2935 -1.2152
11880TIP3    H257132   5.589   5.680  -0.007  1.1148 -0.4471  1.5421
11881TIP3   OH257133   5.641   1.911  15.639 -0.1993  0.1809  0.3632
11881TIP3    H157134   5.637   1.847  15.568 -0.8073  2.4446 -1.7995
11881TIP3    H257135   5.583   1.877  15.707 -0.6039 -1.4491 -0.7636
11882TIP3   OH257136   3.993   4.839  16.426  0.5253 -0.5385  0.2707
11882TIP3    H157137   4.005   4.844  16.521 -0.3946  0.5184  0.3644
11882TIP3    H257138   3.964   4.928  16.401  1.4099 -0.5983 -1.0964
11883TIP3   OH257139   4.402   3.798  16.054 -0.4481  0.2026  0.4952
11883TIP3    H157140   4.380   3.800  15.961  0.8307  0.9325  0.1874
11883TIP3    H257141   4.464   3.726  16.062  0.8192  1.2438  0.4280
11884TIP3   OH257142   0.068   3.735  12.239 -0.3132 -0.1044 -0.1231
11884TIP3    H157143   0.116   3.670  12.290 -1.7273 -1.8753 -0.9544
11884TIP3    H257144   0.076   3.705  12.149 -0.2642  1.3870 -0.6394
11885TIP3   OH257145   5.198   0.961   4.427  0.1960 -0.0147 -0.4275
11885TIP3    H157146   5.267   0.948   4.361  0.9269 -0.0552  0.3375
11885TIP3    H257147   5.242   0.948   4.511 -0.6698  0.3184  0.0879
11886TIP3   OH257148   1.082   6.389  16.518  0.3217 -0.8155 -0.9415
11886TIP3    H157149   1.009   6.450  16.532  0.9459 -0.3903  0.7058
11886TIP3    H257150   1.048   6.305  16.549  0.4154 -0.6752 -0.4413
11887TIP3   OH257151   0.200   6.670   4.236  0.1060  0.7038 -0.3024
11887TIP3    H157152   0.112   6.645   4.266  0.3055 -0.5491 -0.6972
11887TIP3    H257153   0.220   6.608   4.166  1.6974  0.3505  0.4205
11888TIP3   OH257154   1.946   3.343   3.976  0.7888 -0.2425 -0.0563
11888TIP3    H157155   1.854   3.318   3.969  1.5643 -3.0166 -1.6204
11888TIP3    H257156   1.969   3.325   4.067 -0.4012  1.5384  0.6684
11889TIP3   OH257157   2.185   0.075  13.635  0.2974  0.2143  0.3488
11889TIP3    H157158   2.250   0.134  13.673  1.4004  0.3252 -1.5874
11889TIP3    H257159   2.211  -0.012  13.665  0.6349  0.3702  0.5148
11890TIP3   OH257160   4.599   2.289  15.613  0.0412  0.5502  0.1240
11890TIP3    H157161   4.685   2.264  15.579 -0.1708 -2.2086  1.3439
11890TIP3    H257162   4.618   2.340  15.692  0.5825 -0.2788  0.5399
11891TIP3   OH257163   2.879   0.914  13.965 -0.0724 -0.0944  0.0890
11891TIP3    H157164   2.868   0.822  13.943  0.0231 -0.0568 -0.1213
11891TIP3    H257165   2.877   0.959  13.880  0.8166  0.0067  0.1122
11892TIP3   OH257166   2.858   1.899   4.262  0.6262  0.6781  0.3123
11892TIP3    H157167   2.885   1.812   4.289  2.0829  1.2308  0.7406
11892TIP3    H257168   2.795   1.885   4.191  0.2903 -0.7089  0.8601
11893TIP3   OH257169   5.285   1.519   3.413 -0.7496 -0.1257  0.0330
11893TIP3    H157170   5.326   1.584   3.470 -2.4702 -0.6901  2.0498
11893TIP3    H257171   5.358   1.479   3.366  0.6254  1.2793  0.8654
11894TIP3   OH257172   5.506   1.589  12.304  0.2558 -0.3039 -0.0671
11894TIP3    H157173   5.474   1.595  12.394 -0.0250  0.9480 -0.2373
11894TIP3    H257174   5.589   1.540  12.312  0.6553  0.5040  0.9848
11895TIP3   OH257175   3.206   0.635  14.282  0.3822  0.2516  0.4129
11895TIP3    H157176   3.269   0.599  14.345 -0.6245  0.1448  1.3749
11895TIP3    H257177   3.207   0.729  14.298 -0.1754  0.1823  0.8846
11896TIP3   OH257178   4.969   5.505  13.564 -0.3849  0.9874  0.2731
11896TIP3    H157179   4.912   5.582  13.572 -1.4581  0.1621  0.8163
11896TIP3    H257180   4.989   5.500  13.470 -0.7585  1.6062  0.1545
11897TIP3   OH257181   1.241   5.237  16.037 -0.3047 -0.8027  0.0099
11897TIP3    H157182   1.302   5.270  15.972  1.6266  1.8607  2.8918
11897TIP3    H257183   1.159   5.284  16.019  0.8577  1.6841  0.7176
11898TIP3   OH257184   4.169   6.147   4.786 -0.4139 -0.3966 -0.5299
11898TIP3    H157185   4.225   6.071   4.770  0.6241 -0.0399  1.2743
11898TIP3    H257186   4.089   6.110   4.825  0.8521 -0.4700  2.1659
11899TIP3   OH257187   5.925   5.703   3.134  0.3855 -0.3100 -0.4422
11899TIP3    H157188   5.975   5.743   3.062  0.4096  2.7592  1.0753
11899TIP3    H257189   5.972   5.732   3.213 -0.2871 -2.6088  0.8794
11900TIP3   OH257190   6.495   3.416   1.093  0.1459 -0.3586 -0.0568
11900TIP3    H157191   6.513   3.338   1.040 -0.5029 -0.6307  0.1065
11900TIP3    H257192   6.490   3.383   1.183  1.5965  0.1563  0.2358
11901TIP3   OH257193   6.142   5.143   0.312 -0.5762 -0.4424  0.0755
11901TIP3    H157194   6.095   5.085   0.373 -0.9420 -1.3283 -1.0112
11901TIP3    H257195   6.153   5.224   0.361 -1.7535 -0.7784  0.9722
11902TIP3   OH257196   3.170   0.301   3.208  0.1618  0.3121  0.2735
11902TIP3    H157197   3.185   0.242   3.282 -0.0480 -0.3502 -0.2010
11902TIP3    H257198   3.240   0.366   3.214  0.2046  0.2027  0.9883
11903TIP3   OH257199   1.270   1.573   3.990  0.3776  0.2371  0.3841
11903TIP3    H157200   1.215   1.532   4.057 -0.0259  1.3047  0.7324
11903TIP3    H257201   1.209   1.601   3.922  0.6430  0.2471  0.1494
11904TIP3   OH257202   2.261   4.139   2.931  0.4280 -0.2486  0.0713
11904TIP3    H157203   2.312   4.193   2.871  0.4249 -0.2005  0.1122
11904TIP3    H257204   2.249   4.193   3.008 -0.3912  0.0605 -0.2582
11905TIP3   OH257205   6.399   6.127  12.567 -0.7084  0.5978  0.8938
11905TIP3    H157206   6.367   6.215  12.549  0.3837  0.9484  0.6169
11905TIP3    H257207   6.479   6.119  12.515 -0.5345 -0.3827  1.2884
11906TIP3   OH257208   5.139   2.847  12.977 -0.3728 -0.0583 -0.2462
11906TIP3    H157209   5.146   2.753  12.995 -2.7153 -0.1466  0.6456
11906TIP3    H257210   5.196   2.888  13.042 -0.7764 -0.8157  0.6183
11907TIP3   OH257211   0.959   3.539   3.245 -0.2709 -0.3467 -0.4483
11907TIP3    H157212   0.893   3.543   3.314  0.6351  0.0035  0.4260
11907TIP3    H257213   0.909   3.545   3.163 -1.5932 -3.0461  0.0499
11908TIP3   OH257214   5.449   4.242  10.541  0.5044  1.1683  0.0185
11908TIP3    H157215   5.362   4.277  10.559  0.8120  2.1031 -0.2625
11908TIP3    H257216   5.485   4.300  10.474  1.0622  0.3524 -0.4017
11909TIP3   OH257217   6.683   3.147   4.478 -0.1461 -0.2582  0.0416
11909TIP3    H157218   6.738   3.175   4.551 -1.3979 -0.4555  1.0945
11909TIP3    H257219   6.605   3.109   4.519 -1.2444  0.3295 -1.3901
11910TIP3   OH257220   6.457   2.886  13.031 -0.1575  0.3121 -0.4896
11910TIP3    H157221   6.385   2.921  13.083 -0.0524  0.1455 -0.2306
11910TIP3    H257222   6.418   2.812  12.983  0.1055 -0.5082  0.5237
11911TIP3   OH257223   4.553   2.843   1.827  0.2434  0.3729  0.3357
11911TIP3    H157224   4.546   2.768   1.767  0.7555 -0.7592  1.6417
11911TIP3    H257225   4.639   2.880   1.808 -0.2385  1.0149 -0.7080
11912TIP3   OH257226   0.537   6.069  16.724  0.5756  0.2983 -0.1478
11912TIP3    H157227   0.578   5.996  16.771  0.1315  1.4145  2.0909
11912TIP3    H257228   0.566   6.147  16.770  0.9153  1.6020 -2.4019
11913TIP3   OH257229   3.895   4.016  17.005 -0.3474  0.1967  0.2909
11913TIP3    H157230   3.817   3.992  17.055  0.1094 -1.3654  0.2959
11913TIP3    H257231   3.942   3.934  16.993  1.8078  1.2611  1.1079
11914TIP3   OH257232   0.304   6.042  11.766  0.3493  0.0652  0.1056
11914TIP3    H157233   0.213   6.068  11.776  0.3598 -0.0605  0.5222
11914TIP3    H257234   0.318   5.974  11.832  1.2419  1.3646  1.3028
11915TIP3   OH257235   4.733   1.576  16.253  0.2013  0.6621  0.0135
11915TIP3    H157236   4.740   1.562  16.348 -0.8439  0.8210  0.1273
11915TIP3    H257237   4.655   1.527  16.228  0.6427  0.3764 -0.8266
11916TIP3   OH257238   0.514   4.484   0.832  0.5041 -0.0572  0.1353
11916TIP3    H157239   0.519   4.576   0.805  2.2160  0.1422  0.9512
11916TIP3    H257240   0.605   4.458   0.845 -0.0263 -0.7623  3.4288
11917TIP3   OH257241   6.161   5.803  11.878  0.6938  0.4253  0.5693
11917TIP3    H157242   6.171   5.829  11.787  0.7277 -0.4046  0.3321
11917TIP3    H257243   6.073   5.767  11.883  0.5741  0.7603  0.9413
11918TIP3   OH257244   2.574   4.400  16.294 -0.0412 -0.2241 -0.1348
11918TIP3    H157245   2.652   4.456  16.298 -1.9395  2.6672 -0.7563
11918TIP3    H257246   2.562   4.369  16.384  0.5170  1.2136  0.4559
11919TIP3   OH257247   2.445   1.855  13.929 -0.2180  0.1801  0.1187
11919TIP3    H157248   2.409   1.926  13.983  1.7895  1.0264  0.4384
11919TIP3    H257249   2.538   1.854  13.951 -0.1733 -2.5741  0.1131
11920TIP3   OH257250   3.141   1.129  14.496  0.3855 -0.4269 -0.2219
11920TIP3    H157251   3.151   1.182  14.575 -1.3419  2.0740 -1.5558
11920TIP3    H257252   3.091   1.184  14.436  0.6734 -2.6506 -2.6871
11921TIP3   OH257253   1.059   2.598  16.146  0.3307  0.8828 -0.5283
11921TIP3    H157254   0.965   2.591  16.128  0.1802  2.1034 -0.3589
11921TIP3    H257255   1.099   2.613  16.061  0.5602 -1.0028 -0.7871
11922TIP3   OH257256   1.765   1.171   4.938  0.2496  0.2563 -0.4906
11922TIP3    H157257   1.837   1.207   4.887  0.9007 -1.0527 -0.5191
11922TIP3    H257258   1.759   1.228   5.015  1.1477  0.5130 -0.6048
11923TIP3   OH257259   0.871   6.468   5.373  0.4023  0.7523 -0.6485
11923TIP3    H157260   0.868   6.563   5.384  0.3004  0.6551  0.2037
11923TIP3    H257261   0.907   6.435   5.455  0.3352  0.0438 -0.8955
11924TIP3   OH257262   1.365   4.880   3.178 -0.8244 -0.0157 -0.5760
11924TIP3    H157263   1.399   4.791   3.185  0.8647  0.6991  1.0820
11924TIP3    H257264   1.293   4.883   3.240  0.0461  0.1473  0.4492
11925TIP3   OH257265   2.327   5.259  17.196 -0.0058  0.2279  0.3587
11925TIP3    H157266   2.363   5.330  17.143  0.1098 -0.1928 -0.1383
11925TIP3    H257267   2.355   5.179  17.151  0.8909 -0.1728  1.5621
11926TIP3   OH257268   6.724   3.180  12.471  1.4753  0.8429 -0.3156
11926TIP3    H157269   6.689   3.204  12.385 -0.4116 -0.8640 -0.0978
11926TIP3    H257270   6.817   3.163  12.455  1.1244  0.3592 -2.0800
11927TIP3   OH257271   1.574   2.478  12.847 -0.2631  0.4587  0.3555
11927TIP3    H157272   1.515   2.432  12.787 -2.5772  2.1961  1.1564
11927TIP3    H257273   1.607   2.409  12.905  0.3180 -0.9003 -1.5065
11928TIP3   OH257274   1.318   1.442   1.114 -0.2419 -0.1347  0.2756
11928TIP3    H157275   1.332   1.354   1.081  1.7130  0.4446 -0.5914
11928TIP3    H257276   1.328   1.498   1.037 -2.0899  0.8393  0.6792
11929TIP3   OH257277   4.033   2.629   5.625 -0.4667  0.1686 -0.7038
11929TIP3    H157278   4.015   2.711   5.671  1.7625  0.7682 -0.7914
11929TIP3    H257279   3.951   2.580   5.631 -1.9645  2.5042 -0.9315
11930TIP3   OH257280   6.743   0.824  15.338 -0.9997  0.5069  0.1196
11930TIP3    H157281   6.786   0.804  15.255  1.1887 -0.6756  1.4384
11930TIP3    H257282   6.747   0.742  15.388 -0.5292  1.6529  2.0922
11931TIP3   OH257283   4.661   1.983   2.636  0.1731  0.5209 -0.6122
11931TIP3    H157284   4.686   1.897   2.669 -1.4132  0.4559  0.5159
11931TIP3    H257285   4.736   2.040   2.656  0.8202 -0.3687 -0.4671
11932TIP3   OH257286   5.464   2.073   0.831 -0.5883  0.1863  0.2572
11932TIP3    H157287   5.401   2.111   0.770  0.0006 -1.2885 -1.3704
11932TIP3    H257288   5.420   1.995   0.865 -1.0618  1.1884  2.1143
11933TIP3   OH257289   3.761   0.847   4.512 -0.0147  0.7716 -0.5246
11933TIP3    H157290   3.727   0.770   4.467  1.3044 -0.4969  0.5390
11933TIP3    H257291   3.682   0.897   4.536 -1.0862 -1.2264  0.4256
11934TIP3   OH257292   6.535   5.381   5.606  0.2825  0.7015 -0.9086
11934TIP3    H157293   6.453   5.334   5.591  0.1870  1.2573 -2.2066
11934TIP3    H257294   6.528   5.415   5.695 -0.6135  0.1959 -0.7828
11935TIP3   OH257295   6.253   4.484  11.681 -0.8015  0.1611 -0.8484
11935TIP3    H157296   6.231   4.475  11.773 -2.1587 -0.8658 -1.2480
11935TIP3    H257297   6.348   4.501  11.681 -1.1299  2.5764  0.8121
11936TIP3   OH257298   5.623   2.290   0.534  0.2685 -0.8200  0.0996
11936TIP3    H157299   5.581   2.205   0.522  0.6691 -1.2115  1.3303
11936TIP3    H257300   5.717   2.271   0.535  0.3440 -0.4752  1.0474
11937TIP3   OH257301   3.592   4.493  14.592  0.0842 -0.1453 -0.1863
11937TIP3    H157302   3.605   4.541  14.510  0.2605 -0.3129 -0.2551
11937TIP3    H257303   3.563   4.560  14.655 -2.7635 -0.4167 -1.0494
11938TIP3   OH257304   5.345   1.851   6.388 -0.2597 -0.3922 -0.3862
11938TIP3    H157305   5.343   1.795   6.310 -0.2614 -0.6189 -0.2250
11938TIP3    H257306   5.355   1.939   6.353 -2.5569 -0.2250 -0.7540
11939TIP3   OH257307   3.703   5.885   0.792  0.2415  0.5938 -0.1160
11939TIP3    H157308   3.721   5.848   0.878 -0.0123  1.0097  0.1179
11939TIP3    H257309   3.724   5.978   0.800  3.6835  0.0680 -1.5069
11940TIP3   OH257310   2.938   2.460  17.130 -0.8486  0.7290 -0.0729
11940TIP3    H157311   3.032   2.478  17.135 -0.6727  0.6172 -2.0711
11940TIP3    H257312   2.902   2.496  17.211  1.2083 -1.3165  1.9163
11941TIP3   OH257313   2.782   5.319   0.414  0.3439 -0.3628  0.0764
11941TIP3    H157314   2.732   5.400   0.399 -0.2841 -0.7854 -0.1889
11941TIP3    H257315   2.853   5.323   0.350 -0.7015 -0.8313 -1.1639
11942TIP3   OH257316   1.178   6.078  15.302 -0.0180 -0.7931  0.4347
11942TIP3    H157317   1.148   6.128  15.378 -1.9264 -0.1139 -0.6947
11942TIP3    H257318   1.212   6.145  15.242  1.2069 -1.2952  0.5314
11943TIP3   OH257319   3.144   5.419  15.771  0.1069 -0.3614  0.6549
11943TIP3    H157320   3.213   5.485  15.780  0.5445 -0.7762  0.3289
11943TIP3    H257321   3.166   5.371  15.692  0.8241 -2.1227  1.8627
11944TIP3   OH257322   0.659   4.837  14.115 -0.3348  0.2783 -0.0834
11944TIP3    H157323   0.597   4.875  14.178  1.8318  1.6252  1.3669
11944TIP3    H257324   0.692   4.912  14.066 -0.6649 -0.5587 -1.6392
11945TIP3   OH257325   6.022   6.219   3.995  0.5148 -0.8826 -0.2778
11945TIP3    H157326   5.967   6.164   4.051  0.8176  0.4056  1.3627
11945TIP3    H257327   5.960   6.277   3.951  0.4666  0.4162  1.3976
11946TIP3   OH257328   6.825   6.329  14.753 -0.0216  0.2401 -0.4208
11946TIP3    H157329   6.845   6.301  14.663 -0.9957 -1.1686 -0.2333
11946TIP3    H257330   6.907   6.367  14.785  1.2459 -1.8866 -0.9337
11947TIP3   OH257331   3.986   5.710  14.581 -0.6334  0.9079  0.0139
11947TIP3    H157332   4.033   5.721  14.663  0.6839  0.3120 -0.6290
11947TIP3    H257333   3.905   5.760  14.592  0.0586  1.7948  1.2269
11948TIP3   OH257334   4.479   0.627  16.262 -0.0891  0.4571  0.2731
11948TIP3    H157335   4.563   0.619  16.215 -0.1350 -2.0238  0.4892
11948TIP3    H257336   4.413   0.630  16.193 -0.0354 -1.4804  0.0790
11949TIP3   OH257337   0.299   6.644   5.782  0.0826 -0.4749 -0.6299
11949TIP3    H157338   0.324   6.645   5.875  3.2304 -1.3155 -1.3607
11949TIP3    H257339   0.248   6.725   5.771  1.2791  0.6646  1.4510
11950TIP3   OH257340   3.610   5.360   6.409  0.8738  0.0882 -0.8071
11950TIP3    H157341   3.530   5.367   6.461  1.3096  0.6337 -0.1851
11950TIP3    H257342   3.678   5.394   6.466  1.7361 -1.3725 -0.9285
11951TIP3   OH257343   1.053   0.147   1.377 -0.7621 -0.0293  0.1364
11951TIP3    H157344   1.013   0.064   1.353  0.6504 -1.1089  1.3716
11951TIP3    H257345   0.987   0.191   1.431 -0.9849 -0.9542  0.6222
11952TIP3   OH257346   2.266   0.083   0.378  0.0107  0.0788 -0.8803
11952TIP3    H157347   2.336   0.044   0.432 -0.3281  1.7501  0.8920
11952TIP3    H257348   2.242   0.163   0.425 -2.3077  0.1531 -2.0666
11953TIP3   OH257349   4.707   4.480  16.644 -0.0803 -0.1623 -0.5684
11953TIP3    H157350   4.615   4.472  16.619 -0.7894  1.2718  1.3021
11953TIP3    H257351   4.719   4.414  16.712  0.7094 -1.3111 -1.7828
11954TIP3   OH257352   0.176   4.538   1.234  0.6289  0.3344 -0.5578
11954TIP3    H157353   0.217   4.506   1.154  1.5163 -0.1181  0.0616
11954TIP3    H257354   0.159   4.631   1.217 -0.9214 -0.1421 -1.9452
11955TIP3   OH257355   6.749   4.070  16.279  0.1610  0.1992 -0.4621
11955TIP3    H157356   6.751   4.069  16.183  0.0647 -0.9920 -0.4718
11955TIP3    H257357   6.797   3.992  16.305  3.1307  2.1958  0.5827
11956TIP3   OH257358   0.191   3.152  13.892  0.0222  0.0125  0.2816
11956TIP3    H157359   0.135   3.229  13.882 -0.1396 -0.1232  0.1336
11956TIP3    H257360   0.263   3.182  13.947 -0.5354  0.0164  1.0278
11957TIP3   OH257361   2.412   0.357   4.731  0.4934  0.0810 -0.8411
11957TIP3    H157362   2.351   0.424   4.700 -1.6660 -1.4225 -0.0409
11957TIP3    H257363   2.485   0.407   4.769 -0.8487  1.9766 -0.6099
11958TIP3   OH257364   4.785   5.782   4.030  0.1574  0.0354 -0.0658
11958TIP3    H157365   4.707   5.796   3.976  0.2214  0.8559  0.0453
11958TIP3    H257366   4.765   5.704   4.081 -1.0644  0.8437  0.7582
11959TIP3   OH257367   3.733   5.417  11.052  0.6678 -0.0142 -0.2750
11959TIP3    H157368   3.780   5.483  11.103  0.6471  1.6453 -2.2716
11959TIP3    H257369   3.748   5.335  11.100  0.6166  1.3910  2.3578
11960TIP3   OH257370   4.767   6.503   5.655  0.4784 -0.2414  0.8023
11960TIP3    H157371   4.690   6.469   5.700 -0.0704 -0.7341 -0.4576
11960TIP3    H257372   4.834   6.436   5.669 -0.9745 -2.7438 -2.8084
11961TIP3   OH257373   4.996   6.778   4.966 -0.0323  0.4523 -0.4826
11961TIP3    H157374   5.068   6.799   5.026  0.5572 -0.4770 -0.8369
11961TIP3    H257375   5.039   6.743   4.888 -0.8856 -1.0199 -0.3356
11962TIP3   OH257376   2.691   2.572  15.541  0.4184  0.1249 -0.0447
11962TIP3    H157377   2.689   2.479  15.565  1.5494  0.3366  0.9818
11962TIP3    H257378   2.664   2.618  15.620 -1.2371  0.6619 -0.8817
11963TIP3   OH257379   1.106   3.523   3.495  0.0375  0.1317  0.3761
11963TIP3    H157380   1.063   3.529   3.409  0.5958  1.1622  0.1561
11963TIP3    H257381   1.081   3.604   3.540 -2.3284 -1.4696  2.2155
11964TIP3   OH257382   6.576   6.174  15.127  0.2474 -0.4883  0.4069
11964TIP3    H157383   6.534   6.200  15.044 -1.8232  0.7737  1.7570
11964TIP3    H257384   6.651   6.232  15.136  0.4588 -0.5970 -0.5465
11965TIP3   OH257385   2.740   0.477   3.024 -0.5279 -0.2716  0.0112
11965TIP3    H157386   2.673   0.411   3.010 -1.4524  0.7213 -0.3556
11965TIP3    H257387   2.694   0.551   3.063  0.1017  0.8775 -1.3207
11966TIP3   OH257388   1.909   1.354   2.462 -0.1740  0.1865 -0.0719
11966TIP3    H157389   1.837   1.370   2.523  0.9731 -0.1111  1.3998
11966TIP3    H257390   1.951   1.439   2.451 -1.4199  0.6295 -1.8899
11967TIP3   OH257391   6.823   0.734   1.651 -0.3159 -0.3085  0.2583
11967TIP3    H157392   6.771   0.672   1.599 -0.7079  0.6747 -0.5588
11967TIP3    H257393   6.848   0.684   1.729 -1.3129 -1.2413  0.0182
11968TIP3   OH257394   3.235   4.401  16.268 -0.2973 -0.5025 -0.3533
11968TIP3    H157395   3.233   4.329  16.330 -1.9942 -0.2658 -0.0853
11968TIP3    H257396   3.319   4.444  16.283 -0.5362 -0.6248  1.5863
11969TIP3   OH257397   3.443   3.953   0.130 -0.0566  0.3099  0.3683
11969TIP3    H157398   3.456   3.858   0.136 -2.7491 -0.2309 -0.8629
11969TIP3    H257399   3.455   3.985   0.219  2.1559 -0.9486  0.5906
11970TIP3   OH257400   0.850   5.969   4.774  0.1929 -0.2359 -0.2193
11970TIP3    H157401   0.758   5.964   4.750 -0.1875  2.1070  0.4903
11970TIP3    H257402   0.889   6.026   4.708  0.8707 -0.2481  0.1613
11971TIP3   OH257403   5.471   4.463  10.854 -0.4581  0.0130 -0.2125
11971TIP3    H157404   5.530   4.442  10.781 -1.7561  0.4919 -1.4406
11971TIP3    H257405   5.497   4.551  10.881 -1.5416  0.8728 -1.7828
11972TIP3   OH257406   5.655   5.388   2.905  0.1775 -0.2144  0.0775
11972TIP3    H157407   5.626   5.460   2.961  1.2819  0.5492 -0.2942
11972TIP3    H257408   5.749   5.379   2.924  0.3239 -0.7027 -0.8212
11973TIP3   OH257409   0.748   0.995  13.947 -0.0773 -0.1266  0.2904
11973TIP3    H157410   0.721   1.013  13.856 -0.3989 -0.6236  0.2826
11973TIP3    H257411   0.756   1.081  13.987 -1.0623  0.0631  0.1084
11974TIP3   OH257412   3.870   4.847   4.627  0.0436  0.5320  0.4545
11974TIP3    H157413   3.892   4.940   4.628 -1.0412  0.8257 -0.8014
11974TIP3    H257414   3.789   4.841   4.677 -0.4941  0.4454 -0.4090
11975TIP3   OH257415   2.551   1.361  16.292 -0.5683  0.3248  0.1918
11975TIP3    H157416   2.530   1.455  16.298  0.1472  0.5167 -0.2044
11975TIP3    H257417   2.506   1.322  16.367  0.3945  1.2320  1.2856
11976TIP3   OH257418   3.543   1.613  14.577 -0.1225  0.4131 -0.2676
11976TIP3    H157419   3.536   1.545  14.643 -0.7973  2.8425  2.3722
11976TIP3    H257420   3.637   1.626  14.564  0.0085 -0.2383  0.0350
11977TIP3   OH257421   1.103   6.525   4.108  0.9032  0.2165 -0.0218
11977TIP3    H157422   1.059   6.486   4.184  2.7570 -1.5740  0.2520
11977TIP3    H257423   1.105   6.454   4.043 -0.2247  1.5701 -1.6073
11978TIP3   OH257424   5.749   3.080  15.044 -0.3995  0.8115  0.1941
11978TIP3    H157425   5.731   3.083  14.950  0.6215 -0.4614 -0.0598
11978TIP3    H257426   5.719   3.166  15.076  2.6185  2.8553 -1.9054
11979TIP3   OH257427   0.660   1.004  16.951 -0.1275 -0.1763  0.3961
11979TIP3    H157428   0.582   1.002  17.007 -1.3177  0.8404 -1.1193
11979TIP3    H257429   0.629   1.043  16.868  1.9044 -0.1229 -0.4043
11980TIP3   OH257430   6.355   1.874  12.564  0.1411 -0.1339 -0.4066
11980TIP3    H157431   6.385   1.903  12.650 -2.4992 -1.2286  1.0183
11980TIP3    H257432   6.315   1.951  12.525  0.3176  0.0891 -0.1481
11981TIP3   OH257433   2.738   0.775   4.160  0.1923 -0.1375 -0.2623
11981TIP3    H157434   2.791   0.708   4.203 -1.0027 -1.0267 -0.1448
11981TIP3    H257435   2.657   0.778   4.210 -0.7778 -0.3891 -1.7685
11982TIP3   OH257436   0.661   3.955  15.541 -0.0521 -0.2378  0.2880
11982TIP3    H157437   0.751   3.936  15.514 -0.1681  1.6818 -1.7985
11982TIP3    H257438   0.607   3.910  15.476 -0.5514  0.0119  0.5274
11983TIP3   OH257439   3.888   3.942  16.332 -0.5745 -0.2925 -0.2763
11983TIP3    H157440   3.877   3.857  16.373 -0.2720 -0.8146 -1.2512
11983TIP3    H257441   3.855   4.005  16.397 -0.8913 -1.1505  0.4048
11984TIP3   OH257442   6.285   2.142   6.594 -0.1115 -0.0871  0.0056
11984TIP3    H157443   6.221   2.195   6.547 -0.3043  0.4734  0.8817
11984TIP3    H257444   6.339   2.206   6.641 -0.5875 -0.6612  1.3878
11985TIP3   OH257445   6.671   5.582  17.190 -0.7343 -0.5064 -0.6204
11985TIP3    H157446   6.676   5.487  17.190  0.2976 -0.4848  1.0796
11985TIP3    H257447   6.608   5.603  17.260  0.1277  0.0660  0.0075
11986TIP3   OH257448   4.175   6.748   3.190  0.4861 -0.0835 -0.2060
11986TIP3    H157449   4.208   6.784   3.107  2.6017 -1.9755 -0.2705
11986TIP3    H257450   4.250   6.753   3.249 -0.0150 -1.7141  0.6070
11987TIP3   OH257451   5.340   3.920  13.512 -0.4376 -0.6064 -0.6798
11987TIP3    H157452   5.357   3.899  13.421 -1.5986 -0.6179 -0.9115
11987TIP3    H257453   5.424   3.951  13.546 -0.2861  0.6131 -2.0836
11988TIP3   OH257454   0.658   1.968   0.147  0.4552  0.1603  0.5860
11988TIP3    H157455   0.701   2.011   0.221  0.3627  1.3533 -0.0437
11988TIP3    H257456   0.729   1.926   0.099  0.4996 -0.7434  1.4167
11989TIP3   OH257457   6.209   4.767  11.104 -0.6617  0.0389  0.2064
11989TIP3    H157458   6.304   4.773  11.113 -0.7305  0.0798  0.9380
11989TIP3    H257459   6.195   4.686  11.055 -0.1595  1.1170 -1.8554
11990TIP3   OH257460   0.677   2.946  10.671  0.0089 -0.4111  0.4820
11990TIP3    H157461   0.734   2.934  10.595  1.9016 -2.7068  2.0998
11990TIP3    H257462   0.708   3.028  10.711 -0.3591  0.3000 -0.6484
11991TIP3   OH257463   2.480   1.028  15.299 -0.5299 -0.1433  0.2520
11991TIP3    H157464   2.405   1.072  15.259  0.1312 -0.4015 -1.3253
11991TIP3    H257465   2.550   1.093  15.298  0.4419 -1.1127 -2.0512
11992TIP3   OH257466   3.462   0.478   3.898 -0.1826 -0.4790  0.9479
11992TIP3    H157467   3.428   0.490   3.987 -0.8256 -2.7062  1.0760
11992TIP3    H257468   3.511   0.396   3.903  0.0829 -0.4394 -0.6688
11993TIP3   OH257469   3.590   6.138  14.448 -0.0068 -0.4180 -0.2691
11993TIP3    H157470   3.628   6.062  14.405 -0.1235 -0.2717 -0.6353
11993TIP3    H257471   3.666   6.192  14.472  0.0336 -0.2149 -0.8325
11994TIP3   OH257472   2.039   4.478  11.811 -0.2237  0.2068  0.0848
11994TIP3    H157473   2.093   4.431  11.875 -0.5230 -0.6215 -0.2536
11994TIP3    H257474   2.101   4.535  11.765  0.1758  0.0293  0.3960
11995TIP3   OH257475   0.634   5.955   0.253  0.0825  0.2762 -0.1270
11995TIP3    H157476   0.639   5.929   0.161  1.2289  0.9016 -0.2501
11995TIP3    H257477   0.691   6.031   0.260 -0.1868  0.3877  1.0584
11996TIP3   OH257478   6.474   2.617  17.058 -0.5885 -0.3490  0.1340
11996TIP3    H157479   6.519   2.563  16.994 -1.5520  0.2019 -1.0534
11996TIP3    H257480   6.484   2.706  17.025  0.9913  0.2432  2.0705
11997TIP3   OH257481   4.415   6.506   1.200  0.6693 -0.2456  0.6909
11997TIP3    H157482   4.455   6.419   1.199  1.9146  0.3229  0.0414
11997TIP3    H257483   4.489   6.567   1.207 -0.1117  0.8083  0.0720
11998TIP3   OH257484   0.705   6.765   5.603 -0.2325 -0.3481 -0.4107
11998TIP3    H157485   0.679   6.690   5.656 -0.5542 -0.2861 -0.4807
11998TIP3    H257486   0.751   6.823   5.663 -1.2207  0.0577 -0.0322
11999TIP3   OH257487   6.355   4.928   3.869 -0.1776  0.2847 -0.3684
11999TIP3    H157488   6.438   4.910   3.824  0.2436  1.6516 -0.1959
11999TIP3    H257489   6.380   4.946   3.959 -0.8163 -0.5468 -0.0171
12000TIP3   OH257490   0.597   5.147  13.397  0.0306 -0.2551  0.3459
12000TIP3    H157491   0.524   5.111  13.447  0.3378 -1.8700 -0.3235
12000TIP3    H257492   0.675   5.124  13.448  0.2906 -1.3029 -0.4898
12001TIP3   OH257493   2.396   3.463  14.913 -0.0513 -0.9104  0.1170
12001TIP3    H157494   2.418   3.519  14.987  0.9843 -0.4313 -0.5349
12001TIP3    H257495   2.470   3.472  14.853 -0.6104 -1.7313 -0.7244
12002TIP3   OH257496   3.269   6.022   4.589  0.2795  0.1594 -0.6548
12002TIP3    H157497   3.333   6.081   4.549 -0.4462  2.6826  1.6708
12002TIP3    H257498   3.184   6.052   4.556 -0.2406  1.6180  1.7632
12003TIP3   OH257499   0.412   4.310  15.039  0.6064  0.4227 -0.0942
12003TIP3    H157500   0.413   4.311  15.135  0.5540  0.4399 -0.0939
12003TIP3    H257501   0.351   4.380  15.015 -0.0037 -0.1184 -0.1308
12004TIP3   OH257502   1.220   3.184   4.164 -0.4548  0.2856  0.8280
12004TIP3    H157503   1.258   3.249   4.105  0.5541 -0.6333  0.4171
12004TIP3    H257504   1.129   3.176   4.135 -0.1078  0.2104 -0.3260
12005TIP3   OH257505   5.750   3.462  13.113  0.3276 -0.5294  0.0888
12005TIP3    H157506   5.656   3.448  13.103  0.5433 -1.9156 -0.1724
12005TIP3    H257507   5.787   3.449  13.026  0.5894  1.8027 -0.2048
12006TIP3   OH257508   1.306   6.529   3.296  0.2790  0.0094 -0.4311
12006TIP3    H157509   1.241   6.510   3.228  0.9277 -1.6457 -0.6409
12006TIP3    H257510   1.277   6.477   3.371  0.6344  0.3022 -0.0869
12007TIP3   OH257511   4.212   0.557   1.091  0.0115 -0.5013  0.2012
12007TIP3    H157512   4.162   0.476   1.080  0.4238 -0.7594  0.2016
12007TIP3    H257513   4.301   0.528   1.108  0.2366 -0.0406 -0.1739
12008TIP3   OH257514   6.716   3.468   5.176  0.2949 -0.4287 -0.1560
12008TIP3    H157515   6.791   3.455   5.235  1.4637  3.1006 -0.6193
12008TIP3    H257516   6.669   3.542   5.214 -1.4168 -0.8391 -1.3843
12009TIP3   OH257517   5.634   4.572   4.908 -0.0241  0.0291 -0.4079
12009TIP3    H157518   5.662   4.657   4.876 -0.0816 -0.4434 -1.7763
12009TIP3    H257519   5.707   4.540   4.961  0.6940  0.2038 -1.2766
12010TIP3   OH257520   6.302   6.560  11.793  0.2459 -0.8741  0.1567
12010TIP3    H157521   6.277   6.650  11.773 -0.4103 -1.5900 -2.6733
12010TIP3    H257522   6.397   6.562  11.796  0.2478 -0.1533 -0.1538
12011TIP3   OH257523   1.392   2.673   4.755 -0.5566 -0.4794 -0.2270
12011TIP3    H157524   1.454   2.652   4.686  0.7847  1.9028  0.1208
12011TIP3    H257525   1.306   2.673   4.712  0.0377 -0.7899 -1.4539
12012TIP3   OH257526   3.315   3.062   2.512 -0.1582  0.1330  0.1588
12012TIP3    H157527   3.260   3.074   2.435 -0.1883 -2.2359 -0.2746
12012TIP3    H257528   3.258   3.085   2.586 -0.9248  0.1369 -0.4163
12013TIP3   OH257529   2.132   3.192   4.578  0.1316 -0.1488 -0.3380
12013TIP3    H157530   2.093   3.274   4.549 -1.2188  0.0449  1.7931
12013TIP3    H257531   2.063   3.127   4.565  0.7770 -0.7442 -0.8974
12014TIP3   OH257532   3.651   1.636   1.489 -0.6459  0.4044  0.2557
12014TIP3    H157533   3.746   1.635   1.479 -0.6778  1.7494 -0.3758
12014TIP3    H257534   3.631   1.553   1.532  0.8410  0.2460  0.7026
12015TIP3   OH257535   5.180   2.201   1.858 -0.2234  0.0915 -0.4419
12015TIP3    H157536   5.237   2.269   1.893 -1.1025  1.0276 -0.7805
12015TIP3    H257537   5.239   2.131   1.831  0.5330 -0.7848  3.0426
12016TIP3   OH257538   1.801   0.634   6.610 -0.4280  0.2330 -0.2938
12016TIP3    H157539   1.721   0.603   6.653  0.2123  2.0141  2.4060
12016TIP3    H257540   1.780   0.724   6.584  0.9477  1.0780  1.3575
12017TIP3   OH257541   0.243   2.947   4.409 -0.4631  0.7638  0.0189
12017TIP3    H157542   0.260   3.019   4.348  0.3467  0.3968 -0.2082
12017TIP3    H257543   0.312   2.883   4.390 -1.2492 -0.1394  0.1130
12018TIP3   OH257544   6.192   2.400  11.202  0.1835 -0.4255 -0.3057
12018TIP3    H157545   6.131   2.460  11.160  0.8809  0.9012  0.5080
12018TIP3    H257546   6.139   2.324  11.227 -0.5227 -0.6120 -2.2273
12019TIP3   OH257547   4.061   5.517  14.131 -0.0386  0.1104  0.0752
12019TIP3    H157548   4.107   5.521  14.214 -1.4437 -1.5455  1.0078
12019TIP3    H257549   4.016   5.601  14.124  1.6294  1.0514 -0.0248
12020TIP3   OH257550   4.683   4.658  12.788 -0.2151 -0.0339 -0.5481
12020TIP3    H157551   4.688   4.744  12.746 -2.4034  1.0839  1.2837
12020TIP3    H257552   4.720   4.671  12.875 -0.8885 -0.8630 -0.1258
12021TIP3   OH257553   0.970   1.938  15.699 -0.2258 -0.2665  0.0313
12021TIP3    H157554   0.949   1.949  15.792 -2.1388  1.5480 -0.5416
12021TIP3    H257555   0.906   1.992  15.653 -0.2790 -2.2496 -2.4598
12022TIP3   OH257556   0.119   3.569   3.868  0.6535  0.2437  0.0322
12022TIP3    H157557   0.065   3.502   3.825  2.1465 -0.5594 -0.6832
12022TIP3    H257558   0.072   3.590   3.948 -0.3446 -0.9632 -0.2069
12023TIP3   OH257559   6.778   4.462   5.516  0.3468  0.4125  0.5813
12023TIP3    H157560   6.811   4.435   5.602  0.5443  0.2694  0.4603
12023TIP3    H257561   6.786   4.384   5.461 -2.9670 -0.5824  1.3020
12024TIP3   OH257562   1.070   3.240   3.510  0.1019 -0.5089 -0.5405
12024TIP3    H157563   1.122   3.318   3.494  2.4381 -1.4779  1.6257
12024TIP3    H257564   1.000   3.268   3.568  1.5176 -0.1520  1.0503
12025TIP3   OH257565   5.981   4.000  16.548  0.0866 -0.0973 -0.3821
12025TIP3    H157566   5.977   3.904  16.543 -2.6709 -0.1640  1.1497
12025TIP3    H257567   5.911   4.030  16.491  1.5489  1.1340 -1.6374
12026TIP3   OH257568   5.982   1.390  14.968  0.2153 -0.3609 -0.2077
12026TIP3    H157569   5.972   1.295  14.961  2.0651 -0.6166  0.0110
12026TIP3    H257570   6.075   1.405  14.952  0.0916  1.3596  0.4809
12027TIP3   OH257571   1.123   2.572  12.203 -0.3888 -0.1834  0.7161
12027TIP3    H157572   1.210   2.533  12.189 -0.0571 -0.2463  2.7022
12027TIP3    H257573   1.066   2.497  12.219 -0.6680 -0.0917  0.1759
12028TIP3   OH257574   6.008   2.452   5.173  0.3263 -0.2408  0.2228
12028TIP3    H157575   5.991   2.510   5.100 -1.7850  0.2291  1.0011
12028TIP3    H257576   6.049   2.508   5.240  0.2256 -0.1446  0.2034
12029TIP3   OH257577   3.507   2.755  16.123  0.3526 -0.1032  0.2338
12029TIP3    H157578   3.419   2.737  16.155 -0.3841 -0.5411 -1.8381
12029TIP3    H257579   3.560   2.682  16.155  0.0669  0.3563  1.8032
12030TIP3   OH257580   0.667   3.705   0.992  0.4916  0.0299  0.3933
12030TIP3    H157581   0.606   3.742   0.928 -0.3543  0.5372  1.4540
12030TIP3    H257582   0.664   3.611   0.975 -1.5932 -0.1113  1.2014
12031TIP3   OH257583   2.367   0.417  12.151 -0.4375 -0.1893 -0.2068
12031TIP3    H157584   2.439   0.444  12.094  0.0164 -0.3536  0.2784
12031TIP3    H257585   2.376   0.472  12.229 -1.1066  0.0990 -0.3252
12032TIP3   OH257586   0.017   6.225   4.678  0.1860 -0.6238 -0.1722
12032TIP3    H157587  -0.027   6.275   4.747  0.1167  0.8401 -1.2096
12032TIP3    H257588   0.022   6.136   4.712 -1.5388 -0.3525  0.9340
12033TIP3   OH257589   6.455   6.263   5.250  0.3285  0.0088 -0.2336
12033TIP3    H157590   6.452   6.251   5.345 -1.0904 -1.0412 -0.3778
12033TIP3    H257591   6.365   6.282   5.225  0.1747 -2.2205 -1.6409
12034TIP3   OH257592   1.372   0.215  11.421  0.3586  0.4233 -0.1362
12034TIP3    H157593   1.466   0.208  11.436  0.1539 -0.8122  0.7530
12034TIP3    H257594   1.341   0.273  11.490  0.4814  0.9249 -0.5009
12035TIP3   OH257595   5.160   4.438   1.746  0.0011  0.6596 -0.3093
12035TIP3    H157596   5.247   4.473   1.767  0.3537 -1.5069  2.4714
12035TIP3    H257597   5.176   4.375   1.675  0.9711 -0.5968  0.9757
12036TIP3   OH257598   6.572   3.605  11.625  0.0509  0.7901 -0.1809
12036TIP3    H157599   6.654   3.589  11.671 -0.5697 -0.4097  0.5565
12036TIP3    H257600   6.536   3.518  11.608 -1.3463  1.3003  0.0191
12037TIP3   OH257601   2.950   1.693  11.772 -0.4915  0.3504  0.2550
12037TIP3    H157602   3.001   1.770  11.796  1.4668  0.0484 -2.5008
12037TIP3    H257603   2.893   1.723  11.701 -0.3603 -0.5214 -0.2302
12038TIP3   OH257604   5.556   4.441  11.418 -0.4893  0.0050 -0.2336
12038TIP3    H157605   5.507   4.450  11.500 -0.4584  0.4709 -0.2610
12038TIP3    H257606   5.637   4.491  11.433  0.3327 -1.3820  0.0814
12039TIP3   OH257607   4.570   1.238   4.214  0.0168  0.1187  0.1726
12039TIP3    H157608   4.557   1.174   4.144 -0.9542  1.2336 -0.7184
12039TIP3    H257609   4.648   1.287   4.189 -0.5197  0.7376 -0.3384
12040TIP3   OH257610   3.530   5.613  17.151 -0.1478 -0.3027  0.5159
12040TIP3    H157611   3.563   5.671  17.220 -0.1605  1.1945 -0.6785
12040TIP3    H257612   3.518   5.671  17.075  1.0154 -2.0736 -1.1118
12041TIP3   OH257613   0.934   1.123  13.015 -0.1025 -0.3989 -0.4905
12041TIP3    H157614   0.889   1.045  13.048  1.7959 -1.5305 -0.4366
12041TIP3    H257615   0.876   1.196  13.039 -1.0088 -1.5978  1.1918
12042TIP3   OH257616   1.546   4.417  15.973 -0.0582 -0.9006 -0.2469
12042TIP3    H157617   1.603   4.454  16.040  0.5377  0.2810 -1.3576
12042TIP3    H257618   1.481   4.367  16.022  0.6017 -0.4240  1.1786
12043TIP3   OH257619   3.354   4.833   4.021 -0.2361 -0.0747  0.0466
12043TIP3    H157620   3.443   4.852   4.048  0.3347 -0.9461 -1.1228
12043TIP3    H257621   3.363   4.771   3.948 -1.7885 -0.1885 -0.0982
12044TIP3   OH257622   6.437   1.239   3.728  0.0617 -0.3666 -0.6745
12044TIP3    H157623   6.450   1.183   3.804 -0.8918 -0.2691 -0.4219
12044TIP3    H257624   6.344   1.229   3.706  0.7065 -1.8898 -3.0310
12045TIP3   OH257625   3.947   6.362   0.462 -0.3245 -0.1211 -0.9304
12045TIP3    H157626   3.901   6.409   0.532  0.8058 -0.5962  0.1724
12045TIP3    H257627   3.894   6.284   0.448  0.1685 -0.7361  0.4308
12046TIP3   OH257628   5.303   6.029   3.481 -0.3472  0.6059 -0.3786
12046TIP3    H157629   5.282   5.947   3.436  2.0347 -0.1077 -0.3709
12046TIP3    H257630   5.293   6.008   3.574 -0.7116  0.6227 -0.4147
12047TIP3   OH257631   3.485   0.724  10.710 -0.1919 -0.0185 -0.3905
12047TIP3    H157632   3.547   0.703  10.780 -1.5358 -2.3868  0.1968
12047TIP3    H257633   3.483   0.819  10.708  2.1861  0.1339  0.6734
12048TIP3   OH257634   4.752   5.854  12.532  0.2810 -0.8197 -0.1135
12048TIP3    H157635   4.796   5.896  12.606  0.5185 -0.8552 -0.2342
12048TIP3    H257636   4.659   5.873  12.546  0.1892 -1.8214  0.8420
12049TIP3   OH257637   2.669   5.707  11.255 -0.1373  0.0458 -0.5133
12049TIP3    H157638   2.725   5.629  11.254 -2.1903 -1.5540  0.5602
12049TIP3    H257639   2.722   5.775  11.214  1.2002 -2.2916 -3.0056
12050TIP3   OH257640   0.717   1.869  12.058 -0.4047 -0.4954  0.0335
12050TIP3    H157641   0.719   1.948  12.005  0.7010 -0.6047 -0.1122
12050TIP3    H257642   0.624   1.853  12.075 -0.7314 -0.1336 -1.3605
12051TIP3   OH257643   1.626   0.406  14.369 -0.1170  0.0734 -0.0690
12051TIP3    H157644   1.550   0.416  14.312 -0.1943  2.3870  0.3289
12051TIP3    H257645   1.696   0.451  14.323 -0.3839  2.7815  1.9189
12052TIP3   OH257646   3.922   6.648   0.588 -0.0636  0.1894 -0.1315
12052TIP3    H157647   3.877   6.714   0.640 -0.3401 -0.5179  0.5504
12052TIP3    H257648   3.933   6.574   0.648  2.6115  0.5725 -0.0618
12053TIP3   OH257649   2.984   0.123   0.777 -0.0493 -0.0995 -0.4494
12053TIP3    H157650   2.981   0.205   0.826 -0.7124 -0.4219  0.0741
12053TIP3    H257651   2.939   0.142   0.695 -2.1771 -0.4866  0.5573
12054TIP3   OH257652   5.353   3.819  12.378  0.4683 -0.1567 -0.3799
12054TIP3    H157653   5.391   3.898  12.416  0.0290 -0.1674  0.0915
12054TIP3    H257654   5.397   3.747  12.422 -0.4309 -0.1722  0.5423
12055TIP3   OH257655   4.078   4.597   3.682 -0.0860  0.2610  0.1163
12055TIP3    H157656   4.000   4.627   3.634 -1.5276 -2.0743  0.8370
12055TIP3    H257657   4.130   4.551   3.616  0.5434  1.5088 -0.2859
12056TIP3   OH257658   1.053   0.294  14.222  0.1020 -0.9260  0.3222
12056TIP3    H157659   1.004   0.284  14.141 -0.0298  0.5366  0.1805
12056TIP3    H257660   1.007   0.238  14.285 -1.7027  0.2699  0.1570
12057TIP3   OH257661   5.699   2.726   5.771  0.0091 -0.0171  0.3521
12057TIP3    H157662   5.762   2.763   5.710 -0.3774  0.0524 -0.0096
12057TIP3    H257663   5.659   2.802   5.814 -1.3930  0.0560 -0.9997
12058TIP3   OH257664   0.014   2.904  11.439 -0.7667 -0.0750  0.5352
12058TIP3    H157665  -0.013   2.820  11.400 -2.4548  0.8572 -0.4283
12058TIP3    H257666   0.003   2.891  11.533 -1.7709 -0.7122  0.3482
12059TIP3   OH257667   0.773   4.919   3.086  0.3384  0.4903  0.5237
12059TIP3    H157668   0.860   4.882   3.072 -0.5810 -1.5044 -0.2705
12059TIP3    H257669   0.749   4.893   3.175  0.1288  0.0776  0.3507
12060TIP3   OH257670   1.853   0.023  12.802 -0.4934 -0.3207  0.0615
12060TIP3    H157671   1.925   0.052  12.858 -0.9280 -0.0800  0.5061
12060TIP3    H257672   1.788   0.093  12.808 -0.7948 -0.5655 -0.2841
12061TIP3   OH257673   5.395   0.520  16.275 -0.1114 -0.0784  0.7951
12061TIP3    H157674   5.488   0.526  16.252 -0.3196  2.2477  0.3262
12061TIP3    H257675   5.354   0.480  16.198  0.0871  1.9386 -0.4464
12062TIP3   OH257676   1.160   2.499   0.077 -0.0663 -0.7486 -0.1748
12062TIP3    H157677   1.164   2.410   0.111 -0.0109 -1.0260 -0.8955
12062TIP3    H257678   1.073   2.530   0.102  0.6068 -0.3054  1.7595
12063TIP3   OH257679   1.474   5.908   3.735  0.6106  0.4785  0.6795
12063TIP3    H157680   1.555   5.872   3.771  0.4949 -2.1592 -1.3509
12063TIP3    H257681   1.409   5.896   3.805  1.0723 -1.5518  0.8427
12064TIP3   OH257682   4.364   4.179   4.156  0.2009  0.5512  0.0897
12064TIP3    H157683   4.271   4.202   4.147  0.0190  0.4245  1.4356
12064TIP3    H257684   4.383   4.125   4.079 -0.3917  1.9461 -1.0759
12065TIP3   OH257685   3.512   4.190   0.636 -0.2314 -0.5077 -0.2008
12065TIP3    H157686   3.486   4.280   0.653 -0.1409 -0.5925  0.4070
12065TIP3    H257687   3.474   4.170   0.550 -0.3562  0.0640 -0.2835
12066TIP3   OH257688   1.452   3.053  14.233 -0.1896  0.1237 -0.4721
12066TIP3    H157689   1.515   3.114  14.194  1.4291 -1.2482 -0.1345
12066TIP3    H257690   1.467   3.061  14.327  0.5679 -1.2793 -0.4528
12067TIP3   OH257691   0.052   1.238  11.801 -0.7496  0.0381 -0.2273
12067TIP3    H157692   0.023   1.217  11.712 -1.0808  1.3122 -0.4414
12067TIP3    H257693   0.045   1.333  11.806 -0.5573 -0.0056  1.1061
12068TIP3   OH257694   1.290   2.010   1.654  0.0479  0.5012 -0.5311
12068TIP3    H157695   1.243   1.928   1.640  0.4019  0.3330 -0.7407
12068TIP3    H257696   1.383   1.986   1.646  0.5771 -0.2218  4.5162
12069TIP3   OH257697   0.033   1.448  15.309  0.0800  0.2260  0.8643
12069TIP3    H157698  -0.007   1.395  15.378  0.0771 -0.5349  0.2955
12069TIP3    H257699  -0.036   1.456  15.242  1.2079 -2.1810 -0.7075
12070TIP3   OH257700   1.303   3.773  16.087  0.2373 -0.5546 -0.1488
12070TIP3    H157701   1.379   3.750  16.033 -0.4812 -1.9993 -0.5882
12070TIP3    H257702   1.265   3.689  16.112 -2.3384  0.1061 -1.5411
12071TIP3   OH257703   2.635   0.839  14.321 -0.0564 -0.5444  0.2680
12071TIP3    H157704   2.695   0.912  14.338  0.6196 -1.0234 -0.0083
12071TIP3    H257705   2.615   0.804  14.408  2.0166 -1.9013  0.2822
12072TIP3   OH257706   5.242   2.160  12.918 -0.1373  0.0918 -0.0386
12072TIP3    H157707   5.176   2.176  12.986  1.3645 -0.4212  1.6407
12072TIP3    H257708   5.279   2.247  12.901  0.8006 -0.0119  1.2884
12073TIP3   OH257709   6.059   3.893   3.494 -0.0659  0.1490  0.6901
12073TIP3    H157710   6.151   3.907   3.519 -0.3356  0.4857  1.5003
12073TIP3    H257711   6.033   3.816   3.543  0.2020 -0.8617 -0.6704
12074TIP3   OH257712   2.771   1.637   5.892  0.7275  0.0524 -0.9440
12074TIP3    H157713   2.741   1.570   5.953  1.8828 -0.3563 -0.7917
12074TIP3    H257714   2.692   1.686   5.869  0.1169 -0.3868  0.1309
12075TIP3   OH257715   0.149   1.250  16.951 -0.2291 -0.0282 -0.1849
12075TIP3    H157716   0.187   1.252  17.039 -1.4341 -1.7814  0.4255
12075TIP3    H257717   0.055   1.254  16.966 -0.4386  1.9099 -1.5543
12076TIP3   OH257718   5.483   2.332  15.225 -0.0824 -0.4985  0.1372
12076TIP3    H157719   5.502   2.398  15.159  1.0360 -0.9608 -0.0265
12076TIP3    H257720   5.485   2.249  15.177 -2.2456 -0.6295  0.1803
12077TIP3   OH257721   5.530   2.529   0.480 -0.2163  0.3485  0.2320
12077TIP3    H157722   5.586   2.581   0.537 -0.6339  2.4245 -1.1221
12077TIP3    H257723   5.541   2.439   0.510  3.0096  0.7860  0.6587
12078TIP3   OH257724   4.056   2.556  12.313  0.0087  0.3898 -0.5642
12078TIP3    H157725   3.964   2.573  12.292  0.0465  1.4475  0.1009
12078TIP3    H257726   4.053   2.482  12.374 -0.5629  1.6686  1.0337
12079TIP3   OH257727   4.019   5.629  11.798  0.0582  0.1581  0.1175
12079TIP3    H157728   4.092   5.603  11.741 -0.3894 -0.4037 -0.2184
12079TIP3    H257729   3.999   5.550  11.848 -3.2691 -1.2726 -3.0116
12080TIP3   OH257730   3.277   2.572   4.956 -0.3130  0.8594  0.6936
12080TIP3    H157731   3.197   2.522   4.967  0.2965 -0.0183  1.3074
12080TIP3    H257732   3.307   2.590   5.045 -1.0797  3.3062  0.5238
12081TIP3   OH257733   0.327   1.708  11.556  0.4698  0.2211 -0.3564
12081TIP3    H157734   0.267   1.781  11.571  1.1148  1.1086 -1.8453
12081TIP3    H257735   0.345   1.712  11.462  3.7747  0.7630  0.1996
12082TIP3   OH257736   2.441   1.234  17.160 -0.2001 -0.1696  0.2755
12082TIP3    H157737   2.364   1.183  17.183 -0.7855  0.7963  0.5088
12082TIP3    H257738   2.406   1.316  17.124  0.7166  0.0898 -0.0578
12083TIP3   OH257739   2.428   3.432   0.891  0.2231 -0.3609  0.4082
12083TIP3    H157740   2.426   3.428   0.796  1.1929  1.7320  0.2420
12083TIP3    H257741   2.335   3.435   0.917 -0.0420 -0.5194 -0.4979
12084TIP3   OH257742   6.456   5.441   2.393 -0.0898 -0.0789  0.3561
12084TIP3    H157743   6.375   5.480   2.425 -0.1899  0.1693 -0.1944
12084TIP3    H257744   6.512   5.434   2.471 -0.6062 -0.1847  0.7242
12085TIP3   OH257745   4.127   4.876  15.335  0.5477  0.2619  0.3992
12085TIP3    H157746   4.123   4.782  15.318  1.4537  0.7047 -3.2082
12085TIP3    H257747   4.036   4.905  15.332  0.0408 -0.6336  3.5430
12086TIP3   OH257748   4.981   4.268   2.561  0.3939 -0.1322 -0.3172
12086TIP3    H157749   4.905   4.322   2.539  0.9637  0.7582 -0.1362
12086TIP3    H257750   4.994   4.213   2.483 -0.0477  0.1555 -0.5993
12087TIP3   OH257751   0.686   1.525  12.043  0.5119  0.1220 -0.1245
12087TIP3    H157752   0.758   1.467  12.067 -0.1034 -0.6501 -0.1192
12087TIP3    H257753   0.720   1.578  11.971  0.2727 -1.9500 -1.8192
12088TIP3   OH257754   3.323   0.435  12.730 -0.1158  0.1320 -0.0783
12088TIP3    H157755   3.334   0.499  12.660  0.8488  1.6605  1.3780
12088TIP3    H257756   3.290   0.486  12.804 -1.2618 -1.4606  0.5600
12089TIP3   OH257757   0.891   0.946   1.668 -0.9645  0.0008 -0.1921
12089TIP3    H157758   0.918   0.971   1.579  2.0073 -0.7383  0.3683
12089TIP3    H257759   0.815   0.890   1.655 -0.1592 -0.7125 -2.3795
12090TIP3   OH257760   1.392   6.232   1.402  0.5728  0.6465  0.3283
12090TIP3    H157761   1.473   6.181   1.409  1.0047  1.4907  1.9753
12090TIP3    H257762   1.357   6.234   1.491 -0.5862  1.3622 -0.1290
12091TIP3   OH257763   6.068   3.583  14.803 -0.7324 -0.1635  0.4907
12091TIP3    H157764   6.061   3.573  14.898 -0.3305 -0.1128  0.5262
12091TIP3    H257765   6.157   3.554  14.782 -0.3081  1.1933  0.3128
12092TIP3   OH257766   4.351   3.432   5.181  0.2969  0.0254 -0.0086
12092TIP3    H157767   4.434   3.384   5.180 -0.0491 -0.6954 -2.4905
12092TIP3    H257768   4.330   3.442   5.274  3.0538  0.0907  0.6962
12093TIP3   OH257769   2.617   3.021   2.941 -0.0291  0.1962 -0.4326
12093TIP3    H157770   2.675   3.069   2.882 -0.6957  1.0105 -0.4470
12093TIP3    H257771   2.622   2.930   2.911  0.8634  0.3301 -0.7255
12094TIP3   OH257772   1.702   6.007   3.425 -0.3473  0.5935  0.1465
12094TIP3    H157773   1.637   6.009   3.494 -1.2442  1.6918 -0.6893
12094TIP3    H257774   1.652   6.015   3.344  0.7568  0.5723 -0.5663
12095TIP3   OH257775   2.739   3.270  13.577  0.3664  0.1447 -0.3057
12095TIP3    H157776   2.790   3.281  13.496 -0.2623  1.0618 -0.5943
12095TIP3    H257777   2.791   3.209  13.629  1.0130 -0.1095 -1.2094
12096TIP3   OH257778   6.522   4.613  17.207 -0.1768  0.0746 -0.4244
12096TIP3    H157779   6.600   4.612  17.151  1.0225 -1.8851  1.1273
12096TIP3    H257780   6.467   4.543  17.173  0.6417 -1.2535  0.8264
12097TIP3   OH257781   1.553   5.938  13.801 -0.0920  0.2464  0.5198
12097TIP3    H157782   1.515   5.959  13.887  0.7026  0.4087  0.8341
12097TIP3    H257783   1.568   6.022  13.759  0.9744  0.2390  0.8611
12098TIP3   OH257784   3.851   6.400   6.264 -0.5409 -0.3521  0.0929
12098TIP3    H157785   3.832   6.361   6.349 -0.4489  1.0299  0.7777
12098TIP3    H257786   3.931   6.450   6.278 -0.3427 -0.3843 -0.8974
12099TIP3   OH257787   5.752   3.231   5.621  0.6470 -0.1792  0.4796
12099TIP3    H157788   5.754   3.303   5.557  1.6682  0.5821  1.3357
12099TIP3    H257789   5.661   3.229   5.651  0.2321 -0.3108 -0.7019
12100TIP3   OH257790   1.606   1.913  11.366  0.3131 -0.1071 -0.0882
12100TIP3    H157791   1.511   1.904  11.360  0.3380 -0.2833 -0.2369
12100TIP3    H257792   1.630   1.972  11.295  0.1017  1.5640  1.1538
12101TIP3   OH257793   4.161   6.007  15.401  0.3750  0.4922  0.0435
12101TIP3    H157794   4.103   5.935  15.375 -0.0132  0.7709  0.1299
12101TIP3    H257795   4.176   5.993  15.494  0.3999  0.4500  0.0327
12102TIP3   OH257796   0.668   2.127   0.814  0.2528  0.0591 -0.0920
12102TIP3    H157797   0.593   2.154   0.868  1.2688 -2.2376  2.7374
12102TIP3    H257798   0.685   2.203   0.757 -2.9331  1.4034  0.5204
12103TIP3   OH257799   1.753   4.515   2.394 -0.1183 -0.1740  0.6669
12103TIP3    H157800   1.838   4.506   2.437  0.4853  0.7949 -0.2660
12103TIP3    H257801   1.741   4.434   2.345  0.5944 -0.0458  0.2718
12104TIP3   OH257802   1.417   2.276   1.190  0.1929  0.3874 -0.3934
12104TIP3    H157803   1.449   2.286   1.100  1.1146  0.9001 -0.0273
12104TIP3    H257804   1.348   2.342   1.198  0.1158  0.3487 -0.7185
12105TIP3   OH257805   4.802   3.791  12.171 -0.0766 -0.2190  0.1667
12105TIP3    H157806   4.798   3.835  12.086  2.2894 -2.4195 -1.2303
12105TIP3    H257807   4.719   3.743  12.177 -0.0914 -0.4023 -1.1573
12106TIP3   OH257808   4.138   3.325  14.255  0.1601 -0.2213 -0.5529
12106TIP3    H157809   4.127   3.377  14.335  3.5806 -1.4866  0.9142
12106TIP3    H257810   4.070   3.258  14.260 -0.8853  0.8508  0.2636
12107TIP3   OH257811   5.985   0.717  10.626 -0.5981 -0.0814 -0.4448
12107TIP3    H157812   5.903   0.671  10.609 -0.3920 -0.7157  0.2660
12107TIP3    H257813   5.963   0.809  10.614 -1.2274 -0.2963 -1.0053
12108TIP3   OH257814   2.010   5.235   1.347 -0.1595  0.1912 -0.2906
12108TIP3    H157815   2.038   5.211   1.435  0.8282 -0.2077 -0.6973
12108TIP3    H257816   1.919   5.206   1.342  0.2204 -1.1596  0.1025
12109TIP3   OH257817   5.817   6.436  15.652 -0.0121  0.0452 -0.1302
12109TIP3    H157818   5.872   6.482  15.715  0.1533 -0.9592  0.4839
12109TIP3    H257819   5.875   6.371  15.613 -0.0829  0.7323 -1.4273
12110TIP3   OH257820   2.141   4.978   4.135 -0.0585 -0.0001 -0.0979
12110TIP3    H157821   2.112   4.921   4.064 -0.6522 -0.1877  0.2895
12110TIP3    H257822   2.149   4.921   4.211 -0.6216  0.4195  0.2879
12111TIP3   OH257823   0.859   4.775  15.340  0.6670  0.5760  0.2572
12111TIP3    H157824   0.848   4.828  15.419  1.0779 -0.8258  1.2981
12111TIP3    H257825   0.817   4.691  15.361  1.2547 -0.0059 -0.8003
12112TIP3   OH257826   4.617   5.553  13.052  0.5965 -0.0938 -1.1667
12112TIP3    H157827   4.525   5.536  13.074  0.8539 -1.6602 -1.1437
12112TIP3    H257828   4.622   5.647  13.037 -0.9407  0.0614 -0.8290
12113TIP3   OH257829   1.715   4.236  14.514  0.0850  0.2244  0.0975
12113TIP3    H157830   1.787   4.211  14.571 -1.2444  1.5206  2.5284
12113TIP3    H257831   1.638   4.196  14.553 -1.1273  2.5650  0.3172
12114TIP3   OH257832   5.380   0.023   4.130 -0.2280 -0.5821  0.3730
12114TIP3    H157833   5.361  -0.042   4.062  0.7088  0.2511 -0.7284
12114TIP3    H257834   5.474   0.017   4.144 -0.2400  0.0519  0.7617
12115TIP3   OH257835   2.459   0.569  12.357  0.3368 -0.0680 -0.2264
12115TIP3    H157836   2.470   0.639  12.422 -0.9184 -0.5880  0.5972
12115TIP3    H257837   2.365   0.550  12.359  0.3303 -0.3899 -1.9226
12116TIP3   OH257838   5.565   3.079   2.330 -0.7420  0.0840  0.1496
12116TIP3    H157839   5.548   3.154   2.273  0.1934  0.7609  0.7287
12116TIP3    H257840   5.583   3.117   2.415 -1.0766 -0.8606  0.6558
12117TIP3   OH257841   0.022   0.674  16.796 -0.6408  0.3614 -0.0594
12117TIP3    H157842   0.019   0.768  16.815 -1.4025  0.5080 -0.8424
12117TIP3    H257843   0.109   0.659  16.759 -0.8150  0.9217 -0.7109
12118TIP3   OH257844   5.448   6.720   1.692 -0.2332  0.1483  0.5920
12118TIP3    H157845   5.370   6.774   1.698  1.1918  2.3548  0.2884
12118TIP3    H257846   5.521   6.780   1.704  1.5511 -1.3252 -1.7377
12119TIP3   OH257847   6.639   1.236  15.933  0.3891  0.4446 -0.5985
12119TIP3    H157848   6.636   1.189  15.849  0.0128  0.4530 -0.5892
12119TIP3    H257849   6.565   1.297  15.929  1.3187  1.5935 -0.9341
12120TIP3   OH257850   3.822   3.264  11.427  0.0247  0.4892  0.5554
12120TIP3    H157851   3.908   3.253  11.467 -1.5730  0.2581  4.2812
12120TIP3    H257852   3.816   3.191  11.364  2.0479 -0.2218  1.0918
12121TIP3   OH257853   1.079   1.431   4.143  0.4354 -0.3802 -0.1929
12121TIP3    H157854   1.095   1.413   4.236  2.9749 -0.7799 -0.6348
12121TIP3    H257855   1.075   1.344   4.102 -0.5078 -0.1992 -0.5189
12122TIP3   OH257856   4.361   5.811   3.739 -0.7188  0.1281  0.3370
12122TIP3    H157857   4.419   5.846   3.671 -0.7036 -1.8782 -0.7507
12122TIP3    H257858   4.274   5.811   3.698 -0.7004 -1.1495  0.2609
12123TIP3   OH257859   6.052   4.311  15.445  0.1191 -0.5038 -0.2917
12123TIP3    H157860   5.964   4.345  15.463  0.5961 -0.1416  1.4566
12123TIP3    H257861   6.044   4.216  15.459  0.0725 -0.4428  0.0864
12124TIP3   OH257862   0.289   0.873   6.330 -0.2977  0.6062 -0.4351
12124TIP3    H157863   0.278   0.965   6.353  0.4566  0.3759  0.9391
12124TIP3    H257864   0.382   0.856   6.342 -0.9163 -1.2065  2.8549
12125TIP3   OH257865   3.590   1.224   2.731 -0.7597  0.6560  0.2342
12125TIP3    H157866   3.541   1.221   2.813 -0.8052 -0.6196  0.1702
12125TIP3    H257867   3.574   1.139   2.690  0.8610  0.5017 -0.1547
12126TIP3   OH257868   5.289   5.216  13.377 -0.0682 -0.3829 -0.0715
12126TIP3    H157869   5.272   5.129  13.414  1.0873 -1.5327 -2.0324
12126TIP3    H257870   5.221   5.227  13.310  1.3280 -1.0455 -1.6912
12127TIP3   OH257871   5.289   3.680   1.808 -0.2866  0.0316 -0.2324
12127TIP3    H157872   5.295   3.669   1.714 -0.3439  0.5259 -0.2930
12127TIP3    H257873   5.196   3.668   1.828 -0.4006  0.7274 -0.3398
12128TIP3   OH257874   4.099   0.042  15.790 -0.1111 -0.0279  0.2563
12128TIP3    H157875   4.053   0.071  15.711 -1.7903  0.5602  1.3929
12128TIP3    H257876   4.050  -0.035  15.819  1.2353 -0.9854  0.0917
12129TIP3   OH257877   0.433   3.545  11.628 -0.1433 -0.4204 -0.2316
12129TIP3    H157878   0.484   3.482  11.679 -0.7965  0.6950  1.9351
12129TIP3    H257879   0.495   3.580  11.564  0.7637 -1.7658 -0.1244
12130TIP3   OH257880   0.313   0.776  13.483  0.0951  0.3270  0.0106
12130TIP3    H157881   0.408   0.770  13.477  0.0487 -3.2690  0.5450
12130TIP3    H257882   0.297   0.844  13.549  2.3680 -0.2085  1.2053
12131TIP3   OH257883   6.744   4.911   5.189  0.1783  0.1091 -0.6023
12131TIP3    H157884   6.759   4.816   5.188  2.1014  0.3239  0.9936
12131TIP3    H257885   6.713   4.931   5.101  0.7497 -1.8530 -1.3159
12132TIP3   OH257886   6.439   0.672   4.375  0.2905  0.1474  0.5069
12132TIP3    H157887   6.499   0.689   4.447 -0.3176  0.5391  0.9327
12132TIP3    H257888   6.404   0.758   4.352 -1.4941 -0.2544  1.5171
12133TIP3   OH257889   5.852   6.527  16.443 -0.4743 -0.3033 -0.1843
12133TIP3    H157890   5.901   6.501  16.365  1.6377  0.4272  0.8558
12133TIP3    H257891   5.820   6.444  16.479 -0.2276 -0.7739 -1.0013
12134TIP3   OH257892   4.831   6.644   3.057 -0.4955  0.3916  0.1936
12134TIP3    H157893   4.771   6.709   3.093  0.1918  1.7358 -1.0138
12134TIP3    H257894   4.911   6.653   3.108 -0.5361  0.2028  0.2925
12135TIP3   OH257895   4.844   0.331  12.308  0.0920 -0.0847 -0.4180
12135TIP3    H157896   4.760   0.365  12.279 -0.1661  0.0757  0.5050
12135TIP3    H257897   4.876   0.395  12.371  0.0674 -1.0271  0.5897
12136TIP3   OH257898   3.269   4.490   0.046 -0.2067 -0.4048 -0.0645
12136TIP3    H157899   3.274   4.444   0.129  0.2488 -2.5254 -1.2004
12136TIP3    H257900   3.359   4.517   0.027 -0.5451  1.5462  0.8507
12137TIP3   OH257901   3.431   5.019   6.801  0.0022  0.6246 -0.8188
12137TIP3    H157902   3.341   5.002   6.776  0.0578  0.9943 -1.2901
12137TIP3    H257903   3.433   5.111   6.825  0.1753  0.5275 -0.4482
12138TIP3   OH257904   2.135   4.118  14.829 -0.3133  0.2719 -0.7867
12138TIP3    H157905   2.054   4.105  14.878  0.2865 -0.7440 -0.0222
12138TIP3    H257906   2.107   4.118  14.737 -1.0848 -0.9370 -0.5771
12139TIP3   OH257907   1.592   0.541  11.340 -0.6788  0.3462 -0.2686
12139TIP3    H157908   1.597   0.476  11.271 -0.5888 -1.1253  1.0758
12139TIP3    H257909   1.681   0.575  11.348 -0.1303 -1.2674  0.7625
12140TIP3   OH257910   2.846   2.286   5.029  0.0838  0.0620 -0.2064
12140TIP3    H157911   2.793   2.363   5.046 -1.4996 -0.8868 -0.6427
12140TIP3    H257912   2.806   2.216   5.080  0.2797 -0.9176 -1.3173
12141TIP3   OH257913   6.764   3.604  13.160  0.6750 -0.4918 -0.5302
12141TIP3    H157914   6.778   3.660  13.237 -1.1512 -1.7793  0.8302
12141TIP3    H257915   6.830   3.535  13.170 -0.1137 -1.1397  0.4211
12142TIP3   OH257916   1.483   3.663   6.010  0.0538  0.2655  0.1622
12142TIP3    H157917   1.530   3.711   6.077 -0.3980  0.8429  0.0759
12142TIP3    H257918   1.391   3.690   6.021 -0.2167 -0.6179  0.1461
12143TIP3   OH257919   5.019   1.425  11.934  0.0639  0.2686  0.4889
12143TIP3    H157920   4.986   1.398  11.848 -0.9049  0.3238  0.8394
12143TIP3    H257921   5.062   1.509  11.918 -1.2361  0.9183  0.2749
12144TIP3   OH257922   0.525   5.017  14.949  0.1690  0.2810  0.0744
12144TIP3    H157923   0.468   4.944  14.924  0.3928  0.4235 -0.9032
12144TIP3    H257924   0.480   5.095  14.917  1.0900  0.3607 -1.0913
12145TIP3   OH257925   6.334   5.257   3.257  0.2709  0.2663 -0.1676
12145TIP3    H157926   6.427   5.277   3.242  0.2109  0.5521 -0.1634
12145TIP3    H257927   6.307   5.211   3.177  1.0718 -2.1835  0.8638
12146TIP3   OH257928   1.953   4.443  12.550  0.0179  0.1986 -0.0767
12146TIP3    H157929   1.987   4.381  12.616  1.1258 -0.2927 -1.0717
12146TIP3    H257930   2.027   4.458  12.492 -1.1153  0.1423 -1.5768
12147TIP3   OH257931   1.399   3.933   2.809 -0.2305  0.8294  0.2113
12147TIP3    H157932   1.348   3.918   2.889  0.2414  1.2002  0.5838
12147TIP3    H257933   1.396   4.028   2.796  0.7234  0.9039  0.4771
12148TIP3   OH257934   5.234   0.640  15.882  0.0540 -0.2325 -0.1884
12148TIP3    H157935   5.278   0.555  15.876  0.3203 -0.0838 -0.3359
12148TIP3    H257936   5.174   0.641  15.807 -0.4011 -0.5471  0.1672
12149TIP3   OH257937   4.749   6.514   1.751  0.7541  0.1087 -0.3135
12149TIP3    H157938   4.791   6.434   1.782 -0.6903 -0.5896 -0.0827
12149TIP3    H257939   4.657   6.504   1.775  0.8517  2.7206  1.4940
12150TIP3   OH257940   3.218   6.813   3.967 -0.2347  0.6450 -0.0785
12150TIP3    H157941   3.130   6.775   3.974  0.7008 -1.5506  0.5931
12150TIP3    H257942   3.202   6.904   3.944 -2.6274 -0.2843 -2.8282
12151TIP3   OH257943   4.804   5.031   5.983  0.7308 -0.5566  0.2477
12151TIP3    H157944   4.871   4.962   5.980  0.6759 -0.6703  1.2820
12151TIP3    H257945   4.843   5.100   6.037  0.3873 -0.2077  0.0540
12152TIP3   OH257946   0.106   0.141  11.421 -0.1662 -0.2869 -0.0349
12152TIP3    H157947   0.053   0.121  11.344  0.1672 -4.0231  0.5063
12152TIP3    H257948   0.047   0.187  11.480 -1.8154 -1.3580 -0.7791
12153TIP3   OH257949   4.521   4.941   3.791 -0.3382 -0.7679  0.3309
12153TIP3    H157950   4.510   5.028   3.752 -1.9006 -1.2898 -0.4623
12153TIP3    H257951   4.592   4.901   3.741  0.8633  0.2706  1.1478
12154TIP3   OH257952   6.157   4.878   3.305  0.2701  0.0579  0.0629
12154TIP3    H157953   6.168   4.971   3.282 -1.5382  0.4379  0.6177
12154TIP3    H257954   6.243   4.852   3.338  1.1601  1.1955 -1.1980
12155TIP3   OH257955   0.536   4.112  14.309 -0.3281 -0.4686  0.7054
12155TIP3    H157956   0.537   4.205  14.285 -2.5166  0.1342  2.6154
12155TIP3    H257957   0.582   4.108  14.393  1.3661 -1.4728 -0.2121
12156TIP3   OH257958   3.312   6.640   1.938  0.6509 -0.0655  0.5633
12156TIP3    H157959   3.298   6.733   1.952 -1.6654 -0.3348  0.3083
12156TIP3    H257960   3.341   6.607   2.023  0.9237  0.7677  0.8017
12157TIP3   OH257961   3.919   6.658  11.395  0.4789  0.2276  0.1648
12157TIP3    H157962   3.945   6.612  11.475 -1.9622 -0.2599  0.7805
12157TIP3    H257963   3.835   6.698  11.417  0.5914  1.5808 -1.6400
12158TIP3   OH257964   2.005   3.138  16.382  0.4287 -0.4324 -0.1410
12158TIP3    H157965   2.100   3.138  16.380  0.4266  0.9844 -1.5474
12158TIP3    H257966   1.978   3.155  16.292 -1.1325  0.5803  0.4764
12159TIP3   OH257967   5.967   6.684   6.166 -0.2925 -0.0597  0.2709
12159TIP3    H157968   5.977   6.779   6.161 -2.1621  0.1834  0.2282
12159TIP3    H257969   5.999   6.652   6.082  1.3409  0.3934  0.6836
12160TIP3   OH257970   1.920   1.786  13.429 -0.3833  0.2026  0.1322
12160TIP3    H157971   1.866   1.800  13.350 -1.4126  0.4100  0.8566
12160TIP3    H257972   2.010   1.792  13.397 -0.7763  1.3983 -0.8583
12161TIP3   OH257973   6.506   3.938  13.188  0.5439 -0.3346 -0.2700
12161TIP3    H157974   6.582   3.978  13.232 -0.9173 -0.8234  3.0322
12161TIP3    H257975   6.517   3.844  13.202 -0.9065 -0.3788  0.8416
12162TIP3   OH257976   3.441   5.587  16.654 -0.0869 -0.3719  0.2048
12162TIP3    H157977   3.514   5.646  16.672  1.4246 -1.6800 -1.2622
12162TIP3    H257978   3.433   5.535  16.733  1.3242 -0.9064  0.0357
12163TIP3   OH257979   4.883   5.997  14.691  0.0020  0.0690  0.6878
12163TIP3    H157980   4.881   5.924  14.630 -1.2492  0.9516 -0.3796
12163TIP3    H257981   4.976   6.012  14.707  0.3071 -2.6225  2.0776
12164TIP3   OH257982   0.345   1.308  17.161 -0.3121 -0.0249 -0.3110
12164TIP3    H157983   0.433   1.344  17.150 -0.2885  0.0339  0.0488
12164TIP3    H257984   0.309   1.357  17.235 -0.0559 -1.1630  0.5881
12165TIP3   OH257985   1.724   4.298   4.294  1.2381  0.4369  0.0579
12165TIP3    H157986   1.645   4.352   4.289  1.0708  0.2983  0.9451
12165TIP3    H257987   1.796   4.358   4.279  0.9423  0.4464 -1.4483
12166TIP3   OH257988   4.608   4.663  12.045  0.3266  0.6540  0.4399
12166TIP3    H157989   4.559   4.589  12.081 -0.1446  0.6263 -0.2537
12166TIP3    H257990   4.661   4.694  12.119 -1.2001  1.0883  1.4029
12167TIP3   OH257991   4.837   6.344   0.505  0.7079 -0.0392  0.1213
12167TIP3    H157992   4.780   6.380   0.573  0.0440  1.3377 -1.1147
12167TIP3    H257993   4.812   6.251   0.499  0.5575 -0.1099  1.4951
12168TIP3   OH257994   0.241   0.470  16.055  0.3053  0.6316 -0.1383
12168TIP3    H157995   0.147   0.457  16.066  0.0134  1.4793 -1.4547
12168TIP3    H257996   0.268   0.519  16.133 -0.6737  1.8222 -0.5169
12169TIP3   OH257997   5.163   2.514   4.388 -0.5214 -0.1163 -0.5603
12169TIP3    H157998   5.088   2.478   4.436 -0.2490 -0.3738 -0.3244
12169TIP3    H257999   5.237   2.503   4.448  0.0977 -1.7145 -1.5652
12170TIP3   OH258000   3.463   5.764  16.349 -0.0661  0.3290  0.1067
12170TIP3    H158001   3.472   5.854  16.317 -1.5301  0.7313  0.7710
12170TIP3    H258002   3.553   5.735  16.364  0.5125  1.1155 -1.6074
12171TIP3   OH258003   4.565   1.275  13.087 -0.2777 -0.2421 -0.1485
12171TIP3    H158004   4.487   1.324  13.115 -1.1389 -1.6839  0.0425
12171TIP3    H258005   4.584   1.310  13.000 -0.6055  0.7201  0.1453
12172TIP3   OH258006   5.729   6.250  12.957 -0.0053  0.3509  0.1927
12172TIP3    H158007   5.780   6.176  12.928  0.4805 -0.1142  2.0969
12172TIP3    H258008   5.695   6.290  12.876  1.9899 -0.2799 -1.0128
12173TIP3   OH258009   3.263   2.744   1.093 -0.5686 -0.2058 -0.5669
12173TIP3    H158010   3.237   2.729   1.184  0.6468 -1.2696 -0.3598
12173TIP3    H258011   3.282   2.657   1.059  2.1224  0.4011 -0.8300
12174TIP3   OH258012   1.480   0.792  14.275 -0.2269  0.1463  0.1835
12174TIP3    H158013   1.562   0.764  14.315 -0.3028  0.5808  0.6517
12174TIP3    H258014   1.418   0.797  14.348 -0.6773 -0.1974 -0.1711
12175TIP3   OH258015   2.119   4.711  16.375 -0.2251 -0.0387  0.3034
12175TIP3    H158016   2.046   4.662  16.338  1.5452 -0.8213 -2.4688
12175TIP3    H258017   2.194   4.651  16.369  1.5119  2.1129 -0.9546
12176TIP3   OH258018   2.579   5.548  16.336  0.1402  0.4918 -0.2697
12176TIP3    H158019   2.531   5.465  16.347  1.7059 -0.4250 -0.0589
12176TIP3    H258020   2.518   5.604  16.288 -2.0844  0.2599  2.0423
12177TIP3   OH258021   0.923   3.904   4.617 -0.1524 -0.3714  0.7739
12177TIP3    H158022   0.946   3.859   4.536 -0.1365  0.3499  0.3664
12177TIP3    H258023   0.978   3.982   4.618 -2.7333  1.5865 -0.4001
12178TIP3   OH258024   2.388   0.969  14.227 -0.1201 -0.1188  0.0771
12178TIP3    H158025   2.443   0.924  14.162  0.0659  0.3309 -0.0794
12178TIP3    H258026   2.448   1.030  14.271 -0.3351 -0.1395  0.4045
12179TIP3   OH258027   2.982   5.379  14.651  0.2130 -0.0315  0.2577
12179TIP3    H158028   3.028   5.436  14.712 -0.6934  0.4371  0.5248
12179TIP3    H258029   3.000   5.417  14.565  0.9152 -0.2841  0.2870
12180TIP3   OH258030   5.673   4.557   2.061 -0.2601 -0.4382 -0.0258
12180TIP3    H158031   5.767   4.543   2.066 -0.2605 -0.2489  0.5571
12180TIP3    H258032   5.657   4.634   2.116 -0.5722  0.3607 -1.1927
12181TIP3   OH258033   1.734   1.138  12.045  0.1349  0.7113  0.7125
12181TIP3    H158034   1.674   1.187  12.102  1.7920  1.0502  2.2715
12181TIP3    H258035   1.812   1.194  12.039  0.7780 -0.2518 -0.2253
12182TIP3   OH258036   5.676   3.271  15.386 -0.5829 -0.4523 -0.6074
12182TIP3    H158037   5.655   3.184  15.351 -1.2129  0.1484 -1.7776
12182TIP3    H258038   5.729   3.312  15.318 -0.5256  0.1840 -0.1873
12183TIP3   OH258039   2.154   1.908  16.815 -0.2612 -0.9532 -0.3619
12183TIP3    H158040   2.227   1.967  16.833 -0.6147 -0.2157 -1.2290
12183TIP3    H258041   2.186   1.850  16.745 -0.4063 -0.8134 -0.5468
12184TIP3   OH258042   0.572   2.614  14.622 -0.3153  0.0271  0.6746
12184TIP3    H158043   0.497   2.667  14.649 -0.1933  1.0112 -0.8220
12184TIP3    H258044   0.631   2.676  14.580  0.4999 -1.0634  0.1654
12185TIP3   OH258045   2.889   4.868   3.267 -0.1978 -0.5761  0.1481
12185TIP3    H158046   2.820   4.915   3.221 -0.7243  0.0811  1.5579
12185TIP3    H258047   2.959   4.932   3.280  0.4212 -1.0628 -0.7070
12186TIP3   OH258048   4.797   2.988  15.675 -0.2711 -0.5445 -0.0075
12186TIP3    H158049   4.744   3.068  15.670  1.0518  0.3274 -0.7674
12186TIP3    H258050   4.746   2.922  15.628 -0.6899  0.2656 -0.7164
12187TIP3   OH258051   1.293   2.327   5.228  0.4475  0.3560 -0.4577
12187TIP3    H158052   1.376   2.281   5.211  1.3457  1.0286  1.7333
12187TIP3    H258053   1.228   2.257   5.230  1.3287 -0.4913 -0.0561
12188TIP3   OH258054   2.264   4.919   5.414  0.0657 -0.6769  0.5660
12188TIP3    H158055   2.323   4.928   5.339 -0.2846 -1.1823  0.2299
12188TIP3    H258056   2.224   4.833   5.403  0.9950 -1.3235  2.0434
12189TIP3   OH258057   4.749   3.835  16.389 -0.4330 -0.2957 -0.1897
12189TIP3    H158058   4.810   3.836  16.315  1.7050 -0.6957  1.4665
12189TIP3    H258059   4.754   3.923  16.425  1.0984 -0.9389  1.3515
12190TIP3   OH258060   4.071   0.468   6.462 -0.1342  0.2203 -0.4280
12190TIP3    H158061   4.018   0.547   6.450 -1.1788 -0.6278 -1.6831
12190TIP3    H258062   4.022   0.399   6.417  0.9228 -1.0872  0.3358
12191TIP3   OH258063   2.975   5.007   0.374  0.0392 -0.2045 -0.0252
12191TIP3    H158064   3.026   5.085   0.351 -0.1308 -0.3149 -0.8016
12191TIP3    H258065   2.895   5.042   0.414  0.6623 -0.0306  1.1089
12192TIP3   OH258066   3.484   4.992   6.000  0.0485  0.2548 -0.4584
12192TIP3    H158067   3.476   5.060   6.067 -2.1697  0.4272 -0.7957
12192TIP3    H258068   3.574   4.962   6.006  0.8819  2.6412  0.2722
12193TIP3   OH258069   2.165   5.955  14.020  0.6154  0.2968 -0.3425
12193TIP3    H158070   2.157   5.887  14.087  3.2712 -1.0384 -1.2336
12193TIP3    H258071   2.112   5.924  13.947  1.9837 -1.0438 -0.8258
12194TIP3   OH258072   4.333   4.071   6.008  0.4041 -0.3941 -0.2695
12194TIP3    H158073   4.298   4.059   6.097  1.1559 -3.9350 -0.2832
12194TIP3    H258074   4.421   4.034   6.011 -0.1238 -2.1701 -2.7771
12195TIP3   OH258075   2.344   5.974  11.417 -0.2691  0.3993 -0.9640
12195TIP3    H158076   2.355   5.879  11.425 -1.7072  0.3083  0.2907
12195TIP3    H258077   2.384   6.010  11.496  0.6644  0.9095 -1.6427
12196TIP3   OH258078   1.227   3.321   1.408 -0.6489 -0.0271  0.3816
12196TIP3    H158079   1.191   3.237   1.438  1.3278 -1.6687 -1.5256
12196TIP3    H258080   1.310   3.329   1.453  0.6853 -0.7825 -1.7820
12197TIP3   OH258081   1.009   3.221  12.960  0.0168 -0.0716 -0.4948
12197TIP3    H158082   1.015   3.128  12.939 -1.4359  0.2175 -2.4310
12197TIP3    H258083   0.932   3.252  12.912 -0.4128  1.8381  1.2864
12198TIP3   OH258084   6.038   0.120  14.439  0.1370 -0.4633 -0.2631
12198TIP3    H158085   6.079   0.200  14.471 -0.5300 -0.5512  0.8784
12198TIP3    H258086   6.111   0.066  14.409  0.8103 -0.3537  1.1090
12199TIP3   OH258087   0.107   4.842   1.262  0.1261 -0.4490 -0.0570
12199TIP3    H158088   0.169   4.862   1.333 -0.3742 -0.9606  0.5307
12199TIP3    H258089   0.100   4.925   1.214  0.1939  0.0179  0.7062
12200TIP3   OH258090   5.529   6.435   3.587  0.2738  0.3453  0.0701
12200TIP3    H158091   5.466   6.453   3.657  0.7580 -1.0390  0.9090
12200TIP3    H258092   5.582   6.363   3.621 -1.2892 -2.3917 -2.7707
12201TIP3   OH258093   4.568   2.180   2.796  0.8082  0.4199 -0.2948
12201TIP3    H158094   4.575   2.135   2.880  0.1237 -0.6137 -0.7620
12201TIP3    H258095   4.606   2.118   2.733 -3.4383 -1.3105 -1.5301
12202TIP3   OH258096   1.397   5.010   2.878  0.6941  0.0635 -0.5168
12202TIP3    H158097   1.388   5.098   2.913  2.2614  0.5306 -1.2023
12202TIP3    H258098   1.400   4.953   2.955 -0.2998  0.5828 -0.0739
12203TIP3   OH258099   4.364   2.423  15.029 -0.3538  0.4360  0.3872
12203TIP3    H158100   4.299   2.491  15.011 -1.9351 -1.6027 -2.3184
12203TIP3    H258101   4.442   2.452  14.981 -1.0647  0.3281 -0.8815
12204TIP3   OH258102   3.288   4.520   3.978  0.3727 -0.3548 -0.1655
12204TIP3    H158103   3.359   4.458   3.962  0.3950 -0.8467  1.5934
12204TIP3    H258104   3.325   4.583   4.041 -0.4292 -0.0423  0.0076
12205TIP3   OH258105   1.608   1.696   0.424 -0.6304 -0.2025 -0.0720
12205TIP3    H158106   1.629   1.729   0.512 -0.9940 -0.1490 -0.0064
12205TIP3    H258107   1.572   1.771   0.378 -1.3578 -0.4776  0.0431
12206TIP3   OH258108   0.868   1.400   0.004 -0.6647  0.1130 -0.0921
12206TIP3    H158109   0.935   1.459   0.039 -0.4928 -0.7063  0.9920
12206TIP3    H258110   0.918   1.331  -0.040 -0.8495  0.2978 -0.6084
12207TIP3   OH258111   1.533   5.189   6.183 -0.3738  0.2037  0.6594
12207TIP3    H158112   1.568   5.152   6.264 -1.1945  1.1488  1.4801
12207TIP3    H258113   1.471   5.124   6.151  1.1922 -0.9471 -0.1661
12208TIP3   OH258114   6.687   5.355  16.754 -0.5041  0.6933  0.2757
12208TIP3    H158115   6.698   5.337  16.847 -0.3188 -1.2848 -0.0887
12208TIP3    H258116   6.712   5.447  16.744 -1.4904  1.2294  2.3122
12209TIP3   OH258117   1.232   2.120   5.851  0.1923  0.4702  0.5517
12209TIP3    H158118   1.321   2.156   5.853  0.5387 -0.3600  0.3315
12209TIP3    H258119   1.231   2.064   5.774 -0.3406  0.0109  0.8913
12210TIP3   OH258120   1.381   0.814  13.995 -0.3111 -0.3887 -0.2218
12210TIP3    H158121   1.343   0.727  13.993 -1.6546  0.1712 -0.5056
12210TIP3    H258122   1.411   0.826  14.085 -0.6557 -0.9231 -0.0370
12211TIP3   OH258123   1.086   5.633  14.403  0.1766  0.2192  0.2915
12211TIP3    H158124   1.058   5.548  14.370 -0.3316  1.2745 -2.2347
12211TIP3    H258125   1.174   5.617  14.440 -0.5826 -1.6587  1.4345
12212TIP3   OH258126   5.745   3.655   3.177  0.0616  0.3309  0.2330
12212TIP3    H158127   5.838   3.662   3.198  0.4262 -1.3514 -0.6818
12212TIP3    H258128   5.720   3.744   3.153  1.9136  0.5074 -1.3419
12213TIP3   OH258129   6.097   5.293  15.961 -0.0005  0.0571  0.4588
12213TIP3    H158130   6.034   5.271  16.030  0.6353 -0.3883  0.9011
12213TIP3    H258131   6.182   5.287  16.004  0.3055  1.5723  0.1162
12214TIP3   OH258132   0.339   1.341  14.509  0.0287  0.0988  0.1698
12214TIP3    H158133   0.312   1.250  14.492 -0.0719 -0.0167  0.9106
12214TIP3    H258134   0.256   1.388  14.524 -0.0153  0.6010 -1.4815
12215TIP3   OH258135   5.246   0.617   5.498  0.6251  0.0981  0.2869
12215TIP3    H158136   5.325   0.639   5.449 -0.1946  2.0187 -0.2544
12215TIP3    H258137   5.174   0.639   5.439 -0.3556 -0.2160  1.3201
12216TIP3   OH258138   3.951   5.760   3.039  0.0594 -0.2081 -0.4485
12216TIP3    H158139   4.035   5.783   3.000  0.2623 -0.7213 -0.3123
12216TIP3    H258140   3.905   5.844   3.048  0.5965  0.0856 -0.4226
12217TIP3   OH258141   6.023   5.675  16.561  0.0374 -0.6279  0.0181
12217TIP3    H158142   6.108   5.632  16.562  0.3862 -0.1102 -2.1066
12217TIP3    H258143   5.964   5.612  16.520  0.2389  0.3086 -1.8177
12218TIP3   OH258144   1.503   2.152   3.128  0.2206 -0.0986  0.1033
12218TIP3    H158145   1.596   2.167   3.148 -0.0825 -1.4518  3.1797
12218TIP3    H258146   1.457   2.224   3.171 -0.2861 -1.1647  1.4189
12219TIP3   OH258147   3.839   1.292  16.875 -0.6972 -0.2566  0.1009
12219TIP3    H158148   3.881   1.247  16.948  0.6326  1.5756  0.5489
12219TIP3    H258149   3.780   1.355  16.917  2.5983  3.2998 -0.0520
12220TIP3   OH258150   2.454   4.640   5.645 -0.0313  1.5230 -0.1974
12220TIP3    H158151   2.457   4.558   5.596 -1.2994  0.3780  1.5089
12220TIP3    H258152   2.534   4.639   5.698 -0.0631  1.3588 -0.1510
12221TIP3   OH258153   0.655   5.124   3.978 -0.1698 -0.8171 -0.4953
12221TIP3    H158154   0.694   5.038   3.962 -1.9255 -1.4768 -1.4774
12221TIP3    H258155   0.627   5.120   4.070  0.0525 -1.1583 -0.4387
12222TIP3   OH258156   0.348   1.123  11.805  0.3773  0.1203  0.1571
12222TIP3    H158157   0.260   1.115  11.840  0.6187 -0.1991  0.7007
12222TIP3    H258158   0.348   1.208  11.760 -0.3599 -0.1205 -0.3235
12223TIP3   OH258159   3.784   3.921   5.086 -0.8397  1.0787 -0.1352
12223TIP3    H158160   3.789   3.859   5.159  4.0317 -0.3360 -1.2488
12223TIP3    H258161   3.733   3.875   5.019 -0.1817 -0.3366  0.2894
12224TIP3   OH258162   6.310   5.171   1.961  0.2358 -0.1950 -0.8726
12224TIP3    H158163   6.281   5.123   1.884 -0.3229 -0.9543 -0.2000
12224TIP3    H258164   6.405   5.156   1.964  0.1882 -0.5675 -1.1394
12225TIP3   OH258165   2.450   0.486  12.921  0.0374  0.3639 -0.6071
12225TIP3    H158166   2.376   0.547  12.931  0.3307  0.5044  0.9405
12225TIP3    H258167   2.440   0.425  12.994 -1.8561 -3.2836 -3.5724
12226TIP3   OH258168   4.254   4.353   2.994 -0.6419  0.8108  0.3903
12226TIP3    H158169   4.304   4.304   2.928 -0.2151  3.3904 -1.3314
12226TIP3    H258170   4.314   4.360   3.068 -0.4076 -0.5081  0.3457
12227TIP3   OH258171   1.184   0.881   2.986 -0.1222  0.1378  0.0554
12227TIP3    H158172   1.272   0.865   3.019  0.9192 -1.2761 -3.0029
12227TIP3    H258173   1.127   0.874   3.062  2.4120  1.8773  2.3021
12228TIP3   OH258174   6.438   3.587  14.043  0.1492  0.1829 -0.2604
12228TIP3    H158175   6.476   3.500  14.055 -0.3003 -0.0213 -0.2783
12228TIP3    H258176   6.348   3.578  14.077  0.1688  0.6946 -0.0746
12229TIP3   OH258177   4.796   3.715  11.680  0.5153 -0.3613  0.1025
12229TIP3    H158178   4.782   3.810  11.669 -0.8469 -0.4553  0.7984
12229TIP3    H258179   4.823   3.685  11.593 -0.1017  0.5014 -0.4106
12230TIP3   OH258180   4.969   6.773  16.162  0.4724 -0.0689  0.2339
12230TIP3    H158181   4.928   6.747  16.080  4.0216 -1.0994 -1.4084
12230TIP3    H258182   4.942   6.706  16.225 -0.6935 -0.4169 -0.6139
12231TIP3   OH258183   1.354   1.760  15.129 -0.1192  0.2235  0.0069
12231TIP3    H158184   1.264   1.791  15.142 -0.5010 -0.9892  0.4472
12231TIP3    H258185   1.407   1.813  15.188 -0.8425 -0.4268  1.2917
12232TIP3   OH258186   6.234   5.956  11.139  0.1301  0.0060  0.0470
12232TIP3    H158187   6.157   5.974  11.192  1.2940 -0.0779  1.8405
12232TIP3    H258188   6.287   5.897  11.192  1.8684  0.7987 -0.7347
12233TIP3   OH258189   6.250   1.337   0.077  0.5445  0.4709 -0.0629
12233TIP3    H158190   6.166   1.371   0.108 -0.1272  0.0992 -1.4253
12233TIP3    H258191   6.265   1.381  -0.006  0.9185 -0.6502 -0.6023
12234TIP3   OH258192   1.320   1.872   0.679 -0.0040 -0.3421  0.6166
12234TIP3    H158193   1.287   1.919   0.755  1.1635  0.7467  0.4749
12234TIP3    H258194   1.415   1.880   0.684  0.1280 -0.9120 -0.5394
12235TIP3   OH258195   3.954   4.469  16.537  0.2824 -0.0782 -0.2296
12235TIP3    H158196   3.908   4.413  16.599  0.3344 -0.4097 -0.4851
12235TIP3    H258197   3.921   4.557  16.555 -0.2364 -0.2722 -0.2165
12236TIP3   OH258198   6.815   2.639   4.291 -0.4707  0.0062  0.4329
12236TIP3    H158199   6.816   2.545   4.271 -1.2741 -0.0494  0.6207
12236TIP3    H258200   6.813   2.681   4.205  1.2413 -0.0992  0.3080
12237TIP3   OH258201   5.330   0.100   2.563  1.1192  0.0958 -0.7384
12237TIP3    H158202   5.293   0.104   2.651  3.3485 -0.6981  0.3138
12237TIP3    H258203   5.397   0.169   2.562  0.2538  0.9461 -2.2733
12238TIP3   OH258204   2.797   5.450  11.252 -0.0428 -0.1277 -0.5992
12238TIP3    H158205   2.890   5.473  11.247 -0.1478  0.8722  1.2528
12238TIP3    H258206   2.791   5.391  11.327 -0.9458  0.1092 -0.4787
12239TIP3   OH258207   4.912   1.607  16.844 -0.1680 -0.2738  0.2816
12239TIP3    H158208   4.935   1.626  16.934 -1.0074  1.4982  0.1726
12239TIP3    H258209   4.857   1.529  16.849  0.5195 -0.7143  1.1852
12240TIP3   OH258210   4.267   3.274  14.020  0.8065  0.1077 -0.6562
12240TIP3    H158211   4.354   3.312  14.034  1.3176 -1.3439  0.2974
12240TIP3    H258212   4.219   3.297  14.099  0.4869  0.4334 -0.9422
12241TIP3   OH258213   1.170   2.227  13.867  0.1205 -0.2796 -0.4299
12241TIP3    H158214   1.083   2.233  13.907  0.4371 -0.1411  0.2493
12241TIP3    H258215   1.174   2.303  13.809  0.0020  0.0471 -0.0222
12242TIP3   OH258216   6.482   2.288  13.121 -0.3033  0.8409 -0.4271
12242TIP3    H158217   6.401   2.328  13.091 -0.6361  1.0440  0.7036
12242TIP3    H258218   6.455   2.219  13.182  0.3688  1.1912  0.2947
12243TIP3   OH258219   5.957   5.869  13.404 -0.1533 -0.3139  0.0714
12243TIP3    H158220   5.947   5.953  13.359  1.7999  0.1274  0.3512
12243TIP3    H258221   5.924   5.884  13.492  1.2051  0.5359  0.4669
12244TIP3   OH258222   6.777   4.598   1.743 -0.2112  0.6635  0.3932
12244TIP3    H158223   6.753   4.600   1.650 -0.5559 -1.2076  0.3943
12244TIP3    H258224   6.801   4.688   1.764 -3.2169  1.8188 -0.6863
12245TIP3   OH258225   1.121   0.091   5.739  0.0159 -0.1533 -0.0140
12245TIP3    H158226   1.120   0.040   5.658 -1.1833  0.2941 -0.2991
12245TIP3    H258227   1.038   0.070   5.782  0.3511  0.1127  0.7882
12246TIP3   OH258228   3.749   4.193  10.761  0.3028 -0.0118 -0.1953
12246TIP3    H158229   3.703   4.109  10.767  1.1730 -0.4359  0.6850
12246TIP3    H258230   3.837   4.175  10.792  1.2015  0.7295 -2.1266
12247TIP3   OH258231   0.451   4.306  14.749  0.0256 -0.4679  0.4111
12247TIP3    H158232   0.429   4.386  14.702  0.5851 -0.9050 -0.6259
12247TIP3    H258233   0.441   4.329  14.841 -1.8374  0.1984  0.0995
12248TIP3   OH258234   0.378   2.446   1.797 -0.5320  0.0161  0.3462
12248TIP3    H158235   0.315   2.386   1.757  1.9317 -3.5485  1.3111
12248TIP3    H258236   0.351   2.449   1.889 -1.7274  2.0581 -0.0087
12249TIP3   OH258237   6.522   1.744   2.902  0.0345 -0.4514 -0.0257
12249TIP3    H158238   6.604   1.766   2.858 -0.2211  0.1699 -0.1997
12249TIP3    H258239   6.489   1.827   2.936 -0.1287 -0.8106  0.7393
12250TIP3   OH258240   1.603   1.077   0.149  0.4127 -0.3349 -0.1874
12250TIP3    H158241   1.640   1.079   0.238  2.7140  0.3747 -1.0859
12250TIP3    H258242   1.520   1.124   0.157  0.1169 -1.1167  1.7681
12251TIP3   OH258243   3.037   0.341   3.640 -0.8555 -0.3116 -0.7488
12251TIP3    H158244   2.987   0.260   3.652  0.7453 -1.1822  0.4352
12251TIP3    H258245   3.040   0.380   3.728  0.4930 -0.2616 -0.8024
12252TIP3   OH258246   1.356   3.983  12.765 -0.2241  0.1731 -0.1993
12252TIP3    H158247   1.382   4.020  12.680  2.4667 -1.2136 -0.0644
12252TIP3    H258248   1.391   3.894  12.764 -2.0534 -0.6397  1.5493
12253TIP3   OH258249   5.568   3.045  11.944  0.9583  0.6404  0.1488
12253TIP3    H158250   5.575   2.951  11.964 -0.5385  0.9000  2.1571
12253TIP3    H258251   5.658   3.072  11.924  1.3621 -1.2750 -0.8931
12254TIP3   OH258252   4.459   5.498   5.640 -0.3021  0.2379  0.4547
12254TIP3    H158253   4.462   5.427   5.577  1.6251  0.4546  0.2287
12254TIP3    H258254   4.544   5.495   5.684 -0.8663  1.2822  1.6968
12255TIP3   OH258255   2.075   3.908  12.255  0.1701  0.3297 -0.0623
12255TIP3    H158256   2.160   3.866  12.243  0.6571  0.6664  1.9015
12255TIP3    H258257   2.080   3.987  12.201  0.3241 -0.6311 -1.5031
12256TIP3   OH258258   0.153   1.700   1.926  0.2620  0.2339 -0.3777
12256TIP3    H158259   0.153   1.704   2.022 -1.9235  0.3241 -0.3373
12256TIP3    H258260   0.178   1.789   1.899  0.8203  0.2277  0.1072
12257TIP3   OH258261   6.809   4.320  14.625 -0.0962 -0.1206 -0.3572
12257TIP3    H158262   6.745   4.260  14.587 -0.2062  0.2062 -0.7003
12257TIP3    H258263   6.893   4.295  14.585 -0.1992  0.1738 -0.7693
12258TIP3   OH258264   4.007   6.405   1.178  0.4362 -0.4002 -0.0500
12258TIP3    H158265   4.071   6.342   1.147  1.2355 -1.0008  2.5406
12258TIP3    H258266   3.925   6.354   1.185  0.4324 -0.4502 -0.4575
12259TIP3   OH258267   4.319   3.015  14.259  0.4749  0.0513 -0.0576
12259TIP3    H158268   4.344   2.966  14.337 -0.8482  0.4507  0.6369
12259TIP3    H258269   4.334   3.107  14.281 -1.3921  0.2903  0.3265
12260TIP3   OH258270   2.398   6.288   3.788 -0.3983 -0.4133 -0.3572
12260TIP3    H158271   2.487   6.266   3.761  0.6367 -1.3065  3.1611
12260TIP3    H258272   2.345   6.215   3.756  0.2951 -0.3877 -1.6312
12261TIP3   OH258273   2.887   4.864  14.283 -0.7619  0.0336  0.3524
12261TIP3    H158274   2.798   4.894  14.303 -0.9294 -1.2569  1.7175
12261TIP3    H258275   2.887   4.772  14.308  0.6306 -0.2995 -0.7717
12262TIP3   OH258276   4.839   1.463  13.590  0.2362 -0.1557 -0.0633
12262TIP3    H158277   4.867   1.372  13.579  0.1218 -0.3796  1.3314
12262TIP3    H258278   4.798   1.486  13.507 -1.0188 -1.8382  0.0481
12263TIP3   OH258279   3.205   3.545  16.158 -0.3030 -0.0332 -0.2478
12263TIP3    H158280   3.130   3.579  16.207  0.1166  0.8151 -0.1812
12263TIP3    H258281   3.167   3.515  16.075 -1.1100 -2.0363  0.7889
12264TIP3   OH258282   2.352   1.982   5.289 -0.1810  0.5430  0.2070
12264TIP3    H158283   2.379   1.983   5.381 -1.7133 -0.3576  0.7074
12264TIP3    H258284   2.257   1.992   5.291 -0.2602  0.4199 -1.2783
12265TIP3   OH258285   2.879   2.331  14.777  0.5143  0.3558 -0.0640
12265TIP3    H158286   2.799   2.381  14.763 -0.0936 -0.6062 -0.1274
12265TIP3    H258287   2.871   2.298  14.867  0.2625 -0.7351 -0.4763
12266TIP3   OH258288   6.780   0.766   3.586 -0.2465 -0.0673 -0.4500
12266TIP3    H158289   6.772   0.860   3.567  1.0650 -0.1387 -1.4697
12266TIP3    H258290   6.812   0.728   3.504 -0.3513 -1.3527  0.0891
12267TIP3   OH258291   5.853   0.598  10.942 -0.1151  0.0350 -0.0367
12267TIP3    H158292   5.810   0.604  10.857 -1.6025  0.4451  0.7083
12267TIP3    H258293   5.943   0.629  10.926 -0.7672  1.4617 -1.1695
12268TIP3   OH258294   4.220   4.015   5.541 -0.6451 -0.1459 -0.0563
12268TIP3    H158295   4.194   3.952   5.474  0.3818 -0.3763 -0.2597
12268TIP3    H258296   4.162   4.090   5.527 -1.9499 -1.0600  0.2487
12269TIP3   OH258297   1.507   4.264  13.466  0.8494 -0.7095 -0.0083
12269TIP3    H158298   1.492   4.321  13.391  2.8670 -0.4332 -0.2598
12269TIP3    H258299   1.540   4.182  13.429 -0.1082 -1.3360  0.4769
12270TIP3   OH258300   3.218   2.236   2.643  0.2020  0.1031  0.4354
12270TIP3    H158301   3.308   2.210   2.623 -0.2164 -0.9425 -0.1954
12270TIP3    H258302   3.176   2.155   2.670  0.0192  0.9776  3.0258
12271TIP3   OH258303   4.650   3.388   2.538  0.1829  0.5436 -0.1458
12271TIP3    H158304   4.589   3.324   2.503  0.0409  0.3360  0.4620
12271TIP3    H258305   4.601   3.470   2.541 -0.6711  0.0356  1.9152
12272TIP3   OH258306   4.321   3.661   1.429  0.4072  0.4180 -0.7048
12272TIP3    H158307   4.281   3.655   1.516 -2.6404  0.2416 -2.0089
12272TIP3    H258308   4.345   3.571   1.407  0.3120  0.3240 -0.4280
12273TIP3   OH258309   1.536   2.022   3.615  0.2462  0.0191  0.0764
12273TIP3    H158310   1.552   1.937   3.656 -1.0822  0.2055  1.0768
12273TIP3    H258311   1.569   2.086   3.679 -0.4069  0.2847  0.1586
12274TIP3   OH258312   0.448   5.930   6.049 -0.4520 -0.2735  0.4200
12274TIP3    H158313   0.542   5.945   6.037 -0.3761 -1.1947 -0.2486
12274TIP3    H258314   0.438   5.835   6.045 -1.7402 -0.1373 -2.2937
12275TIP3   OH258315   2.009   6.449   1.852 -0.2045 -0.2340  0.1226
12275TIP3    H158316   1.918   6.426   1.869 -0.1983 -0.2312  0.1609
12275TIP3    H258317   2.007   6.540   1.824 -0.2135 -0.2353  0.1199
12276TIP3   OH258318   6.132   1.848   1.604  0.0305  0.1500 -0.4115
12276TIP3    H158319   6.171   1.761   1.605 -1.1347 -0.3862 -0.3575
12276TIP3    H258320   6.137   1.879   1.694 -0.3246 -0.2163 -0.2663
12277TIP3   OH258321   2.503   1.441   3.053  0.2599 -0.1264 -0.0476
12277TIP3    H158322   2.487   1.535   3.050 -0.7884 -0.2570  0.8485
12277TIP3    H258323   2.564   1.425   2.981  0.7570  1.2873  0.0206
12278TIP3   OH258324   6.574   2.136   4.690  0.4467 -0.1299 -0.3752
12278TIP3    H158325   6.494   2.184   4.710 -1.0158 -1.8620 -1.6533
12278TIP3    H258326   6.612   2.117   4.776  0.0983  1.6752  0.2105
12279TIP3   OH258327   1.897   5.311   0.207  0.5376 -0.2015 -0.1601
12279TIP3    H158328   1.886   5.339   0.297 -1.1623 -0.5199 -0.2315
12279TIP3    H258329   1.865   5.384   0.154  1.4824 -0.0315 -0.5201
12280TIP3   OH258330   5.423   0.605  12.312 -0.0425  0.7508  0.7321
12280TIP3    H158331   5.385   0.524  12.345 -0.0290  0.5599  0.2770
12280TIP3    H258332   5.362   0.673  12.340 -1.1787  0.3629 -0.7315
12281TIP3   OH258333   5.362   0.110  12.776 -0.4170 -0.1403 -0.3894
12281TIP3    H158334   5.327   0.072  12.856  0.0018  0.2985  0.0044
12281TIP3    H258335   5.354   0.040  12.711 -1.6934 -0.1717 -0.2260
12282TIP3   OH258336   2.201   2.134   4.774 -0.4998 -0.3085 -0.5554
12282TIP3    H158337   2.121   2.100   4.733 -1.2173 -1.2459  1.4402
12282TIP3    H258338   2.182   2.130   4.868  1.8872 -0.5385 -0.0191
12283TIP3   OH258339   4.162   0.654   3.455 -0.1735  0.6849 -0.0840
12283TIP3    H158340   4.162   0.674   3.549  2.0662  1.6925 -0.2257
12283TIP3    H258341   4.103   0.719   3.417 -1.1287  0.2447  0.5989
12284TIP3   OH258342   4.250   6.783  12.488  0.2350 -0.1250 -0.8319
12284TIP3    H158343   4.254   6.878  12.500  0.8176 -0.1879 -0.5080
12284TIP3    H258344   4.159   6.760  12.509  0.8557 -0.0631  2.4355
12285TIP3   OH258345   2.853   2.451  14.435 -0.4380 -1.3508 -0.3637
12285TIP3    H158346   2.946   2.442  14.417 -0.3233 -1.6231  0.3372
12285TIP3    H258347   2.810   2.433  14.351  0.1806 -0.1050 -0.9735
12286TIP3   OH258348   5.379   5.360  16.066  0.1323  0.2279  0.1761
12286TIP3    H158349   5.412   5.415  16.137 -0.2954 -0.1200  0.6509
12286TIP3    H258350   5.453   5.304  16.043 -0.0164 -0.3370  1.0247
12287TIP3   OH258351   5.945   3.926  12.658 -0.1839  0.8286  0.4695
12287TIP3    H158352   5.915   3.915  12.748 -0.2711  0.3335  0.3815
12287TIP3    H258353   5.974   4.017  12.654  0.6555  0.6097  1.2390
12288TIP3   OH258354   4.692   5.433   5.420 -0.4877 -0.1660  0.2061
12288TIP3    H158355   4.772   5.386   5.396  0.7662  0.7788  2.2418
12288TIP3    H258356   4.637   5.368   5.462  0.2663 -0.3418  0.9597
12289TIP3   OH258357   4.362   5.772   2.442 -0.7804 -0.5181  0.1815
12289TIP3    H158358   4.452   5.768   2.408 -0.7116 -0.6939  0.3864
12289TIP3    H258359   4.371   5.807   2.530 -0.8033 -1.5958  0.6236
12290TIP3   OH258360   1.447   1.630  13.023  0.3365 -0.2904  0.1758
12290TIP3    H158361   1.420   1.543  13.054  0.2730 -1.0647 -1.9439
12290TIP3    H258362   1.366   1.679  13.016  0.0559 -0.8832 -0.9886
12291TIP3   OH258363   5.676   5.485   0.490  0.0595 -0.2681 -0.5961
12291TIP3    H158364   5.699   5.556   0.550  0.5632 -0.5677 -0.4300
12291TIP3    H258365   5.585   5.464   0.510  0.5015 -1.0087  0.7267
12292TIP3   OH258366   6.160   5.230  14.357 -0.4912 -0.3455  0.0490
12292TIP3    H158367   6.165   5.153  14.300  1.1786 -0.1682 -0.1071
12292TIP3    H258368   6.102   5.290  14.311  0.5243 -0.3627 -1.3304
12293TIP3   OH258369   5.577   0.055   1.908  0.1278  0.0263 -0.7199
12293TIP3    H158370   5.608   0.083   1.822 -0.0939  0.3455 -0.6969
12293TIP3    H258371   5.648   0.078   1.968 -0.0939  0.6386 -0.6858
12294TIP3   OH258372   0.101   5.068   4.213 -0.9512 -0.4707 -0.1155
12294TIP3    H158373   0.063   5.015   4.284 -1.7771  0.4403  0.1524
12294TIP3    H258374   0.174   5.115   4.255  0.3774 -2.0590 -0.5773
12295TIP3   OH258375   1.681   2.764   4.926  0.2330  0.1783 -0.4158
12295TIP3    H158376   1.719   2.717   5.000 -1.1592  0.2830  0.3997
12295TIP3    H258377   1.615   2.821   4.965  0.2314  1.0533 -1.6372
12296TIP3   OH258378   2.912   2.653   5.501  0.1240 -0.4473 -0.0424
12296TIP3    H158379   2.945   2.742   5.491  1.6608 -0.8679  1.0074
12296TIP3    H258380   2.847   2.644   5.431  0.7530  1.1069 -0.8768
12297TIP3   OH258381   2.550   1.662  16.285 -0.0274  0.4131  0.1710
12297TIP3    H158382   2.584   1.652  16.374 -2.4536  0.7449  1.2062
12297TIP3    H258383   2.461   1.696  16.296  0.2140  2.2642 -2.4637
12298TIP3   OH258384   6.342   3.172   0.735 -0.0061  0.2622 -0.0703
12298TIP3    H158385   6.345   3.180   0.831 -0.2480  0.1211 -0.0494
12298TIP3    H258386   6.324   3.261   0.704 -0.2397  0.2540  0.0338
12299TIP3   OH258387   0.652   4.512  10.672  0.1306  0.2923  0.1769
12299TIP3    H158388   0.607   4.577  10.726  1.1391  0.4405  0.8739
12299TIP3    H258389   0.595   4.435  10.675 -0.4309  0.7085  0.4275
12300TIP3   OH258390   4.098   2.398   3.144  0.3334  0.4587  0.3798
12300TIP3    H158391   4.015   2.393   3.097 -0.1616 -0.9358  1.3380
12300TIP3    H258392   4.075   2.430   3.231  0.7850 -0.0232  0.6823
12301TIP3   OH258393   2.184   0.484   6.295 -0.1483  0.1920  0.2347
12301TIP3    H158394   2.140   0.531   6.366 -0.4365 -0.2585  0.3648
12301TIP3    H258395   2.156   0.393   6.307 -0.9036  0.2489 -0.9816
12302TIP3   OH258396   0.337   2.509  16.066  0.0873  0.5374 -0.3422
12302TIP3    H158397   0.355   2.469  15.981 -0.4075 -1.7863  0.5630
12302TIP3    H258398   0.405   2.576  16.076  1.1388 -0.2350 -1.8740
12303TIP3   OH258399   1.222   6.411   6.070  0.6754  0.5597  0.0870
12303TIP3    H158400   1.137   6.388   6.108 -0.4927  3.7978 -0.2592
12303TIP3    H258401   1.215   6.386   5.978  0.0047  0.9889  0.0182
12304TIP3   OH258402   3.830   0.279   4.030  0.3276 -0.1769  0.3626
12304TIP3    H158403   3.924   0.294   4.021 -0.1377  1.5973 -3.4682
12304TIP3    H258404   3.797   0.358   4.071  0.3476 -0.3164  0.6528
12305TIP3   OH258405   0.307   0.452   0.959  0.5039 -0.1804  0.2640
12305TIP3    H158406   0.353   0.391   0.901  0.3963 -0.2607  0.2629
12305TIP3    H258407   0.306   0.407   1.044  0.0480 -0.3663  0.1607
12306TIP3   OH258408   4.947   2.631  15.431  0.2638 -0.8450  0.0814
12306TIP3    H158409   4.985   2.718  15.443  0.7235 -1.2220  1.4115
12306TIP3    H258410   4.855   2.649  15.411  0.2811 -0.0551  0.6582
12307TIP3   OH258411   1.456   3.849   0.831  0.1158  0.4079 -0.6437
12307TIP3    H158412   1.421   3.838   0.742  0.3470  1.3067 -0.8521
12307TIP3    H258413   1.420   3.775   0.879  0.7683 -0.6599 -1.7164
12308TIP3   OH258414   2.064   0.095  15.817 -0.7000 -0.1460  0.4112
12308TIP3    H158415   2.126   0.168  15.819 -3.5808  2.5421 -0.5276
12308TIP3    H258416   2.112   0.024  15.774  1.3559  2.1404 -1.3240
12309TIP3   OH258417   3.218   4.629   0.323  0.4271 -0.0420  0.4996
12309TIP3    H158418   3.221   4.534   0.313  4.6131  0.0615 -1.2856
12309TIP3    H258419   3.131   4.654   0.290 -0.1873 -3.0935 -0.5305
12310TIP3   OH258420   4.201   3.353   4.538 -0.4554 -0.7037 -0.1600
12310TIP3    H158421   4.226   3.445   4.530 -1.0470 -0.6793 -4.3636
12310TIP3    H258422   4.123   3.353   4.592  0.8215  0.8977  1.8097
12311TIP3   OH258423   3.777   4.149   0.904  0.2253 -0.0167  0.2107
12311TIP3    H158424   3.692   4.110   0.924  0.7103 -0.5182  1.4240
12311TIP3    H258425   3.781   4.227   0.959 -0.0584  0.8690 -0.9862
12312TIP3   OH258426   3.255   0.015  17.105 -0.3873 -0.6818 -0.3920
12312TIP3    H158427   3.226  -0.076  17.113 -1.4521 -0.3435 -0.2971
12312TIP3    H258428   3.322   0.013  17.036  0.8873 -1.8091  0.8143
12313TIP3   OH258429   1.926   5.095   4.259  0.0368 -0.5072 -0.6163
12313TIP3    H158430   2.005   5.047   4.236  1.6578  1.9550 -0.5748
12313TIP3    H258431   1.858   5.028   4.265  2.2357 -2.8258  0.1009
12314TIP3   OH258432   2.342   4.129  16.388  0.5485  0.3536 -0.1629
12314TIP3    H158433   2.423   4.112  16.436  2.0676 -0.6716 -2.8727
12314TIP3    H258434   2.371   4.164  16.303 -1.7736 -0.5577 -1.4362
12315TIP3   OH258435   6.807   0.352   5.008 -0.0992 -0.3786 -0.2575
12315TIP3    H158436   6.807   0.421   5.075  1.6743 -0.1978 -0.3916
12315TIP3    H258437   6.884   0.300   5.028  0.3413 -0.4564 -2.0219
12316TIP3   OH258438   1.079   5.297   1.060  0.2852 -0.2178 -0.7388
12316TIP3    H158439   1.174   5.282   1.060  0.2735 -1.1967  2.3497
12316TIP3    H258440   1.041   5.209   1.063 -0.7385  0.1675 -1.8797
12317TIP3   OH258441   4.494   2.502  14.379 -0.1530  0.6302 -0.0185
12317TIP3    H158442   4.424   2.522  14.441 -0.3942  1.0922 -0.4255
12317TIP3    H258443   4.448   2.466  14.303  0.3101 -2.1367  0.9131
12318TIP3   OH258444   5.592   5.780  14.436 -0.5744  0.0727 -0.0490
12318TIP3    H158445   5.628   5.691  14.438 -0.3561  0.1599 -0.0767
12318TIP3    H258446   5.507   5.770  14.394  0.6352  0.2947 -2.7108
12319TIP3   OH258447   3.204   5.828  16.914  0.4454 -0.2745  0.3311
12319TIP3    H158448   3.257   5.898  16.951 -0.1301  0.8539 -0.8896
12319TIP3    H258449   3.176   5.861  16.828 -1.5410 -1.1423  0.5765
12320TIP3   OH258450   4.890   2.180  15.744 -0.4797  0.9814  0.0113
12320TIP3    H158451   4.959   2.188  15.810  0.0365  0.0545 -0.4050
12320TIP3    H258452   4.812   2.159  15.795 -0.5244  2.2496  0.5086
12321TIP3   OH258453   5.596   6.103   3.180 -0.0006  0.6275 -0.3423
12321TIP3    H158454   5.633   6.191   3.173 -1.8303  1.5678  0.7390
12321TIP3    H258455   5.631   6.069   3.262  0.6738  0.3445 -0.7393
12322TIP3   OH258456   5.392   0.909   4.261  0.6302 -0.0343  0.4108
12322TIP3    H158457   5.384   0.959   4.180  2.2272  1.2991  1.0088
12322TIP3    H258458   5.443   0.831   4.237  1.1577  0.3928  0.1211
12323TIP3   OH258459   3.402   0.528  14.444  0.4858 -0.5251  0.0699
12323TIP3    H158460   3.378   0.546  14.535 -0.1676 -0.3628 -0.1318
12323TIP3    H258461   3.492   0.495  14.449  0.3909 -0.6839  0.7880
12324TIP3   OH258462   2.283   0.301  14.118  0.0493 -0.1210  0.8884
12324TIP3    H158463   2.325   0.224  14.157 -1.8014 -1.6543  0.0236
12324TIP3    H258464   2.213   0.265  14.064  0.4635  2.0927 -1.2801
12325TIP3   OH258465   3.334   6.104   5.004 -0.4451  0.1675 -0.5313
12325TIP3    H158466   3.276   6.077   5.075  0.8687 -0.0671  0.5059
12325TIP3    H258467   3.325   6.035   4.938 -1.0110 -0.0863 -0.1966
12326TIP3   OH258468   6.460   6.190  16.736 -0.4267  0.2007 -0.3990
12326TIP3    H158469   6.487   6.281  16.734  0.9830 -0.0865  1.9556
12326TIP3    H258470   6.488   6.158  16.822 -0.4859 -2.5726 -1.3022
12327TIP3   OH258471   3.978   4.163   0.720 -0.2268 -0.1802  0.0090
12327TIP3    H158472   3.898   4.167   0.772  0.2826  2.3626  0.7289
12327TIP3    H258473   4.041   4.117   0.775 -0.4378  0.2117  0.5877
12328TIP3   OH258474   3.441   6.278   3.013  0.6189 -0.4577  0.7664
12328TIP3    H158475   3.437   6.369   2.985  1.4143 -0.4538  0.6288
12328TIP3    H258476   3.383   6.273   3.089 -0.5890 -0.1817 -0.1076
12329TIP3   OH258477   5.103   2.854  16.658 -0.4977  0.3316  0.1181
12329TIP3    H158478   5.098   2.908  16.737  2.0724  0.3036  0.3671
12329TIP3    H258479   5.031   2.791  16.668  0.4447 -0.4363  3.0576
12330TIP3   OH258480   5.504   0.118   0.508  0.5580  0.2383 -0.4445
12330TIP3    H158481   5.591   0.151   0.526  0.3850  1.5151 -1.7662
12330TIP3    H258482   5.450   0.149   0.580  0.6100  2.0285 -1.1410
12331TIP3   OH258483   1.683   6.815  13.737 -0.4506  0.0850 -0.2368
12331TIP3    H158484   1.651   6.892  13.784  0.5729  1.1061 -1.1245
12331TIP3    H258485   1.739   6.769  13.799  1.3440  1.7186 -0.5424
12332TIP3   OH258486   4.570   2.482  13.737  0.2231  0.3852  0.3035
12332TIP3    H158487   4.566   2.512  13.646 -0.0785  0.3621  0.3059
12332TIP3    H258488   4.582   2.561  13.789 -2.8605  0.8410  0.4965
12333TIP3   OH258489   3.359   6.500  13.469  0.3552 -0.2201 -0.3392
12333TIP3    H158490   3.364   6.476  13.561 -0.3445 -0.7951 -0.4463
12333TIP3    H258491   3.318   6.425  13.426 -0.2258  0.4401 -0.9630
12334TIP3   OH258492   3.029   5.129  16.453 -0.0282  0.0204  0.6076
12334TIP3    H158493   3.069   5.131  16.540 -1.0893 -1.4850  1.1744
12334TIP3    H258494   3.093   5.170  16.396  0.8936  0.6152  2.0147
12335TIP3   OH258495   5.438   2.784  17.103  0.5413  0.2568 -0.3379
12335TIP3    H158496   5.448   2.871  17.143  1.6586  0.5729 -1.2463
12335TIP3    H258497   5.392   2.801  17.021 -0.8080 -0.2592  0.2747
12336TIP3   OH258498   2.725   6.651   3.732  0.7894  0.5186 -0.7187
12336TIP3    H158499   2.710   6.580   3.670 -1.0313 -2.1083  2.4481
12336TIP3    H258500   2.653   6.712   3.716  0.6350  0.1468 -1.4829
12337TIP3   OH258501   3.797   5.174  13.942  0.0026  0.2576  0.3641
12337TIP3    H158502   3.875   5.212  13.902  1.1592 -1.6043  0.7493
12337TIP3    H258503   3.802   5.198  14.034 -1.2598  2.2586 -0.0162
12338TIP3   OH258504   4.035   1.518  14.004 -0.1341 -0.7833 -0.5178
12338TIP3    H158505   3.975   1.499  13.932 -1.0198 -1.3605  0.3481
12338TIP3    H258506   3.985   1.497  14.083  0.7807 -0.0498  0.2718
12339TIP3   OH258507   0.391   2.194   1.248 -0.0119  0.3776  0.0830
12339TIP3    H158508   0.412   2.111   1.292  0.7631  0.7316  0.4069
12339TIP3    H258509   0.469   2.248   1.261 -0.7884  1.4249  0.5125
12340TIP3   OH258510   3.501   4.490  11.684  0.1590 -0.2191  0.0517
12340TIP3    H158511   3.458   4.534  11.758 -2.4519  0.7717 -1.8806
12340TIP3    H258512   3.566   4.553  11.653 -0.2635  0.2858  0.1766
12341TIP3   OH258513   1.856   3.843  12.427  0.3947  0.3015  0.1331
12341TIP3    H158514   1.867   3.899  12.504 -1.0467 -0.1936  0.7350
12341TIP3    H258515   1.938   3.853  12.378  2.5744 -1.4787  3.0627
12342TIP3   OH258516   3.066   5.527   0.552  0.2314  0.2350  0.4946
12342TIP3    H158517   2.981   5.554   0.586 -0.2880 -0.1503 -0.4631
12342TIP3    H258518   3.123   5.523   0.629 -0.1648  2.1279  0.9450
12343TIP3   OH258519   6.420   3.020  12.369 -0.6153  0.6735 -0.3059
12343TIP3    H158520   6.353   3.084  12.344 -0.7959 -0.0730 -1.7956
12343TIP3    H258521   6.500   3.052  12.328 -0.2070  1.1171  0.7948
12344TIP3   OH258522   3.277   4.086   4.597 -0.2359 -0.2015  0.4146
12344TIP3    H158523   3.259   3.995   4.573  1.1963 -0.7910  1.4268
12344TIP3    H258524   3.336   4.117   4.529  0.2117 -0.4225  0.6950
12345TIP3   OH258525   4.299   4.097  15.742 -0.6829 -0.3186 -0.0989
12345TIP3    H158526   4.248   4.031  15.788  1.7604 -2.0556  0.2887
12345TIP3    H258527   4.243   4.175  15.743 -1.8641 -1.0392  3.3879
12346TIP3   OH258528   5.086   5.756   1.567  0.3926 -0.3373 -0.2359
12346TIP3    H158529   5.126   5.823   1.512 -1.9603 -0.2205 -2.0162
12346TIP3    H258530   4.998   5.746   1.530 -0.0563 -2.8870  1.3098
12347TIP3   OH258531   4.323   4.026  10.627  0.2676  0.6193  0.3960
12347TIP3    H158532   4.373   4.094  10.582  0.5278 -0.0164 -0.3127
12347TIP3    H258533   4.232   4.051  10.615  0.3084  0.1808 -0.9869
12348TIP3   OH258534   3.871   5.208  13.041  0.7629 -0.1332 -0.1457
12348TIP3    H158535   3.806   5.144  13.012  0.1856 -0.2183  1.2270
12348TIP3    H258536   3.863   5.280  12.978  0.6908 -0.9503 -1.0983
12349TIP3   OH258537   4.252   5.215  16.061  0.2659  0.0633 -0.1017
12349TIP3    H158538   4.212   5.128  16.066  0.0395  0.0590 -1.5818
12349TIP3    H258539   4.343   5.201  16.086  0.5731 -0.8798 -1.6189
12350TIP3   OH258540   5.003   5.454  12.065 -0.2833  0.8905 -0.1307
12350TIP3    H158541   5.069   5.513  12.028  1.8441  0.3685  2.5078
12350TIP3    H258542   5.038   5.430  12.151 -2.6108 -1.6698  0.2341
12351TIP3   OH258543   4.560   6.036  12.706  0.0292 -0.3462  0.1953
12351TIP3    H158544   4.577   6.124  12.673  1.2840  0.1934  2.0878
12351TIP3    H258545   4.536   6.050  12.798 -0.9139 -1.9118  0.2204
12352TIP3   OH258546   4.932   2.860  15.138  0.1554  0.1415  0.3435
12352TIP3    H158547   4.973   2.893  15.218 -1.2560 -1.2223  1.6848
12352TIP3    H258548   4.981   2.781  15.116 -0.6602 -0.5440  0.9699
12353TIP3   OH258549   2.562   5.413  11.130  0.1526  0.1935  0.2798
12353TIP3    H158550   2.632   5.430  11.193  2.1877 -0.1982 -1.7599
12353TIP3    H258551   2.599   5.437  11.045 -0.9844 -3.1821 -1.3257
12354TIP3   OH258552   2.482   3.208   3.100  0.1957 -0.0755  0.3093
12354TIP3    H158553   2.553   3.150   3.073 -0.2967 -0.7733  0.4969
12354TIP3    H258554   2.411   3.149   3.124 -0.0155  0.5786  1.3481
12355TIP3   OH258555   6.245   2.730   3.425  0.0155  0.0809 -0.0037
12355TIP3    H158556   6.164   2.684   3.445  0.7552 -1.5999 -0.6754
12355TIP3    H258557   6.229   2.820   3.453 -1.0288 -0.8134  2.5833
12356TIP3   OH258558   6.620   3.879   5.122  0.1544  0.5994  0.3126
12356TIP3    H158559   6.614   3.949   5.057  1.6219  1.2374  0.8212
12356TIP3    H258560   6.714   3.863   5.131 -0.1097 -0.6140  1.0774
12357TIP3   OH258561   6.090   0.021   0.475  0.1224  0.2049 -0.6458
12357TIP3    H158562   6.027   0.051   0.541 -0.1828 -0.3465 -0.6807
12357TIP3    H258563   6.070   0.073   0.397  0.7746  1.1763 -0.1854
12358TIP3   OH258564   1.983   6.249  16.365 -0.1420  0.1063 -0.3191
12358TIP3    H158565   1.987   6.217  16.455 -0.1014 -1.5060 -0.8641
12358TIP3    H258566   1.890   6.266  16.350 -0.1307  0.5209  0.0700
12359TIP3   OH258567   1.254   0.806   3.437 -0.0257  0.2391 -0.2535
12359TIP3    H158568   1.170   0.760   3.439 -0.2637  0.6827  0.6369
12359TIP3    H258569   1.264   0.841   3.526  1.3537 -0.2551 -0.1967
12360TIP3   OH258570   2.397   6.402   1.205  0.1457  0.1324  0.4863
12360TIP3    H158571   2.349   6.319   1.195 -2.6352  1.1307  3.7804
12360TIP3    H258572   2.414   6.409   1.299  1.3658  2.7674  0.1531
12361TIP3   OH258573   6.042   2.278  14.910 -0.1477  0.0343 -0.4602
12361TIP3    H158574   6.007   2.219  14.977 -0.0230 -0.3062 -0.6925
12361TIP3    H258575   6.105   2.224  14.862 -0.3808  0.2199 -0.9750
12362TIP3   OH258576   3.164   5.148  13.090  0.4692  0.1554 -0.0862
12362TIP3    H158577   3.199   5.060  13.078  0.3505  0.3073 -1.7860
12362TIP3    H258578   3.194   5.174  13.177  1.7500 -0.9882 -0.1476
12363TIP3   OH258579   4.033   6.080   2.216  1.0485 -1.1559 -0.0263
12363TIP3    H158580   3.983   5.998   2.215  2.1758 -1.9713  2.5678
12363TIP3    H258581   4.009   6.123   2.298  0.1509  1.4252 -1.5229
12364TIP3   OH258582   4.106   3.963   3.999 -0.1996  0.0993 -0.3184
12364TIP3    H158583   4.094   4.041   4.052  0.4724  0.2886 -0.4291
12364TIP3    H258584   4.023   3.952   3.953 -0.3032  0.7402 -0.2951
12365TIP3   OH258585   6.085   4.037   1.780 -0.6852 -0.5343  0.4094
12365TIP3    H158586   6.095   4.001   1.692  0.0175  0.4211  0.0800
12365TIP3    H258587   6.039   3.969   1.828 -1.4980 -0.8907 -0.8160
12366TIP3   OH258588   2.827   0.630  15.574  0.3057  0.0807  0.3906
12366TIP3    H158589   2.887   0.682  15.520 -0.8159  0.4620 -0.5329
12366TIP3    H258590   2.810   0.552  15.522 -1.2334  0.7117 -0.1001
12367TIP3   OH258591   3.723   3.865   6.630  0.4316  0.2543 -0.3481
12367TIP3    H158592   3.704   3.784   6.582 -1.4014  0.3107  0.1987
12367TIP3    H258593   3.652   3.924   6.605  0.3500  0.8373  1.1505
12368TIP3   OH258594   2.473   3.446  12.563 -0.1484  0.7733 -0.1298
12368TIP3    H158595   2.548   3.427  12.507  1.1801 -0.6521  1.9692
12368TIP3    H258596   2.421   3.366  12.563 -1.4202  1.5614 -1.1174
12369TIP3   OH258597   4.329   5.432  12.230  0.0005  0.4246 -0.1952
12369TIP3    H158598   4.413   5.475  12.250 -0.0055  0.3953 -0.1044
12369TIP3    H258599   4.290   5.487  12.163  0.1464  0.3719 -0.3229
12370TIP3   OH258600   4.698   3.172   0.046  0.1568 -0.0438  0.7196
12370TIP3    H158601   4.604   3.174   0.063 -0.1342 -0.7418 -0.6330
12370TIP3    H258602   4.724   3.265   0.043 -0.4658  0.1492  1.1621
12371TIP3   OH258603   3.533   6.012   3.006  0.1751  0.1640 -0.1634
12371TIP3    H158604   3.494   5.964   3.080 -1.6613 -0.2003 -1.3036
12371TIP3    H258605   3.491   6.097   3.007  0.8034  0.4836 -0.2759
12372TIP3   OH258606   3.715   3.404   2.741 -0.3558  0.5678  0.4056
12372TIP3    H158607   3.634   3.424   2.694 -1.0742  0.8780  1.7331
12372TIP3    H258608   3.721   3.308   2.736 -0.7907  0.5425  0.2692
12373TIP3   OH258609   1.931   1.814  14.260 -0.9615 -0.2888  0.8484
12373TIP3    H158610   1.850   1.789  14.304 -1.1537 -0.1341  0.5897
12373TIP3    H258611   1.971   1.731  14.234 -1.7732 -0.3480 -0.3227
12374TIP3   OH258612   5.372   2.643   3.510  0.6550  0.2403 -0.4392
12374TIP3    H158613   5.333   2.561   3.481 -0.1613  0.1410  0.8366
12374TIP3    H258614   5.431   2.617   3.581  0.4994  0.7290 -0.1227
12375TIP3   OH258615   6.806   3.199   4.966 -0.0366  0.5962  0.8051
12375TIP3    H158616   6.783   3.261   5.036 -0.4086  3.0791 -1.3435
12375TIP3    H258617   6.887   3.159   4.995  0.8909  3.0137  1.8277
12376TIP3   OH258618   6.327   3.750  11.209  0.6716 -0.1612 -0.2302
12376TIP3    H158619   6.255   3.695  11.178 -0.3935  0.9225  0.2824
12376TIP3    H258620   6.393   3.745  11.139  0.5512 -1.9601 -0.2641
12377TIP3   OH258621   3.079   3.218  16.037 -0.7338  0.0267 -0.6060
12377TIP3    H158622   2.996   3.170  16.041 -1.0933  0.6086 -0.9264
12377TIP3    H258623   3.053   3.310  16.034 -0.0505  0.3449  1.2808
12378TIP3   OH258624   0.410   6.587  15.568 -0.4501  0.4025 -0.0426
12378TIP3    H158625   0.397   6.598  15.473 -0.7273  0.0136 -0.0528
12378TIP3    H258626   0.323   6.568  15.602 -0.5373  1.5924  0.4525
12379TIP3   OH258627   0.023   0.656   3.335 -0.8258  0.0691  0.3532
12379TIP3    H158628  -0.047   0.627   3.277  0.2553  0.6968 -1.3685
12379TIP3    H258629   0.094   0.594   3.319 -0.0566  1.0144 -0.0130
12380TIP3   OH258630   6.803   3.666  16.773 -0.8514  0.0192  0.2716
12380TIP3    H158631   6.828   3.690  16.862  1.0667 -0.7228 -0.0067
12380TIP3    H258632   6.781   3.573  16.779 -0.7311 -0.0298 -0.0273
12381TIP3   OH258633   1.383   4.464  15.096 -0.2794  0.2113 -0.2462
12381TIP3    H158634   1.389   4.554  15.128 -1.2395 -0.0624  0.7576
12381TIP3    H258635   1.351   4.414  15.171  1.6403 -1.2586 -0.3374
12382TIP3   OH258636   1.269   4.722   1.820 -0.4603 -0.1306  0.0074
12382TIP3    H158637   1.217   4.772   1.883 -0.4972 -0.0839 -0.0601
12382TIP3    H258638   1.319   4.789   1.772 -0.1671 -0.1919  0.2268
12383TIP3   OH258639   2.815   6.358   1.016 -0.3870  0.6597 -0.2776
12383TIP3    H158640   2.749   6.425   1.036 -2.2387 -0.9918 -0.4906
12383TIP3    H258641   2.842   6.325   1.102  2.1158  2.9908 -0.0401
12384TIP3   OH258642   1.624   3.559  16.089 -0.3201  0.3354 -0.3163
12384TIP3    H158643   1.539   3.516  16.080  0.1867 -1.3775  2.1109
12384TIP3    H258644   1.603   3.648  16.117 -1.3294 -0.0496  0.2085
12385TIP3   OH258645   3.530   2.321  14.793  0.0450  0.0498  0.4701
12385TIP3    H158646   3.498   2.407  14.767  0.7887  0.3040  0.3778
12385TIP3    H258647   3.462   2.287  14.852  0.0408  0.9622  1.0135
12386TIP3   OH258648   1.889   5.776   3.113  0.7881 -0.2899  0.3469
12386TIP3    H158649   1.830   5.704   3.089 -1.1416  0.8292  1.4299
12386TIP3    H258650   1.853   5.852   3.068  2.0207  0.2527  0.2493
12387TIP3   OH258651   5.018   6.348   5.683 -0.7153  0.0470 -0.3304
12387TIP3    H158652   5.099   6.300   5.702 -1.1535 -0.7631 -0.4851
12387TIP3    H258653   5.002   6.333   5.590 -1.7910 -0.9683  0.0029
12388TIP3   OH258654   5.097   4.681  17.170  0.1549  0.2520  0.3138
12388TIP3    H158655   5.012   4.639  17.158 -0.6428  0.8920  3.0143
12388TIP3    H258656   5.094   4.758  17.113 -1.2220  0.4642  0.6473
12389TIP3   OH258657   4.249   4.566  15.807  0.5748 -0.1489 -0.1846
12389TIP3    H158658   4.177   4.624  15.832  0.9668 -0.8803  3.1074
12389TIP3    H258659   4.206   4.484  15.782  0.1209  0.8483 -2.9791
12390TIP3   OH258660   4.022   0.129  12.603  0.5031 -0.4413  0.0267
12390TIP3    H158661   3.955   0.096  12.542 -0.1180  0.8362 -0.0066
12390TIP3    H258662   4.060   0.204  12.559  0.7797 -0.1347  0.7742
12391TIP3   OH258663   0.316   5.050  11.851  0.6519 -0.1385 -0.1354
12391TIP3    H158664   0.307   4.955  11.863  2.6823 -0.2977  0.4948
12391TIP3    H258665   0.226   5.082  11.848 -0.0969 -1.8606  1.5841
12392TIP3   OH258666   6.126   4.472  12.604  0.0874 -0.1431 -0.3938
12392TIP3    H158667   6.141   4.534  12.676 -0.3647  1.3434 -1.5084
12392TIP3    H258668   6.104   4.528  12.529  1.8619 -1.5413 -2.0661
12393TIP3   OH258669   3.562   0.097  14.710 -0.6084 -0.0204  0.4196
12393TIP3    H158670   3.546   0.143  14.792 -1.9101 -2.7611  1.8504
12393TIP3    H258671   3.647   0.054  14.723 -0.6894 -0.2381  0.2421
12394TIP3   OH258672   1.992   6.745  13.048  0.2336 -0.0626 -0.0814
12394TIP3    H158673   2.051   6.688  13.098 -0.1377 -0.1515  0.2536
12394TIP3    H258674   1.918   6.761  13.106 -0.5858 -0.8156 -0.8873
12395TIP3   OH258675   0.951   4.833   3.640  0.1972 -0.4223 -0.2710
12395TIP3    H158676   0.875   4.794   3.598  0.4709 -3.1096  1.4621
12395TIP3    H258677   0.917   4.908   3.688 -0.9721 -0.3516 -1.1753
12396TIP3   OH258678   1.239   3.065  12.315  0.3078  0.0803 -0.2963
12396TIP3    H158679   1.244   2.971  12.333 -2.8592 -0.2208 -0.4227
12396TIP3    H258680   1.329   3.096  12.324  1.7150 -3.1878 -1.6250
12397TIP3   OH258681   2.061   6.724   4.228  0.2399  0.0906  0.5046
12397TIP3    H158682   2.065   6.628   4.236  2.1837  0.0979 -0.0528
12397TIP3    H258683   2.118   6.756   4.297  0.6112  0.8034 -0.1233
12398TIP3   OH258684   2.134   6.385   3.911 -0.2380 -0.5087  0.5045
12398TIP3    H158685   2.060   6.328   3.890 -0.5066  0.5181 -1.6271
12398TIP3    H258686   2.206   6.352   3.857  0.8904 -1.4400  2.4886
12399TIP3   OH258687   3.819   6.458  15.275  0.5085 -0.1976  0.1475
12399TIP3    H158688   3.731   6.449  15.237 -0.1310  0.4199  1.4257
12399TIP3    H258689   3.831   6.378  15.326 -0.2941  0.7213  1.8518
12400TIP3   OH258690   3.569   3.746  16.878  0.0476  0.7564 -0.0806
12400TIP3    H158691   3.655   3.730  16.838  0.1868  2.6174 -0.6173
12400TIP3    H258692   3.511   3.684  16.835  1.1833 -0.8676  0.6226
12401TIP3   OH258693   0.548   6.658  11.111 -0.5525 -0.3287  0.2261
12401TIP3    H158694   0.458   6.661  11.144  0.5117  0.6845  3.5148
12401TIP3    H258695   0.545   6.705  11.028 -2.8309  1.0236  0.9836
12402TIP3   OH258696   3.977   2.262  14.608 -0.3546  0.8561 -0.4499
12402TIP3    H158697   4.001   2.275  14.516  0.3287 -1.3745 -0.6525
12402TIP3    H258698   4.059   2.276  14.656 -0.8438  2.6400 -0.0664
12403TIP3   OH258699   3.936   0.161  14.704  0.4408  0.3742 -0.0571
12403TIP3    H158700   3.878   0.199  14.638 -1.7246  2.6846  2.8944
12403TIP3    H258701   3.911   0.069  14.709 -1.9222  0.9723  0.0413
12404TIP3   OH258702   5.252   6.783   3.600  0.1240  0.3683  0.5864
12404TIP3    H158703   5.335   6.740   3.581  0.3863  1.5163 -1.0846
12404TIP3    H258704   5.275   6.875   3.612 -0.4329  0.1757  4.0278
12405TIP3   OH258705   0.072   0.710  16.230 -0.0674 -0.4130  0.2708
12405TIP3    H158706   0.156   0.756  16.220  1.0282 -2.1396  1.1076
12405TIP3    H258707   0.066   0.691  16.324 -1.0853 -0.9001  0.1179
12406TIP3   OH258708   3.183   0.537   5.252  0.2328 -0.0864  0.0161
12406TIP3    H158709   3.096   0.525   5.291  0.2155  2.1189  0.8324
12406TIP3    H258710   3.197   0.458   5.200 -2.5486 -0.2593 -0.6734
12407TIP3   OH258711   6.738   0.242  13.218  0.0823 -0.1972  0.0288
12407TIP3    H158712   6.779   0.327  13.203 -0.8500  0.0160 -1.6202
12407TIP3    H258713   6.796   0.197  13.280  1.5662  0.9249 -0.4894
12408TIP3   OH258714   6.002   1.113  13.083 -0.0258  0.3111 -0.1756
12408TIP3    H158715   6.031   1.028  13.115  0.7522  0.3659 -0.7050
12408TIP3    H258716   6.068   1.138  13.018 -0.2623  1.2992 -0.0564
12409TIP3   OH258717   5.625   4.110  14.248 -0.0031  0.6150  0.0251
12409TIP3    H158718   5.554   4.051  14.221 -0.5565  1.2128  0.1533
12409TIP3    H258719   5.605   4.129  14.340  0.7009  0.2579  0.2559
12410TIP3   OH258720   1.966   2.782   4.981 -0.3412  0.0801 -0.1283
12410TIP3    H158721   2.047   2.832   4.990  0.0952 -0.6745  0.2361
12410TIP3    H258722   1.960   2.730   5.062 -1.1081  0.0135 -0.2172
12411TIP3   OH258723   1.067   5.450  13.614  0.9042 -0.3667 -0.6014
12411TIP3    H158724   1.019   5.533  13.614  0.8496 -0.3990 -0.6207
12411TIP3    H258725   1.054   5.414  13.527  1.2072 -0.2328 -0.7027
12412TIP3   OH258726   1.573   5.875   1.157 -0.0401 -0.1830  0.0241
12412TIP3    H158727   1.622   5.888   1.238  0.7548  1.8925 -0.7198
12412TIP3    H258728   1.531   5.790   1.167  0.4932 -0.2192  2.3643
12413TIP3   OH258729   2.895   6.647  14.477 -0.1308  0.3090  0.4335
12413TIP3    H158730   2.939   6.717  14.429  0.3228 -0.2219  0.0480
12413TIP3    H258731   2.927   6.567  14.435 -0.8421 -0.1154  0.6914
12414TIP3   OH258732   3.322   3.063  16.169  0.2728  0.5844 -0.0592
12414TIP3    H158733   3.362   3.056  16.083  0.9184 -0.9080  0.3261
12414TIP3    H258734   3.229   3.078  16.151  0.4425  0.5582 -1.0166
12415TIP3   OH258735   4.459   3.344  14.740  0.1435 -0.4590 -0.5013
12415TIP3    H158736   4.383   3.302  14.781 -0.5540  2.1217  1.1183
12415TIP3    H258737   4.534   3.305  14.785 -0.5096  0.4967  1.5608
12416TIP3   OH258738   0.695   0.223   4.955  0.0189  0.6711  0.2638
12416TIP3    H158739   0.735   0.184   4.878 -1.7097 -1.1206  0.1979
12416TIP3    H258740   0.746   0.302   4.971  1.2079  0.4260 -1.9495
12417TIP3   OH258741   4.092   5.870  12.374 -0.1926 -0.7734 -0.3390
12417TIP3    H158742   4.065   5.954  12.412  1.0003 -1.3025  1.8571
12417TIP3    H258743   4.149   5.895  12.301 -0.4017  0.3133 -0.1517
12418TIP3   OH258744   1.507   6.519   4.656  0.1335 -0.1313 -0.2773
12418TIP3    H158745   1.523   6.567   4.574  1.8333  1.1492  0.7414
12418TIP3    H258746   1.571   6.447   4.655  0.1222 -0.1448 -0.0971
12419TIP3   OH258747   2.684   1.508  14.695  0.3716  0.8449  0.3012
12419TIP3    H158748   2.699   1.593  14.654  2.9084  0.8894  1.0928
12419TIP3    H258749   2.717   1.519  14.785 -1.5266 -0.2966  1.1917
12420TIP3   OH258750   1.275   0.890  10.945 -0.2425  0.4141  0.0564
12420TIP3    H158751   1.192   0.935  10.926 -0.7096 -0.9618 -1.4544
12420TIP3    H258752   1.330   0.908  10.869 -0.2904 -1.1631 -0.3843
12421TIP3   OH258753   1.446   2.836  13.048 -0.2452  0.1195  0.4783
12421TIP3    H158754   1.485   2.904  13.103  0.1393  1.9354 -1.8548
12421TIP3    H258755   1.518   2.776  13.028 -0.3340 -0.4143  1.7114
12422TIP3   OH258756   6.025   0.785  13.603 -0.0402 -0.3879  0.0394
12422TIP3    H158757   6.075   0.850  13.554  0.6086  0.4851  1.7625
12422TIP3    H258758   6.069   0.781  13.688 -1.9220 -0.8187  1.0368
12423TIP3   OH258759   5.798   5.656   5.061  0.4383  0.3954 -0.1136
12423TIP3    H158760   5.807   5.577   5.007  1.7004 -0.1815  0.8964
12423TIP3    H258761   5.713   5.692   5.037  0.7855 -0.0560 -2.1907
12424TIP3   OH258762   1.734   4.053  16.300  0.1218 -0.6013 -0.2024
12424TIP3    H158763   1.642   4.028  16.293 -0.2135  0.8610 -1.5452
12424TIP3    H258764   1.782   3.971  16.289 -0.9778 -1.0736 -1.7917
12425TIP3   OH258765   6.826   0.717   4.916  0.4622  0.6202 -0.0885
12425TIP3    H158766   6.824   0.651   4.985  1.6231  1.4978  0.8353
12425TIP3    H258767   6.749   0.772   4.931 -0.6242 -0.5876 -0.9852
12426TIP3   OH258768   1.946   2.222   0.388 -0.2590  0.2117 -0.7071
12426TIP3    H158769   1.910   2.305   0.419  0.7338  0.8137 -1.1150
12426TIP3    H258770   2.004   2.246   0.316 -0.6073 -0.9223 -1.3977
12427TIP3   OH258771   3.467   6.029   0.983 -0.0542  0.6320  0.1712
12427TIP3    H158772   3.415   5.957   0.946 -1.3237  1.7792 -0.3428
12427TIP3    H258773   3.473   6.093   0.912  2.7729  0.2346 -0.0648
12428TIP3   OH258774   5.660   6.802   3.179  0.3890  0.0143  0.4026
12428TIP3    H158775   5.640   6.838   3.093  0.1116 -0.4183  0.2824
12428TIP3    H258776   5.643   6.709   3.171  2.0737 -0.3310  0.4190
12429TIP3   OH258777   5.054   2.221   1.481 -0.2160  0.4294 -0.5912
12429TIP3    H158778   4.985   2.161   1.509  0.8162 -0.3747  0.3050
12429TIP3    H258779   5.009   2.287   1.429 -2.2936  1.9093  2.7365
12430TIP3   OH258780   2.628   1.998   4.486 -0.0144  0.0178 -0.2686
12430TIP3    H158781   2.694   1.996   4.555  0.3205 -0.9430 -0.6035
12430TIP3    H258782   2.651   2.074   4.432  1.1743 -0.6495 -0.7179
12431TIP3   OH258783   3.625   0.914   1.434 -0.1727  1.1532  0.3169
12431TIP3    H158784   3.534   0.908   1.405  0.7079  0.3466 -2.6210
12431TIP3    H258785   3.625   0.983   1.500 -2.4203  3.5476 -1.9588
12432TIP3   OH258786   6.137   5.783   2.350 -0.6770 -0.2272  1.0322
12432TIP3    H158787   6.153   5.878   2.351  0.4909 -0.4099  1.6455
12432TIP3    H258788   6.126   5.760   2.442 -1.8028 -0.5748  0.8238
12433TIP3   OH258789   3.538   3.234  15.077 -0.7400  0.6167  0.1165
12433TIP3    H158790   3.527   3.180  14.999 -0.5593  1.3685 -0.4434
12433TIP3    H258791   3.550   3.171  15.149 -2.0540 -0.1134 -0.2615
12434TIP3   OH258792   1.787   2.449   3.715  0.4981  0.0389  0.5462
12434TIP3    H158793   1.811   2.541   3.706 -0.8095  0.4082  0.5789
12434TIP3    H258794   1.798   2.430   3.809 -0.0119  0.4035  0.6827
12435TIP3   OH258795   3.557   4.385  16.503  0.1240 -0.5516 -0.1841
12435TIP3    H158796   3.646   4.420  16.513 -0.6884  1.2107  1.5789
12435TIP3    H258797   3.518   4.438  16.435  1.4962 -3.8991 -3.9688
12436TIP3   OH258798   2.530   5.052  13.645 -0.0003 -0.1455  0.4350
12436TIP3    H158799   2.505   5.007  13.725  0.0624  0.3105  0.7149
12436TIP3    H258800   2.474   5.014  13.577 -0.0594 -0.5240  0.6967
12437TIP3   OH258801   1.916   0.419  11.313 -0.0544 -0.2110 -0.3338
12437TIP3    H158802   1.907   0.514  11.318  1.0843 -0.1020 -0.1761
12437TIP3    H258803   1.944   0.403  11.223 -1.7620 -0.5501 -0.8424
12438TIP3   OH258804   1.238   2.830  16.824 -0.4916  0.2744 -0.5040
12438TIP3    H158805   1.301   2.900  16.843  0.3378 -0.9112  1.4409
12438TIP3    H258806   1.218   2.793  16.910 -1.0609 -1.7297 -1.4652
12439TIP3   OH258807   4.277   3.317   0.083 -0.2400 -0.3256 -0.2930
12439TIP3    H158808   4.337   3.243   0.079 -0.5439 -0.6350  0.6045
12439TIP3    H258809   4.196   3.285   0.042 -0.6489 -0.7894  0.8231
12440TIP3   OH258810   4.795   0.442  13.367 -0.2152 -0.2742 -0.5634
12440TIP3    H158811   4.859   0.381  13.332 -0.1863  0.5702 -2.0504
12440TIP3    H258812   4.846   0.510  13.410 -0.0309  0.7983 -2.4007
12441TIP3   OH258813   2.699   0.429  12.366 -0.0445  0.0068  0.5665
12441TIP3    H158814   2.619   0.479  12.381  0.5338  0.5347  2.2211
12441TIP3    H258815   2.739   0.470  12.290 -0.5692  0.7859  0.6960
12442TIP3   OH258816   2.186   2.300   3.231  0.4790  0.3579  0.4416
12442TIP3    H158817   2.261   2.296   3.173  1.1707  1.6720  1.1955
12442TIP3    H258818   2.113   2.330   3.176  1.4407  3.0020  0.4721
12443TIP3   OH258819   2.344   3.249  14.403  0.4388  0.1168  0.1233
12443TIP3    H158820   2.361   3.178  14.466  2.0863  0.0405 -0.3446
12443TIP3    H258821   2.302   3.205  14.329  1.8420 -0.5212 -0.3507
12444TIP3   OH258822   3.879   0.817   5.047 -0.2610 -0.1723 -0.6863
12444TIP3    H158823   3.867   0.812   5.141 -1.3149  1.1408 -0.7099
12444TIP3    H258824   3.885   0.726   5.018  1.1065 -0.5793  0.7377
12445TIP3   OH258825   4.840   3.974  12.818  0.2042 -0.3175 -0.8594
12445TIP3    H158826   4.783   4.049  12.833  0.1671 -0.7795  1.7790
12445TIP3    H258827   4.795   3.923  12.751 -2.3678 -0.4569  0.8176
12446TIP3   OH258828   3.559   2.529  16.316  0.4070 -0.4511 -0.5924
12446TIP3    H158829   3.538   2.446  16.273  0.1989 -0.8394  0.2396
12446TIP3    H258830   3.513   2.525  16.400 -0.1930  0.8154 -0.8293
12447TIP3   OH258831   1.954   4.059   4.113 -0.4735 -0.6385 -0.6775
12447TIP3    H158832   1.944   3.964   4.117 -0.9088 -0.6390 -1.4540
12447TIP3    H258833   1.867   4.091   4.090 -0.8921  0.1561  1.8243
12448TIP3   OH258834   1.331   6.530  15.502  0.4211  0.2029 -0.1253
12448TIP3    H158835   1.381   6.500  15.578  0.5832  0.2897 -0.1959
12448TIP3    H258836   1.359   6.621  15.490  1.7542 -0.3318 -1.3782
12449TIP3   OH258837   4.780   5.001   0.023  0.3802  0.0591 -0.2287
12449TIP3    H158838   4.719   5.050   0.078  0.9655  2.3790 -1.5146
12449TIP3    H258839   4.724   4.941  -0.026 -0.4731 -0.0549  0.8275
12450TIP3   OH258840   6.179   5.994  12.669 -0.1238 -0.0245 -0.9396
12450TIP3    H158841   6.216   6.059  12.610 -1.7773  1.5857 -0.3036
12450TIP3    H258842   6.246   5.979  12.735 -0.3541  2.5321 -0.0079
12451TIP3   OH258843   3.978   2.543   3.354  0.2783 -0.4393 -0.7067
12451TIP3    H158844   3.942   2.629   3.377 -3.0210 -1.6304 -0.8272
12451TIP3    H258845   3.916   2.481   3.391  2.5674 -2.8348 -0.6271
12452TIP3   OH258846   2.614   0.841   6.399 -0.3378  0.1731 -0.3673
12452TIP3    H158847   2.700   0.827   6.358 -0.7142  0.7817 -1.3994
12452TIP3    H258848   2.621   0.925   6.443 -0.2991  0.0619 -0.1599
12453TIP3   OH258849   2.579   3.365  14.132  0.0941  0.0088 -0.3743
12453TIP3    H158850   2.554   3.283  14.089  0.4916  0.0074 -0.6081
12453TIP3    H258851   2.663   3.389  14.091 -0.3730  0.9210 -0.8422
12454TIP3   OH258852   6.770   1.823  16.520  0.3765  0.2639 -0.3626
12454TIP3    H158853   6.790   1.742  16.567 -1.7142 -1.5926 -2.4444
12454TIP3    H258854   6.832   1.825  16.447  0.0614  0.2255 -0.6344
12455TIP3   OH258855   5.244   2.846  10.980  0.1508  0.2565  0.2035
12455TIP3    H158856   5.253   2.823  11.073  1.1263  0.5437  0.1828
12455TIP3    H258857   5.149   2.853  10.967  0.0173  0.7304  1.3086
12456TIP3   OH258858   4.924   5.760  16.793  0.0906 -0.0993 -0.0012
12456TIP3    H158859   4.900   5.669  16.778  2.5405 -0.9645  0.8605
12456TIP3    H258860   4.844   5.800  16.828 -0.5731 -2.3559  1.2726
12457TIP3   OH258861   4.548   1.987  13.750  0.0796  0.1029  0.2481
12457TIP3    H158862   4.525   1.969  13.659  0.0357  0.1583  0.2484
12457TIP3    H258863   4.534   2.081  13.760 -3.5271 -0.4141  1.3488
12458TIP3   OH258864   6.316   2.088  16.673  0.4733 -0.1353 -0.2868
12458TIP3    H158865   6.403   2.128  16.684  0.4129 -0.2778  0.8678
12458TIP3    H258866   6.309   2.026  16.746  0.1302 -1.4931 -1.4325
12459TIP3   OH258867   6.069   3.538   4.102  0.2205  0.0355 -0.3554
12459TIP3    H158868   6.079   3.488   4.020  0.3474 -0.4914 -0.0265
12459TIP3    H258869   6.126   3.492   4.164 -0.4673 -0.0283  0.2380
12460TIP3   OH258870   1.753   0.437  16.339  0.0638 -0.4306  0.6627
12460TIP3    H158871   1.833   0.401  16.301  1.4308  1.1421  1.9287
12460TIP3    H258872   1.747   0.397  16.425  0.4486  0.7292  1.2472
12461TIP3   OH258873   6.419   2.620   2.081 -0.0847  0.1564 -0.0420
12461TIP3    H158874   6.375   2.593   2.000 -0.5145  0.5305  0.0600
12461TIP3    H258875   6.470   2.543   2.108 -1.9217 -0.8934  0.6860
12462TIP3   OH258876   3.789   0.275  14.954  0.0698  0.1795  0.6802
12462TIP3    H158877   3.835   0.255  14.873  0.9660  0.2508  1.1613
12462TIP3    H258878   3.845   0.338  14.999  0.9598 -1.8181  2.5782
12463TIP3   OH258879   2.932   2.770   2.842  0.0445 -0.3688 -0.1629
12463TIP3    H158880   2.866   2.821   2.794 -2.1422 -2.3001  0.5830
12463TIP3    H258881   2.922   2.798   2.933  0.5394 -0.3922 -0.1022
12464TIP3   OH258882   6.213   5.800  13.432 -0.5384 -0.4140 -0.1489
12464TIP3    H158883   6.124   5.835  13.432 -0.3443  0.1246  0.9366
12464TIP3    H258884   6.225   5.764  13.344 -1.9152 -0.7339 -0.2229
12465TIP3   OH258885   2.371   4.243  11.178 -0.3539 -0.5290  0.7483
12465TIP3    H158886   2.427   4.264  11.254 -0.1005  0.6173  0.2739
12465TIP3    H258887   2.370   4.324  11.127 -1.9645 -0.7273  0.4255
12466TIP3   OH258888   5.366   4.336   4.336 -0.9650 -0.1843  0.4196
12466TIP3    H158889   5.454   4.371   4.352  0.0539 -2.8737  1.2951
12466TIP3    H258890   5.311   4.379   4.401 -0.7500  2.7610 -1.1731
12467TIP3   OH258891   2.287   2.958  16.797  0.0931  0.0984 -0.3646
12467TIP3    H158892   2.242   2.890  16.746 -0.1720  1.3047 -1.8352
12467TIP3    H258893   2.379   2.949  16.773  0.3938 -1.0871  1.1091
12468TIP3   OH258894   4.807   5.949   2.124  0.4741 -0.2489 -0.8951
12468TIP3    H158895   4.718   5.914   2.118 -0.0799  0.8697  0.3398
12468TIP3    H258896   4.799   6.042   2.102  1.0083  0.2647  0.8564
12469TIP3   OH258897   2.289   1.489   2.478 -0.5519  0.3742  1.0737
12469TIP3    H158898   2.213   1.539   2.510 -0.6295  1.1806 -0.2999
12469TIP3    H258899   2.271   1.399   2.504 -1.8442  0.6073  1.0483
12470TIP3   OH258900   4.913   6.069   1.700  0.3417  0.2326  0.1133
12470TIP3    H158901   4.953   6.144   1.657  0.8202 -1.1928 -2.0465
12470TIP3    H258902   4.819   6.079   1.684  0.4468  0.1422 -0.5744
12471TIP3   OH258903   1.431   4.673   4.062 -0.2671  0.5397  0.1257
12471TIP3    H158904   1.486   4.613   4.111 -1.8492 -1.1112 -0.0018
12471TIP3    H258905   1.492   4.727   4.012  1.2285 -0.6247  0.6409
12472TIP3   OH258906   5.958   6.516   2.619 -0.0063 -0.3143 -0.1557
12472TIP3    H158907   5.902   6.520   2.697  0.1746 -1.0189  0.0239
12472TIP3    H258908   6.047   6.519   2.654  0.0730  0.5416 -0.4218
12473TIP3   OH258909   5.624   6.101   2.229  0.0771  0.2576 -0.0290
12473TIP3    H158910   5.685   6.088   2.156  0.8291  1.0079  0.4501
12473TIP3    H258911   5.585   6.187   2.214  0.1542  0.3709  0.3969
12474TIP3   OH258912   6.618   3.612  14.303  0.2525 -0.0443  0.4479
12474TIP3    H158913   6.639   3.526  14.266  1.3837 -0.3129  1.6295
12474TIP3    H258914   6.690   3.630  14.363  0.1563  1.8612  0.0461
12475TIP3   OH258915   5.169   2.824  11.441  0.0839 -0.4341 -0.5652
12475TIP3    H158916   5.242   2.805  11.500 -0.2013  0.7113  0.2018
12475TIP3    H258917   5.103   2.758  11.461 -0.0623  0.0196  0.5287
12476TIP3   OH258918   2.041   3.322  12.340 -0.0949  0.5114  0.1610
12476TIP3    H158919   2.044   3.395  12.402 -0.5049 -0.6957  1.6275
12476TIP3    H258920   1.982   3.258  12.379 -0.8378 -0.0624 -1.7495
12477TIP3   OH258921   1.845   4.497  15.867 -0.7825  0.3615 -0.1033
12477TIP3    H158922   1.757   4.491  15.904 -0.5486  0.7049  0.5223
12477TIP3    H258923   1.897   4.436  15.918 -0.6811  0.0666 -0.5547
12478TIP3   OH258924   6.557   4.415   2.483 -0.0840 -0.0639  0.1009
12478TIP3    H158925   6.495   4.473   2.440  2.9478  2.1439 -1.7656
12478TIP3    H258926   6.572   4.455   2.569 -2.1672 -1.4415  1.1868
12479TIP3   OH258927   0.297   5.250   4.272 -0.5804 -0.7504 -0.0300
12479TIP3    H158928   0.391   5.243   4.288  0.1365  0.2259 -3.2142
12479TIP3    H258929   0.275   5.340   4.297 -0.2635 -0.4110 -0.9438
12480TIP3   OH258930   1.159   5.079   2.378 -0.2933 -1.0596 -0.0257
12480TIP3    H158931   1.124   5.167   2.366 -0.3366 -1.1131 -0.2891
12480TIP3    H258932   1.200   5.082   2.465  0.0903 -0.6495 -0.2109
12481TIP3   OH258933   5.431   5.027   6.449  0.5367  0.1910 -0.3487
12481TIP3    H158934   5.410   4.937   6.424  1.2295 -0.1199  0.1847
12481TIP3    H258935   5.358   5.053   6.506  1.3731 -0.7690  1.2182
12482TIP3   OH258936   3.351   4.558   2.488  0.4267  0.3479 -0.2228
12482TIP3    H158937   3.326   4.535   2.398 -0.2871 -1.4989  0.3938
12482TIP3    H258938   3.330   4.651   2.496 -1.9717 -0.0420 -1.1943
12483TIP3   OH258939   5.997   6.261  13.096  0.4351 -0.3826 -0.3961
12483TIP3    H158940   5.987   6.346  13.139  1.9955 -0.4626  0.2128
12483TIP3    H258941   5.939   6.264  13.020 -1.0915  0.4232  0.7663
12484TIP3   OH258942   6.812   3.684  14.466 -0.3393 -0.5772 -0.1324
12484TIP3    H158943   6.789   3.776  14.475  0.8957 -0.3173  0.5967
12484TIP3    H258944   6.881   3.670  14.531  0.7050 -1.5898 -1.3880
12485TIP3   OH258945   3.632   2.209  11.716  0.2645  0.4838 -0.0583
12485TIP3    H158946   3.587   2.147  11.774  1.2111 -0.6285 -0.4704
12485TIP3    H258947   3.628   2.168  11.630 -0.4774  1.7692 -0.6506
12486TIP3   OH258948   5.257   4.819   0.288  0.9967 -0.1822 -0.2729
12486TIP3    H158949   5.165   4.794   0.290  0.5991  1.2105  0.0109
12486TIP3    H258950   5.298   4.766   0.357 -0.4017  2.0295  2.4849
12487TIP3   OH258951   2.790   5.623  14.579 -0.5159  0.6357  0.1193
12487TIP3    H158952   2.767   5.700  14.631  1.5868  0.5128  1.3558
12487TIP3    H258953   2.875   5.645  14.540 -0.2996 -0.7315 -0.2264
12488TIP3   OH258954   2.678   1.783  14.633 -0.3460 -0.1505  0.0728
12488TIP3    H158955   2.583   1.773  14.626 -0.3974  0.4724 -0.1934
12488TIP3    H258956   2.695   1.873  14.606  0.3832 -0.4156 -0.3824
12489TIP3   OH258957   1.045   5.030   0.728 -0.0236 -0.0246  0.4589
12489TIP3    H158958   1.132   5.030   0.686 -0.4165 -0.1867 -0.3875
12489TIP3    H258959   1.062   5.005   0.818  0.8544  0.2767  0.3931
12490TIP3   OH258960   2.483   0.881  12.053 -0.1413 -0.0517  0.2849
12490TIP3    H158961   2.458   0.962  12.009  1.4289  1.2503  1.6415
12490TIP3    H258962   2.502   0.820  11.983 -4.0812 -0.2689 -0.8250
12491TIP3   OH258963   3.952   5.395  14.999  0.6919  0.3067  0.2886
12491TIP3    H158964   3.881   5.456  15.021 -2.5541 -2.5236 -1.3806
12491TIP3    H258965   3.970   5.350  15.081  0.5732  1.0643  0.7443
12492TIP3   OH258966   1.851   4.094  14.335 -0.0677  0.0787 -0.2211
12492TIP3    H158967   1.808   4.010  14.348 -2.0929  0.7713 -1.9846
12492TIP3    H258968   1.805   4.154  14.393  0.0268  0.3830 -0.4565
12493TIP3   OH258969   5.066   3.669   6.363 -0.0268 -0.4777  0.1259
12493TIP3    H158970   5.106   3.616   6.294  0.5184 -2.5964  1.9489
12493TIP3    H258971   5.093   3.758   6.343 -0.1332 -0.9529 -2.5166
12494TIP3   OH258972   4.982   2.427   2.020  0.1344 -0.2726 -0.3597
12494TIP3    H158973   4.898   2.439   2.065 -0.2790 -1.7549 -0.6601
12494TIP3    H258974   5.009   2.338   2.043  0.1868 -0.8803 -2.4970
12495TIP3   OH258975   3.020   4.543   0.511  0.0443 -0.5612  0.1781
12495TIP3    H158976   2.974   4.621   0.543 -0.4041 -1.2756  1.3259
12495TIP3    H258977   3.106   4.576   0.485  0.3755  0.1207  1.9710
12496TIP3   OH258978   2.398   1.599  16.985  0.1442 -0.3905 -0.1350
12496TIP3    H158979   2.337   1.567  17.052  0.1367 -1.0674 -0.4544
12496TIP3    H258980   2.421   1.688  17.013  0.5230 -0.8390  1.0379
12497TIP3   OH258981   4.715   3.703  16.810 -0.2078  0.0349  0.4649
12497TIP3    H158982   4.808   3.699  16.786  0.3029  3.7133  1.2899
12497TIP3    H258983   4.714   3.680  16.903  0.1070  1.1911  0.7707
12498TIP3   OH258984   5.002   4.166  11.252  1.3051  0.1619  0.1527
12498TIP3    H158985   4.967   4.222  11.321  0.9172  1.2891 -0.9228
12498TIP3    H258986   5.065   4.221  11.205  2.3025 -0.8903  0.1887
12499TIP3   OH258987   0.082   5.462  15.279  0.0939 -0.8382  0.7234
12499TIP3    H158988   0.167   5.486  15.317 -0.3403  0.9049  0.6694
12499TIP3    H258989   0.097   5.460  15.185 -0.5229  2.4247  0.4513
12500TIP3   OH258990   4.981   4.727   5.427  0.5626  0.4951  0.1906
12500TIP3    H158991   5.046   4.748   5.360  0.7774  0.6598  0.4514
12500TIP3    H258992   4.977   4.632   5.426 -1.5667  0.5010 -2.1123
12501TIP3   OH258993   5.339   2.888   6.039  0.4387  0.4711 -0.4225
12501TIP3    H158994   5.307   2.841   6.116  0.3351 -0.7380 -1.1570
12501TIP3    H258995   5.321   2.980   6.057  1.0541  0.2973  1.2829
12502TIP3   OH258996   4.836   1.272   3.037  0.2863  0.4784 -0.0501
12502TIP3    H158997   4.778   1.325   2.983 -2.1759 -0.0306  1.9125
12502TIP3    H258998   4.882   1.335   3.093  0.8861  0.8088 -0.8955
12503TIP3   OH258999   2.407   4.176  15.032 -0.1208  0.2554 -0.1006
12503TIP3    H159000   2.351   4.208  14.960 -0.4917 -0.5032 -0.1584
12503TIP3    H259001   2.450   4.255  15.065 -0.5438  0.7275 -0.6451
12504TIP3   OH259002   6.586   2.461  13.328 -0.4351  0.1988  0.9531
12504TIP3    H159003   6.505   2.415  13.310 -0.8375  1.9234 -2.4493
12504TIP3    H259004   6.654   2.410  13.284 -0.0738  0.1712  1.5270
12505TIP3   OH259005   2.745   5.624  13.077 -0.3867 -0.0424  0.1751
12505TIP3    H159006   2.822   5.650  13.128  0.0929  0.6388 -0.8692
12505TIP3    H259007   2.674   5.677  13.112  0.4481  2.3272 -1.4914
12506TIP3   OH259008   3.893   3.951  12.325 -0.1173  0.7555 -0.1949
12506TIP3    H159009   3.891   4.047  12.326  1.3300  0.8680 -2.1574
12506TIP3    H259010   3.976   3.929  12.283  0.0550 -1.4091  1.1431
12507TIP3   OH259011   2.777   3.114  11.773 -0.3433  0.3836  0.2977
12507TIP3    H159012   2.787   3.104  11.679 -1.3989  0.6794  0.1402
12507TIP3    H259013   2.866   3.119  11.807  0.0373  1.0098 -0.7685
12508TIP3   OH259014   5.181   4.656  16.577 -0.0990 -0.3545  0.1161
12508TIP3    H159015   5.109   4.704  16.618 -0.2490  0.9590 -1.5800
12508TIP3    H259016   5.138   4.592  16.520  0.1059 -1.0471  0.7203
12509TIP3   OH259017   5.177   4.330   2.080  0.5086  0.1679 -0.0433
12509TIP3    H159018   5.173   4.419   2.046  1.7894 -0.2046 -1.2324
12509TIP3    H259019   5.239   4.284   2.023 -1.0941 -1.8639 -0.2891
12510TIP3   OH259020   1.496   6.240   5.265  0.3798 -0.1253 -0.2974
12510TIP3    H159021   1.440   6.310   5.230 -0.7149 -0.9532 -0.2360
12510TIP3    H259022   1.488   6.247   5.360 -0.1805 -0.6898 -0.3019
12511TIP3   OH259023   0.640   6.603  14.253  0.5218 -0.7411 -0.4031
12511TIP3    H159024   0.700   6.626  14.183  1.0468 -2.6088 -0.6121
12511TIP3    H259025   0.573   6.549  14.211  0.1284 -0.8167  0.3052
12512TIP3   OH259026   6.745   5.869   0.956 -0.0445 -0.0933 -0.2482
12512TIP3    H159027   6.667   5.820   0.931 -0.5401  0.3101  0.4720
12512TIP3    H259028   6.713   5.957   0.974  0.4917 -0.0418  0.5120
12513TIP3   OH259029   3.114   6.748   4.965  0.1827 -0.4248 -0.3407
12513TIP3    H159030   3.058   6.671   4.967 -1.0134  0.4167  0.3321
12513TIP3    H259031   3.069   6.812   5.021 -0.1561  1.6173 -2.7479
12514TIP3   OH259032   6.307   5.894   4.005  0.1029 -0.2202  0.2797
12514TIP3    H159033   6.251   5.818   4.018  0.0708  0.0822  2.2664
12514TIP3    H259034   6.354   5.904   4.088 -0.0971  2.0637  0.1771
12515TIP3   OH259035   2.116   0.147  15.304 -0.1642 -0.0727 -0.5996
12515TIP3    H159036   2.083   0.111  15.221  0.7124  0.1371 -1.0496
12515TIP3    H259037   2.043   0.200  15.337 -0.3556  0.2455 -1.4906
12516TIP3   OH259038   2.086   1.331  13.679  0.6012 -0.2566  0.8805
12516TIP3    H159039   2.058   1.398  13.740 -0.4951 -0.1624  0.2933
12516TIP3    H259040   2.091   1.376  13.594 -1.0705 -1.0919  0.2963
12517TIP3   OH259041   5.184   2.988   1.322  0.3768 -0.2480  0.4007
12517TIP3    H159042   5.223   3.028   1.400 -0.1513 -0.6089  0.8626
12517TIP3    H259043   5.154   2.902   1.352 -2.2516  0.6094  0.5541
12518TIP3   OH259044   5.352   2.750  16.568  0.5852  0.3406 -0.3305
12518TIP3    H159045   5.336   2.668  16.521 -1.1462 -0.5626  1.7016
12518TIP3    H259046   5.265   2.786  16.586  0.9857 -0.0653  3.2474
12519TIP3   OH259047   1.175   5.476   2.278  0.5305  0.1641  0.0098
12519TIP3    H159048   1.249   5.527   2.244 -1.0884  1.7490 -1.3497
12519TIP3    H259049   1.147   5.524   2.356  0.7547 -0.2899  0.3748
12520TIP3   OH259050   1.551   2.997  15.232  0.2132 -0.0023 -0.0556
12520TIP3    H159051   1.538   2.902  15.231  0.4999 -0.0969  1.6401
12520TIP3    H259052   1.627   3.011  15.176 -1.0118 -0.5206 -1.9504
12521TIP3   OH259053   2.249   4.019  11.283  0.3405 -0.5979 -0.0071
12521TIP3    H159054   2.217   4.035  11.372  0.1695  0.8641 -0.3032
12521TIP3    H259055   2.290   4.102  11.257 -0.7166 -0.5650 -1.7485
12522TIP3   OH259056   5.762   3.932   4.915  0.4700  0.7559 -0.3848
12522TIP3    H159057   5.816   3.935   4.836  0.8609  1.9526 -0.0834
12522TIP3    H259058   5.695   3.999   4.901 -0.1315  0.2079 -0.1693
12523TIP3   OH259059   1.599   6.658  15.419 -0.0099  0.4262 -0.1738
12523TIP3    H159060   1.627   6.594  15.353  1.2462  1.8404 -1.0782
12523TIP3    H259061   1.680   6.684  15.463 -0.4046  1.7724 -0.2034
12524TIP3   OH259062   0.401   1.964  11.769 -0.4501 -0.1982  0.2787
12524TIP3    H159063   0.417   1.909  11.692  3.0628 -0.0204  0.7436
12524TIP3    H259064   0.373   1.902  11.836 -0.3426 -0.8348 -0.2504
12525TIP3   OH259065   0.150   2.722  12.545 -0.7634  0.0906  0.0323
12525TIP3    H159066   0.213   2.677  12.489 -1.1892  0.3524 -0.6738
12525TIP3    H259067   0.172   2.815  12.536  0.3720  0.0489  1.7948
12526TIP3   OH259068   3.131   3.562   0.343  0.6575  0.2756  0.3398
12526TIP3    H159069   3.056   3.573   0.285  0.2297  2.2846  1.1840
12526TIP3    H259070   3.095   3.520   0.422  0.7801 -0.2830  0.1082
12527TIP3   OH259071   4.968   2.603  15.746 -0.1285 -0.0662  0.0416
12527TIP3    H159072   4.961   2.552  15.665 -1.7945  0.0054  0.1075
12527TIP3    H259073   5.062   2.613  15.760  0.2117 -1.6583 -0.8890
12528TIP3   OH259074   3.388   1.585  13.791 -0.0353  0.0202 -0.5190
12528TIP3    H159075   3.358   1.672  13.815 -1.8140 -0.4495 -0.9040
12528TIP3    H259076   3.448   1.560  13.861 -0.2786  1.1398  0.1123
12529TIP3   OH259077   6.017   1.950   3.666  0.0246 -0.3809 -0.2461
12529TIP3    H159078   6.031   1.863   3.702  0.6197  0.7102  2.4320
12529TIP3    H259079   5.985   2.001   3.740 -1.6464  1.3890 -2.0538
12530TIP3   OH259080   1.899   5.022   4.659  0.1722 -0.0122  0.4129
12530TIP3    H159081   1.838   4.994   4.728 -0.0772 -3.0935 -0.8687
12530TIP3    H259082   1.843   5.061   4.592 -0.1182 -0.5444  0.3333
12531TIP3   OH259083   6.376   2.627  13.957 -0.2604 -0.3367 -0.3019
12531TIP3    H159084   6.347   2.688  14.025 -0.0556 -1.0719  0.4580
12531TIP3    H259085   6.345   2.541  13.987  1.8589 -1.0216  0.0808
12532TIP3   OH259086   1.386   2.229   0.032  0.7618 -0.3618  0.6836
12532TIP3    H159087   1.340   2.223   0.116 -0.3370 -0.4613  0.0857
12532TIP3    H259088   1.372   2.144  -0.010  0.8554 -0.1333  0.1788
12533TIP3   OH259089   4.334   4.214   5.178 -0.4361 -0.0216  0.0307
12533TIP3    H159090   4.328   4.162   5.258 -1.2168 -0.6126 -0.4008
12533TIP3    H259091   4.250   4.260   5.173 -1.0623 -1.2364 -1.2766
12534TIP3   OH259092   4.785   1.743  14.484  0.2770 -0.4244  0.2236
12534TIP3    H159093   4.718   1.812  14.480  0.1229 -0.6430 -1.3519
12534TIP3    H259094   4.743   1.672  14.531 -0.0579  0.0175  0.6022
12535TIP3   OH259095   1.449   3.097   1.622  0.0851  0.5054  0.3511
12535TIP3    H159096   1.444   3.191   1.604 -0.2960  0.3081 -0.6756
12535TIP3    H259097   1.393   3.083   1.698 -0.0198  1.0831  0.3819
12536TIP3   OH259098   1.647   5.091   3.381  0.1372 -0.4574 -0.3481
12536TIP3    H159099   1.722   5.148   3.364 -0.2827 -0.3823 -2.1488
12536TIP3    H259100   1.685   5.012   3.421  1.4226 -1.0287 -2.5264
12537TIP3   OH259101   4.553   5.064   3.450 -0.5122 -0.2548  0.2306
12537TIP3    H159102   4.513   5.105   3.527 -1.5486 -1.7769  0.5607
12537TIP3    H259103   4.559   5.134   3.386  1.2162  1.2937  1.9564
12538TIP3   OH259104   1.465   0.245  13.370 -0.0305  0.2450  0.1672
12538TIP3    H159105   1.414   0.326  13.361  0.4610  0.6446  0.8607
12538TIP3    H259106   1.419   0.195  13.437 -0.3328 -0.0569 -0.2602
12539TIP3   OH259107   2.550   3.767   5.602 -0.0742  0.8495  0.5154
12539TIP3    H159108   2.574   3.678   5.624 -1.1394  0.8037  1.6518
12539TIP3    H259109   2.456   3.763   5.582 -0.1521  1.7108  0.6343
12540TIP3   OH259110   0.983   4.924  16.404 -0.9315 -0.3927  0.5015
12540TIP3    H159111   1.005   4.893  16.317 -0.2022  1.8907 -0.1884
12540TIP3    H259112   0.934   5.005  16.390  1.1142  1.2766  2.1526
12541TIP3   OH259113   0.050   3.147  11.671 -0.2787  0.3815 -0.2590
12541TIP3    H159114  -0.027   3.133  11.616  0.3763  0.4809 -1.2235
12541TIP3    H259115   0.108   3.073  11.650  1.1119  1.8136 -1.7120
12542TIP3   OH259116   0.451   4.010  13.148 -0.1033  0.0584 -0.3240
12542TIP3    H159117   0.538   4.019  13.187  0.2855 -0.3088 -1.1003
12542TIP3    H259118   0.393   3.996  13.223  0.3971  1.0068  0.2596
12543TIP3   OH259119   2.443   5.214   5.700  0.8736  0.1342  0.3434
12543TIP3    H159120   2.412   5.304   5.703 -0.5800 -0.1417 -2.6961
12543TIP3    H259121   2.464   5.192   5.790 -1.0620  2.7212  1.5193
12544TIP3   OH259122   0.840   0.698   6.000  0.0798  0.2963 -0.0929
12544TIP3    H159123   0.805   0.636   6.064  0.1634 -0.4465 -0.7580
12544TIP3    H259124   0.768   0.758   5.983 -0.1225  0.1632  0.2803
12545TIP3   OH259125   3.069   6.472   1.374  0.6513 -0.2038 -0.2356
12545TIP3    H159126   3.155   6.487   1.333 -0.0414  2.0934 -1.0333
12545TIP3    H259127   3.031   6.560   1.381 -1.1940 -1.0516  1.1366
12546TIP3   OH259128   4.359   6.321  13.665  0.1547  0.2941 -0.3419
12546TIP3    H159129   4.283   6.275  13.630  0.7228 -1.7000  0.8598
12546TIP3    H259130   4.322   6.384  13.727 -0.5778 -1.1500  0.7851
12547TIP3   OH259131   3.264   3.033   1.359 -0.0861  0.7572  0.2780
12547TIP3    H159132   3.305   2.949   1.379  1.3425  1.3937  0.1463
12547TIP3    H259133   3.180   3.030   1.404 -0.5390 -1.1447 -0.5554
12548TIP3   OH259134   4.580   4.371   1.578 -0.4965 -0.3321  0.1755
12548TIP3    H159135   4.673   4.357   1.562 -0.4217 -0.0315  0.3419
12548TIP3    H259136   4.539   4.288   1.555 -0.1070 -0.6909  0.7616
12549TIP3   OH259137   3.759   5.535   6.589 -0.1754 -0.7001  0.0803
12549TIP3    H159138   3.836   5.534   6.533 -0.0563 -1.0372  0.2446
12549TIP3    H259139   3.794   5.543   6.678 -0.4578  2.8075 -0.0172
12550TIP3   OH259140   0.596   5.005  16.157 -0.4827 -0.3805 -0.2925
12550TIP3    H159141   0.691   4.998  16.143 -0.2046  2.5001 -0.4798
12550TIP3    H259142   0.560   4.928  16.113  1.6161 -0.3316 -2.3270
12551TIP3   OH259143   2.203   2.224  13.701  0.9514  0.0809 -0.0922
12551TIP3    H159144   2.150   2.152  13.735 -1.3640  1.3709 -0.6978
12551TIP3    H259145   2.231   2.272  13.778 -2.7501  1.9680  0.2844
12552TIP3   OH259146   5.768   4.766  11.836 -0.0429 -0.2046 -0.3761
12552TIP3    H159147   5.701   4.714  11.790  1.2749 -1.8851 -0.4912
12552TIP3    H259148   5.775   4.725  11.922  1.6807 -0.8829 -0.7965
12553TIP3   OH259149   0.664   0.722  14.857 -0.3254  0.8910 -1.0611
12553TIP3    H159150   0.597   0.657  14.875 -0.2220  0.6561 -1.5121
12553TIP3    H259151   0.675   0.720  14.762  2.7234 -1.5713 -0.8374
12554TIP3   OH259152   3.886   4.978  15.784 -0.3417 -0.1373  0.0003
12554TIP3    H159153   3.899   4.949  15.694 -1.6540 -3.5835  0.7460
12554TIP3    H259154   3.817   5.044  15.778  0.4904  0.6559 -1.5735
12555TIP3   OH259155   1.267   0.076  15.447  0.3788 -0.3597  0.2388
12555TIP3    H159156   1.229   0.076  15.359  1.6447  0.7989 -0.3407
12555TIP3    H259157   1.236   0.158  15.487  2.9361  1.1279 -0.6100
12556TIP3   OH259158   1.539   6.372  14.541  0.1238  0.3973  0.4184
12556TIP3    H159159   1.565   6.288  14.505 -1.1509 -0.7821  2.0718
12556TIP3    H259160   1.614   6.429  14.527  0.7837 -0.7997 -1.3086
12557TIP3   OH259161   1.364   0.549  15.941 -0.2383  0.5401 -0.1956
12557TIP3    H159162   1.429   0.596  15.995 -1.4689  1.8498  0.1970
12557TIP3    H259163   1.378   0.457  15.963  2.3713  0.6224 -1.1256
12558TIP3   OH259164   1.068   5.526   1.883  0.0497 -0.0603  0.1939
12558TIP3    H159165   1.007   5.465   1.925 -1.7915  2.0165  0.7052
12558TIP3    H259166   1.098   5.480   1.805 -3.3045 -0.7056 -0.8792
12559TIP3   OH259167   1.611   3.902  14.044  0.1227  0.7033 -0.1805
12559TIP3    H159168   1.553   3.976  14.058 -0.5766  0.2907 -0.8363
12559TIP3    H259169   1.662   3.925  13.967  0.8835  1.0816  0.4155
12560TIP3   OH259170   6.261   2.116   6.226  0.2274  0.0883 -0.5322
12560TIP3    H159171   6.264   2.120   6.321 -0.8767 -0.6085 -0.4582
12560TIP3    H259172   6.286   2.204   6.197 -2.0122  1.1162  0.4709
12561TIP3   OH259173   4.536   0.453  15.667 -0.4690  0.5879  0.2233
12561TIP3    H159174   4.474   0.471  15.596 -1.4108 -0.1992  0.8289
12561TIP3    H259175   4.587   0.533  15.675 -2.8190  2.0923  1.1316
12562TIP3   OH259176   4.360   1.428   3.270  0.1490  0.4162 -0.5471
12562TIP3    H159177   4.434   1.375   3.241  1.5798  0.8390  2.0041
12562TIP3    H259178   4.293   1.364   3.293  1.5949 -0.3976  1.8118
12563TIP3   OH259179   3.176   0.730   0.470 -0.3757 -0.0700  0.2341
12563TIP3    H159180   3.126   0.793   0.417  0.6730  0.1362 -0.5507
12563TIP3    H259181   3.125   0.720   0.550 -2.1843 -0.6081 -0.9155
12564TIP3   OH259182   3.751   5.543  14.381  0.1217  0.1072  0.0524
12564TIP3    H159183   3.677   5.581  14.429  1.2764  2.1951  0.2906
12564TIP3    H259184   3.815   5.521  14.448 -0.3229 -1.9288 -0.1298
12565TIP3   OH259185   2.645   1.430  13.264 -0.1233 -0.7737  0.4040
12565TIP3    H159186   2.595   1.481  13.200 -1.1242  1.5403  2.8720
12565TIP3    H259187   2.622   1.339  13.244 -0.5310 -0.1651 -2.3442
12566TIP3   OH259188   2.482   1.218  15.835 -0.1708 -0.5890  0.5010
12566TIP3    H159189   2.533   1.297  15.855  0.8055 -0.5979 -1.6764
12566TIP3    H259190   2.527   1.148  15.882 -0.0816 -0.0967  1.1548
12567TIP3   OH259191   2.063   4.400  14.910  0.0554  0.0603 -0.1089
12567TIP3    H159192   2.090   4.439  14.994 -0.1201  2.8460 -1.2284
12567TIP3    H259193   1.982   4.353  14.931 -0.2924  1.1665  1.2155
12568TIP3   OH259194   1.540   1.891   3.139  0.3263 -0.3077  0.1073
12568TIP3    H159195   1.543   1.880   3.234 -2.2622  0.7650  0.3815
12568TIP3    H259196   1.522   1.984   3.125  2.1462 -0.1141 -1.5362
12569TIP3   OH259197   5.062   4.038   1.849 -0.0486 -0.2870 -0.9103
12569TIP3    H159198   5.037   3.972   1.785  0.8995  2.5159 -4.4504
12569TIP3    H259199   4.986   4.096   1.855  0.5962  0.5906 -1.0532
12570TIP3   OH259200   0.189   6.076  11.297 -0.1861  0.1714  0.0122
12570TIP3    H159201   0.268   6.046  11.252  0.6759  1.8541  0.3136
12570TIP3    H259202   0.221   6.112  11.380 -1.5001 -0.8713  1.0292
12571TIP3   OH259203   2.380   0.082  15.173  0.1608 -0.6366  0.7749
12571TIP3    H159204   2.449   0.093  15.107  0.9412 -0.6986  1.5650
12571TIP3    H259205   2.299   0.097  15.125  0.6588 -1.5578 -0.3932
12572TIP3   OH259206   5.731   2.947  10.953 -0.1392 -0.1539  0.1402
12572TIP3    H159207   5.642   2.966  10.924 -0.6303 -0.0037  1.6600
12572TIP3    H259208   5.730   2.853  10.971 -0.4975  0.1121  1.6918
12573TIP3   OH259209   6.578   5.243  11.941 -0.5105 -0.2705 -0.0163
12573TIP3    H159210   6.515   5.172  11.956 -1.8255  0.8983  0.2842
12573TIP3    H259211   6.593   5.280  12.029 -2.9170  2.2525 -0.5113
12574TIP3   OH259212   1.223   2.180   2.762  0.0136  0.2929 -0.2753
12574TIP3    H159213   1.230   2.154   2.854 -1.7928  1.1936  0.1686
12574TIP3    H259214   1.168   2.113   2.722  0.5610  0.0571 -0.6480
12575TIP3   OH259215   1.968   1.410   5.635  0.6346 -0.1518  0.1517
12575TIP3    H159216   2.016   1.336   5.672 -1.4319 -1.3800  0.5113
12575TIP3    H259217   1.939   1.460   5.710  1.2654  0.5507 -0.0621
12576TIP3   OH259218   2.729   0.987   5.734  0.1301  0.8228 -0.3531
12576TIP3    H159219   2.731   1.012   5.642  1.6245  1.9588 -0.0395
12576TIP3    H259220   2.667   1.049   5.774 -1.7996 -0.6939 -0.8173
12577TIP3   OH259221   6.733   6.214  13.627 -0.2995 -0.2515  0.1086
12577TIP3    H159222   6.639   6.201  13.635 -0.3242  0.2593  0.7274
12577TIP3    H259223   6.743   6.280  13.558 -0.4251  0.0765  0.4022
12578TIP3   OH259224   1.223   0.305   1.243 -0.0915  0.2156 -0.6504
12578TIP3    H159225   1.311   0.286   1.274  0.2279  0.2954 -1.5094
12578TIP3    H259226   1.167   0.247   1.295  0.1706  2.0102  1.8084
12579TIP3   OH259227   3.616   2.989  11.122 -0.4689  0.1528  0.1109
12579TIP3    H159228   3.711   2.997  11.129 -0.3676 -0.9046  0.0194
12579TIP3    H259229   3.598   2.993  11.028 -0.5254  0.3798  0.1297
12580TIP3   OH259230   4.349   2.250  11.783  0.3108 -0.1578  0.4944
12580TIP3    H159231   4.350   2.183  11.851 -0.0305  1.2318  1.9024
12580TIP3    H259232   4.423   2.306  11.803 -1.0674  1.5390  1.0555
12581TIP3   OH259233   4.275   2.705   4.677 -0.6521 -0.4469 -0.3713
12581TIP3    H159234   4.210   2.663   4.620 -0.8188 -0.3701 -0.2403
12581TIP3    H259235   4.222   2.757   4.738 -0.4967 -0.8711  0.1289
12582TIP3   OH259236   2.794   1.687  15.499 -0.0492 -0.3702 -0.1405
12582TIP3    H159237   2.753   1.612  15.542 -0.3991  1.2892  2.6790
12582TIP3    H259238   2.885   1.684  15.526  0.0058  0.0694 -0.2683
12583TIP3   OH259239   0.706   4.004  12.840  0.6156 -0.3320  0.1575
12583TIP3    H159240   0.686   3.910  12.847 -0.1105 -0.5368 -3.0078
12583TIP3    H259241   0.788   4.007  12.791 -0.2122  0.6548 -1.2183
12584TIP3   OH259242   5.875   1.798   3.218  0.6053 -0.4035 -0.2216
12584TIP3    H159243   5.960   1.838   3.237 -0.9565  2.2664  1.8331
12584TIP3    H259244   5.829   1.798   3.301 -2.2079  0.2479 -1.6676
12585TIP3   OH259245   1.212   0.986   5.535  0.2370 -0.1736 -0.0180
12585TIP3    H159246   1.117   0.976   5.531  0.2311  0.1306 -0.6800
12585TIP3    H259247   1.238   1.008   5.446  1.4623 -4.7616 -1.0795
12586TIP3   OH259248   2.820   0.716   2.228 -0.3504 -0.3909 -0.0173
12586TIP3    H159249   2.775   0.785   2.276 -1.0694 -1.8486  1.5276
12586TIP3    H259250   2.908   0.713   2.267  0.5526  1.1967 -1.7505
12587TIP3   OH259251   0.845   4.621  11.351 -0.0283 -0.3674  0.3831
12587TIP3    H159252   0.820   4.528  11.344 -1.2832 -0.1388  1.4094
12587TIP3    H259253   0.798   4.652  11.429  1.2599  0.8610  0.6960
12588TIP3   OH259254   5.893   0.964  10.623  0.2865  0.0916 -0.1048
12588TIP3    H159255   5.868   1.029  10.557  1.7716  2.3948  1.4441
12588TIP3    H259256   5.850   0.994  10.703 -1.4076 -2.5943  0.1040
12589TIP3   OH259257   4.703   1.841   1.910  0.2226 -0.7957  0.1687
12589TIP3    H159258   4.679   1.931   1.932  1.6741  0.0560 -1.4601
12589TIP3    H259259   4.622   1.801   1.880 -0.0535  0.6649 -1.1552
12590TIP3   OH259260   3.427   5.312   1.216  0.4720  0.4270 -0.0808
12590TIP3    H159261   3.384   5.246   1.269  0.2857 -0.3334 -1.1392
12590TIP3    H259262   3.429   5.390   1.271 -2.3258  0.5287 -0.0098
12591TIP3   OH259263   5.245   0.988  15.895  0.5621 -1.2336 -0.2520
12591TIP3    H159264   5.222   1.004  15.986  0.9368 -0.5985 -0.2692
12591TIP3    H259265   5.175   0.931  15.862 -0.1732 -0.5513  0.1189
12592TIP3   OH259266   5.009   3.529   5.703  0.5344  0.2876  0.6973
12592TIP3    H159267   4.917   3.505   5.714  0.0083  2.0768  0.5341
12592TIP3    H259268   5.017   3.551   5.610  1.1449  0.0827  0.6991
12593TIP3   OH259269   2.344   5.539  14.218  0.3546 -0.4611 -0.6537
12593TIP3    H159270   2.434   5.556  14.190  0.9911 -1.7762  0.4968
12593TIP3    H259271   2.322   5.454  14.180 -0.6176  0.0865 -1.3671
12594TIP3   OH259272   4.105   1.240   0.839 -0.3692  0.0829  0.2239
12594TIP3    H159273   4.159   1.294   0.898  0.2323  0.0343 -0.2715
12594TIP3    H259274   4.066   1.303   0.778 -0.2987  0.0378  0.1329
12595TIP3   OH259275   3.312   3.055  11.243  0.3607  0.5982  0.3320
12595TIP3    H159276   3.332   3.117  11.174 -0.0710  0.2910 -0.0722
12595TIP3    H259277   3.397   3.035  11.283  0.6359  0.5996 -0.2535
12596TIP3   OH259278   3.510   5.621  15.278  0.1090 -0.2368 -0.5601
12596TIP3    H159279   3.435   5.614  15.337  2.1149  0.5111  2.2755
12596TIP3    H259280   3.585   5.591  15.329  1.9074 -0.2807 -3.0204
12597TIP3   OH259281   5.624   4.046  16.704 -0.2496 -0.0218  0.2938
12597TIP3    H159282   5.709   4.078  16.732  0.0327 -0.2470 -0.2812
12597TIP3    H259283   5.635   4.026  16.611 -1.4492  1.7325 -0.2802
12598TIP3   OH259284   0.566   3.984   3.779 -0.5312  0.2329  0.0596
12598TIP3    H159285   0.593   3.903   3.821  0.4130  0.8064  0.5897
12598TIP3    H259286   0.647   4.020   3.743 -0.8773  1.1144  0.1402
12599TIP3   OH259287   5.714   2.796   1.068  0.0011 -0.0211 -0.2555
12599TIP3    H159288   5.750   2.821   0.983  0.6436 -0.2880 -0.0690
12599TIP3    H259289   5.684   2.705   1.056  1.9295 -0.7861  0.3286
12600TIP3   OH259290   3.145   6.738   3.626  0.5732  0.0166 -0.0618
12600TIP3    H159291   3.095   6.820   3.628 -1.1646 -1.0011 -0.3838
12600TIP3    H259292   3.208   6.751   3.554  0.0299  0.8944 -0.3989
12601TIP3   OH259293   4.824   4.570  17.155 -0.4539  0.2175  0.6062
12601TIP3    H159294   4.741   4.590  17.199 -0.0515  1.2144  0.9482
12601TIP3    H259295   4.840   4.478  17.174 -0.6400  0.4415  1.9797
12602TIP3   OH259296   5.914   3.231  12.049 -0.3505 -1.2706 -0.6200
12602TIP3    H159297   5.849   3.166  12.024 -2.5087  0.4402  0.1665
12602TIP3    H259298   5.891   3.254  12.139  1.2810 -0.4888 -0.3656
12603TIP3   OH259299   6.396   4.977  12.182  0.3745  0.2584 -0.3642
12603TIP3    H159300   6.444   4.895  12.167  0.8645  0.5307 -0.3061
12603TIP3    H259301   6.441   5.018  12.256 -0.4358  0.1473  0.2089
12604TIP3   OH259302   5.487   6.148  16.820  0.3193  0.0217 -0.3987
12604TIP3    H159303   5.547   6.172  16.891  0.0776 -0.6854  0.0552
12604TIP3    H259304   5.449   6.231  16.792 -0.4486  0.2020  1.0805
12605TIP3   OH259305   6.185   3.946  15.657  0.0599  0.5560 -0.2604
12605TIP3    H159306   6.251   3.996  15.706 -0.2173  0.6540  0.0114
12605TIP3    H259307   6.137   3.897  15.723  1.3627 -1.3516 -0.6491
12606TIP3   OH259308   5.828   6.804   2.530 -0.1485 -0.1221 -0.0915
12606TIP3    H159309   5.922   6.791   2.547 -0.3107 -0.8556  0.2856
12606TIP3    H259310   5.799   6.863   2.599 -0.0646 -0.2900  0.0896
12607TIP3   OH259311   2.984   3.152   1.572  0.1294  0.5723 -0.5650
12607TIP3    H159312   3.025   3.208   1.638  1.1455  0.3683 -0.9994
12607TIP3    H259313   2.919   3.207   1.530  0.4917  1.1511 -0.3740
12608TIP3   OH259314   3.545   0.840  16.400  0.3443  0.2902 -0.0861
12608TIP3    H159315   3.551   0.929  16.365  0.0237  0.8202  1.1323
12608TIP3    H259316   3.532   0.852  16.494 -0.4558 -1.0330  0.0080
12609TIP3   OH259317   6.246   5.912  16.176 -0.2158 -0.6165 -0.6925
12609TIP3    H159318   6.262   5.912  16.270  0.0486 -0.6578 -0.7377
12609TIP3    H259319   6.328   5.942  16.138 -0.4535 -0.1979 -0.8895
12610TIP3   OH259320   6.694   3.656   3.717 -0.0577 -0.1000  0.0082
12610TIP3    H159321   6.706   3.669   3.623  0.6957  1.7297  0.3103
12610TIP3    H259322   6.752   3.721   3.757 -1.5921  0.2945  1.7179
12611TIP3   OH259323   5.664   2.612  11.826  0.6453  0.5235  0.7100
12611TIP3    H159324   5.569   2.619  11.825  0.6691  0.9893  1.4827
12611TIP3    H259325   5.683   2.543  11.762 -0.3094 -0.7416  1.7265
12612TIP3   OH259326   5.507   4.145  12.192  0.0129 -0.3767  0.6061
12612TIP3    H159327   5.574   4.081  12.170  0.6657  0.3285  0.5178
12612TIP3    H259328   5.555   4.222  12.224 -0.6922  0.5081 -0.3751
12613TIP3   OH259329   0.210   1.673  15.104  0.0388  0.4441 -0.2325
12613TIP3    H159330   0.288   1.719  15.071 -0.2213  0.5045 -0.7746
12613TIP3    H259331   0.243   1.589  15.135  0.2548  0.2671 -0.9241
12614TIP3   OH259332   0.771   3.069   2.658  0.9065  0.0135 -0.2488
12614TIP3    H159333   0.862   3.066   2.627  1.1025 -0.3167  0.3371
12614TIP3    H259334   0.753   2.979   2.685  0.3460  0.0440 -0.5180
12615TIP3   OH259335   2.348   4.268  15.626  0.6074 -0.1190 -1.0763
12615TIP3    H159336   2.315   4.325  15.558  1.9005  1.2252 -0.6472
12615TIP3    H259337   2.282   4.272  15.695  0.5166  0.6106 -1.1922
12616TIP3   OH259338   4.685   6.779   1.782 -0.0057 -0.0666  0.6450
12616TIP3    H159339   4.684   6.830   1.702  2.5360  0.3147  0.7621
12616TIP3    H259340   4.724   6.695   1.757 -0.4423 -0.4508  1.2190
12617TIP3   OH259341   6.793   5.289   4.900  0.4727 -0.0493  0.3255
12617TIP3    H159342   6.720   5.305   4.960 -0.9188 -0.9429 -1.0492
12617TIP3    H259343   6.784   5.356   4.833  0.3768 -0.6959 -0.3209
12618TIP3   OH259344   2.916   3.319  12.010  0.0663 -0.1193 -0.5164
12618TIP3    H159345   2.888   3.358  11.927 -0.4764 -1.8356 -1.1909
12618TIP3    H259346   2.972   3.386  12.050  0.6938  0.5998 -2.4490
12619TIP3   OH259347   4.098   4.159  12.073  0.1835  0.1574  0.6325
12619TIP3    H159348   4.094   4.240  12.123 -0.6671  0.2662  0.4011
12619TIP3    H259349   4.014   4.154  12.028  1.0682  0.2802 -1.1204
12620TIP3   OH259350   1.824   6.483   2.435 -0.2415 -0.3058  0.0642
12620TIP3    H159351   1.885   6.555   2.453  0.2198 -1.0330  1.5898
12620TIP3    H259352   1.852   6.413   2.493 -0.5277 -1.8427 -1.5760
12621TIP3   OH259353   2.633   4.093  17.037  0.2538  0.2399  1.0426
12621TIP3    H159354   2.621   4.044  16.956 -0.2558  3.5389 -1.0551
12621TIP3    H259355   2.720   4.067  17.068 -0.1615 -2.2212  0.3451
12622TIP3   OH259356   1.444   0.014  15.100 -0.2382  0.1089  0.1013
12622TIP3    H159357   1.358   0.055  15.098 -0.6630 -0.6112 -3.6228
12622TIP3    H259358   1.426  -0.078  15.122 -0.2734  0.2248  0.5532
12623TIP3   OH259359   4.385   5.290  13.897 -0.4256 -0.3011  0.3085
12623TIP3    H159360   4.388   5.195  13.909 -0.3919 -0.2689  0.5681
12623TIP3    H259361   4.419   5.305  13.809 -1.3851 -0.6033 -0.1260
12624TIP3   OH259362   0.420   2.443   4.795 -0.6325 -0.8156 -0.3355
12624TIP3    H159363   0.473   2.522   4.787  0.7748 -1.8218 -1.3289
12624TIP3    H259364   0.480   2.376   4.827 -1.7112 -1.6127  0.1079
12625TIP3   OH259365   1.355   5.644  16.614 -0.0292  0.1012 -0.2061
12625TIP3    H159366   1.391   5.595  16.688 -0.0278 -1.8991 -1.4550
12625TIP3    H259367   1.261   5.648  16.632 -0.2426 -1.6829 -0.7652
12626TIP3   OH259368   3.174   5.021  12.760  0.3690 -0.7369 -0.2577
12626TIP3    H159369   3.199   4.968  12.836 -0.2487 -2.7084 -1.3580
12626TIP3    H259370   3.251   5.075  12.741  1.4276 -1.9979  0.2995
12627TIP3   OH259371   6.391   2.746  13.322  0.3253  0.1676  0.6879
12627TIP3    H159372   6.330   2.705  13.384 -0.8198  0.2239 -0.3689
12627TIP3    H259373   6.349   2.828  13.298  1.9944  1.3872  1.7872
12628TIP3   OH259374   6.720   1.685  16.815 -0.8034  0.2090 -0.0172
12628TIP3    H159375   6.713   1.779  16.798  2.3525  0.4630 -0.4866
12628TIP3    H259376   6.805   1.660  16.779 -0.7611 -2.4824  1.6537
12629TIP3   OH259377   2.120   1.612  12.629 -0.4110  0.6098  0.7157
12629TIP3    H159378   2.035   1.656  12.633 -1.6886 -1.3792 -1.6644
12629TIP3    H259379   2.102   1.529  12.585  3.0436  0.8100 -1.4532
12630TIP3   OH259380   3.889   2.502  16.834 -0.3583 -0.5371  0.4142
12630TIP3    H159381   3.846   2.527  16.752 -0.6200 -0.6938  0.5049
12630TIP3    H259382   3.954   2.571  16.849 -1.9093  0.7802  1.3228
12631TIP3   OH259383   5.088   0.758  13.160 -0.0666 -0.4505  0.2192
12631TIP3    H159384   5.155   0.690  13.154  0.4528  0.0513  0.1572
12631TIP3    H259385   5.120   0.817  13.228 -0.5695 -0.3319  0.3566
12632TIP3   OH259386   6.531   4.271  16.956  0.5799  0.1195  0.6993
12632TIP3    H159387   6.563   4.182  16.970  1.1938  0.2564  0.1851
12632TIP3    H259388   6.497   4.271  16.866  0.3021  0.3235  0.8010
12633TIP3   OH259389   0.436   1.350   1.876 -0.6540  0.5975 -0.5458
12633TIP3    H159390   0.371   1.323   1.941 -1.3775  0.8256 -1.1551
12633TIP3    H259391   0.518   1.314   1.908 -0.9309  0.9766  0.6646
12634TIP3   OH259392   0.791   0.181  16.284  0.0600  0.7083  0.1903
12634TIP3    H159393   0.706   0.139  16.295 -0.3556  1.8277  1.4908
12634TIP3    H259394   0.811   0.171  16.190 -1.1860 -0.1251 -0.0082
12635TIP3   OH259395   1.277   3.973  15.442 -0.0785 -0.0491  0.1958
12635TIP3    H159396   1.360   4.011  15.470  1.2210 -2.3292 -0.4017
12635TIP3    H259397   1.271   3.994  15.348  0.2259 -0.5949  0.0545
12636TIP3   OH259398   5.264   4.971  13.184  0.3932  0.0259  0.7799
12636TIP3    H159399   5.336   5.030  13.210  1.0923  0.4026 -1.6787
12636TIP3    H259400   5.303   4.915  13.116 -1.8398  0.9727 -1.4559
12637TIP3   OH259401   0.650   5.437  16.274 -0.6951  0.2331 -0.1737
12637TIP3    H159402   0.579   5.377  16.253 -1.7523  1.7753 -1.2028
12637TIP3    H259403   0.625   5.475  16.359 -2.1620  2.1596 -1.3749
12638TIP3   OH259404   1.732   1.608   4.210 -0.6916  0.5018  0.0197
12638TIP3    H159405   1.717   1.580   4.300 -1.5679  0.9417  0.0236
12638TIP3    H259406   1.776   1.534   4.169 -1.6675 -0.3184  0.4015
12639TIP3   OH259407   6.086   4.097   5.303  0.4809  0.2964  0.1049
12639TIP3    H159408   6.006   4.088   5.354  0.2580 -0.2268 -0.3211
12639TIP3    H259409   6.095   4.012   5.258  2.0220 -0.1817  1.2336
12640TIP3   OH259410   6.024   4.748  14.819 -0.0426  0.3793 -0.4893
12640TIP3    H159411   5.929   4.739  14.810 -0.1866 -2.7069  2.1312
12640TIP3    H259412   6.059   4.664  14.791  1.5596  0.2568  1.6278
12641TIP3   OH259413   1.971   1.155   0.368 -0.0338 -0.0500 -0.4401
12641TIP3    H159414   1.987   1.177   0.460 -1.4763  0.6648 -0.3287
12641TIP3    H259415   1.886   1.112   0.368  0.1938 -0.5324 -1.3883
12642TIP3   OH259416   2.868   3.074   0.568  0.3502 -0.3218  0.2351
12642TIP3    H159417   2.895   3.122   0.647  0.3460  0.4928 -0.2407
12642TIP3    H259418   2.936   3.094   0.503 -0.4921  0.3769 -0.4645
12643TIP3   OH259419   5.655   6.521   3.155  0.1694  0.2652 -0.2645
12643TIP3    H159420   5.561   6.507   3.161  0.0032  1.3676 -0.0200
12643TIP3    H259421   5.669   6.545   3.063 -0.0825  1.8543  0.0695
12644TIP3   OH259422   5.586   1.817  16.502  0.5305  0.8016  0.2673
12644TIP3    H159423   5.657   1.752  16.502 -1.1170 -1.0628  0.0663
12644TIP3    H259424   5.542   1.804  16.586 -1.4096 -0.1993 -0.8483
12645TIP3   OH259425   3.707   2.836  10.607 -0.6956 -0.0962 -0.1822
12645TIP3    H159426   3.711   2.875  10.520 -3.1867  2.0921  0.5756
12645TIP3    H259427   3.795   2.849  10.644 -0.2198  0.8219 -1.5729
12646TIP3   OH259428   5.438   5.914  17.064  0.1307 -0.0768 -0.0798
12646TIP3    H159429   5.462   5.823  17.083  1.1012  0.0753 -0.4899
12646TIP3    H259430   5.521   5.962  17.068 -0.1108  0.5008 -1.5026
12647TIP3   OH259431   5.675   1.310   3.547  0.2411 -0.2700  0.3156
12647TIP3    H159432   5.722   1.368   3.606  0.1075  0.8243 -0.6296
12647TIP3    H259433   5.743   1.268   3.494  0.2020  1.7266 -1.4322
12648TIP3   OH259434   1.350   6.391   5.809 -0.2977  0.3136 -0.4471
12648TIP3    H159435   1.386   6.446   5.739 -0.8050  0.1768 -0.8145
12648TIP3    H259436   1.428   6.352   5.851  0.1214  1.8094  0.2516
12649TIP3   OH259437   4.624   3.386  15.058  0.5751  0.4634  0.4318
12649TIP3    H159438   4.652   3.349  14.974  1.2298  2.1603 -0.1246
12649TIP3    H259439   4.648   3.319  15.122  3.0379  0.4669 -0.3733
12650TIP3   OH259440   4.600   5.768  12.066  0.4670  0.3864 -0.5796
12650TIP3    H159441   4.587   5.849  12.016 -0.6457  1.0510  0.7379
12650TIP3    H259442   4.532   5.709  12.033 -0.3422  0.8645  0.1631
12651TIP3   OH259443   6.064   6.518   2.031  0.0724  0.2501 -0.3226
12651TIP3    H159444   6.128   6.511   1.960 -0.1312 -0.2236 -0.4626
12651TIP3    H259445   5.981   6.492   1.992  0.2081 -1.4539  0.4320
12652TIP3   OH259446   2.024   1.646   6.273 -0.2392 -0.2617  0.0568
12652TIP3    H159447   2.116   1.653   6.298 -0.0743  1.8858 -0.8501
12652TIP3    H259448   2.003   1.553   6.279  2.1095 -0.8460 -0.1254
12653TIP3   OH259449   6.723   2.618  12.060 -0.3410  0.0913 -0.3606
12653TIP3    H159450   6.706   2.689  12.122  0.1940 -1.0840  1.1937
12653TIP3    H259451   6.747   2.663  11.978 -1.4467  1.6820  0.1409
12654TIP3   OH259452   1.799   4.685   6.266  0.0423  0.6213  0.1152
12654TIP3    H159453   1.846   4.641   6.338 -0.9783  0.1226  0.4972
12654TIP3    H259454   1.708   4.657   6.277  0.0764 -0.6268 -2.2407
12655TIP3   OH259455   0.383   1.701  10.699  0.3316 -0.1370 -0.2789
12655TIP3    H159456   0.342   1.787  10.687  0.2401  0.1035  1.4835
12655TIP3    H259457   0.472   1.721  10.728  0.3234 -0.6295  0.1017
12656TIP3   OH259458   3.056   2.068  10.924  0.2022 -1.0043  0.3435
12656TIP3    H159459   3.124   2.004  10.906  0.3353 -1.7255  2.9530
12656TIP3    H259460   2.985   2.017  10.963 -1.4465 -0.1121 -1.3433
12657TIP3   OH259461   5.241   1.968   0.645 -0.4679  0.4936 -0.3718
12657TIP3    H159462   5.266   1.898   0.584 -1.8837  0.3721 -0.8539
12657TIP3    H259463   5.160   1.936   0.685 -0.4616  1.3301  0.3071
12658TIP3   OH259464   0.374   1.405  13.271  0.1796 -0.1392 -0.2913
12658TIP3    H159465   0.396   1.497  13.251 -0.4119 -0.0323 -0.4701
12658TIP3    H259466   0.405   1.356  13.195 -0.5990  0.0683 -0.7531
12659TIP3   OH259467   3.816   0.356  15.420  0.6285 -0.9087  0.3417
12659TIP3    H159468   3.905   0.345  15.387  0.8322 -0.9236  0.8815
12659TIP3    H259469   3.815   0.444  15.457  0.2637 -0.7138 -0.1233
12660TIP3   OH259470   5.747   0.987  10.851  1.2035  0.3236 -0.7259
12660TIP3    H159471   5.752   1.080  10.871  0.6509  0.5368 -1.5237
12660TIP3    H259472   5.654   0.965  10.860  1.3092 -0.1143 -0.6854
12661TIP3   OH259473   2.847   6.018  15.963  0.2637  0.2252  0.8390
12661TIP3    H159474   2.929   6.065  15.978 -0.1022  0.5921  1.7305
12661TIP3    H259475   2.874   5.935  15.923  0.9957  0.7151  0.2942
12662TIP3   OH259476   6.071   2.686   1.323 -0.4655  0.4104  0.0325
12662TIP3    H159477   5.999   2.644   1.371 -1.8645  2.0073 -0.5683
12662TIP3    H259478   6.119   2.734   1.390 -1.4042  1.2402  0.1550
12663TIP3   OH259479   6.770   4.887   4.377 -0.4857 -0.2167 -0.4849
12663TIP3    H159480   6.702   4.861   4.315  0.1435 -0.6919 -0.9927
12663TIP3    H259481   6.793   4.807   4.424  0.2588 -0.2363 -0.8601
12664TIP3   OH259482   1.369   2.551  13.228  0.1811  0.0479  0.2680
12664TIP3    H159483   1.394   2.622  13.286  0.8592 -0.6440  0.8476
12664TIP3    H259484   1.449   2.499  13.217 -0.5619 -1.2492  0.7613
12665TIP3   OH259485   6.510   4.505   4.748  0.4996 -0.7895  0.1115
12665TIP3    H159486   6.541   4.588   4.711 -1.0495 -0.3350 -0.2308
12665TIP3    H259487   6.580   4.479   4.809  1.2303  0.5167 -0.1184
12666TIP3   OH259488   5.588   4.987   4.003 -1.6093  0.1859 -0.2710
12666TIP3    H159489   5.591   4.903   4.049  2.5193  0.0294 -0.4272
12666TIP3    H259490   5.610   5.052   4.070 -0.7154  0.5988 -0.9464
12667TIP3   OH259491   3.545   4.987  14.052  0.1605 -0.2135 -0.4352
12667TIP3    H159492   3.475   4.939  14.096 -0.6614  0.1637 -1.2848
12667TIP3    H259493   3.565   5.060  14.110  2.4072 -2.2348  1.5743
12668TIP3   OH259494   4.780   0.944  16.521  0.4504 -0.3443  0.6550
12668TIP3    H159495   4.853   0.934  16.582  0.0125 -1.1436  1.0685
12668TIP3    H259496   4.727   0.866  16.535 -0.1951 -0.0366 -0.0302
12669TIP3   OH259497   1.233   2.292   0.260  0.2536  0.1481 -0.3878
12669TIP3    H159498   1.280   2.346   0.323 -2.2407  1.1104  0.8023
12669TIP3    H259499   1.151   2.269   0.304  0.5267 -3.4546 -1.4091
12670TIP3   OH259500   2.155   5.429   4.386 -0.0400  0.1649 -0.4439
12670TIP3    H159501   2.107   5.489   4.329  0.7885  0.2410 -1.0641
12670TIP3    H259502   2.187   5.360   4.328  1.8441  0.8726 -0.3169
12671TIP3   OH259503   6.269   0.956  11.815  0.2141  0.4651 -0.0885
12671TIP3    H159504   6.356   0.990  11.792  0.4378 -0.4422 -0.6403
12671TIP3    H259505   6.268   0.956  11.910  1.8995 -2.0896  0.0068
12672TIP3   OH259506   6.716   2.697   0.939  0.0324  0.2641 -0.5948
12672TIP3    H159507   6.797   2.689   0.990 -0.5990  0.7102  0.5125
12672TIP3    H259508   6.705   2.612   0.897  1.4326  0.4141 -1.3292
12673TIP3   OH259509   6.312   0.779  14.087 -0.2355 -0.2225  0.0588
12673TIP3    H159510   6.327   0.814  14.175  1.3877 -0.7218  0.0246
12673TIP3    H259511   6.400   0.767  14.052 -0.7391 -3.1863 -0.3744
12674TIP3   OH259512   6.510   2.264  10.712 -0.2175  0.7446 -0.6712
12674TIP3    H159513   6.420   2.271  10.745  0.0796  1.7040 -0.0321
12674TIP3    H259514   6.517   2.174  10.680 -0.9133  0.1656  0.7493
12675TIP3   OH259515   2.489   1.931   3.753 -0.5496 -0.3110 -0.5707
12675TIP3    H159516   2.563   1.887   3.711  0.2436 -1.0262  1.4413
12675TIP3    H259517   2.432   1.859   3.782  0.4077 -0.0993  2.1266
12676TIP3   OH259518   5.169   5.750   0.044 -0.0615 -0.6460  0.2463
12676TIP3    H159519   5.144   5.736  -0.047  1.1071 -3.0753  0.2217
12676TIP3    H259520   5.093   5.792   0.084 -1.2086 -0.9898 -1.4646
12677TIP3   OH259521   5.010   4.818   5.155 -0.4846 -0.4619 -0.6090
12677TIP3    H159522   4.953   4.742   5.166  0.0959 -0.7116  0.9430
12677TIP3    H259523   5.076   4.790   5.091 -0.3730 -1.2211 -0.1746
12678TIP3   OH259524   4.155   4.785   4.748  0.2604  0.1505 -0.4719
12678TIP3    H159525   4.200   4.702   4.760 -0.2406 -0.5503 -2.8857
12678TIP3    H259526   4.062   4.761   4.738  0.0808  1.0080 -0.9788
12679TIP3   OH259527   1.220   4.300  12.340  0.1569  0.4282  0.5431
12679TIP3    H159528   1.143   4.355  12.354  0.9449  1.5438  0.6442
12679TIP3    H259529   1.204   4.258  12.255 -0.6927  0.4035  0.7020
12680TIP3   OH259530   0.886   4.990  12.716  0.1917 -0.3538  0.3301
12680TIP3    H159531   0.797   5.020  12.694  0.6083  1.4886  0.9861
12680TIP3    H259532   0.905   4.924  12.650 -0.2727  1.8149 -2.1812
12681TIP3   OH259533   4.534   3.839   1.360 -0.0638  0.4238 -0.2995
12681TIP3    H159534   4.612   3.788   1.382  0.2177  1.5920  1.6892
12681TIP3    H259535   4.471   3.774   1.329  0.4026 -1.1039  1.7546
12682TIP3   OH259536   4.541   1.603  14.579 -0.1379  0.2071  0.1728
12682TIP3    H159537   4.524   1.532  14.517 -0.9423 -0.6272  1.3035
12682TIP3    H259538   4.577   1.560  14.656  3.0171  1.4648 -0.4577
12683TIP3   OH259539   2.042   3.928  16.051  0.7634 -0.6872  0.1750
12683TIP3    H159540   2.027   3.965  16.138 -2.3537 -0.5718 -0.3103
12683TIP3    H259541   2.097   3.993  16.006 -0.5387  1.0008  0.9332
12684TIP3   OH259542   6.086   6.669  15.197 -0.3434  0.0815 -0.0714
12684TIP3    H159543   6.021   6.639  15.261  0.1492 -0.4802  0.1744
12684TIP3    H259544   6.105   6.759  15.223  0.7171 -0.4982  1.3286
12685TIP3   OH259545   0.410   4.130  14.570 -0.3055  0.5618  0.3463
12685TIP3    H159546   0.441   4.199  14.628 -0.6897  0.3057  0.8640
12685TIP3    H259547   0.489   4.082  14.545  0.0462  1.5612 -0.5245
12686TIP3   OH259548   5.475   3.265  12.716  0.3944 -0.0768  0.8917
12686TIP3    H159549   5.561   3.307  12.724  0.9269 -0.9576  0.0419
12686TIP3    H259550   5.492   3.186  12.663 -1.2584  0.7485 -0.9886
12687TIP3   OH259551   4.170   6.331   2.120  0.1122  0.4269  0.2516
12687TIP3    H159552   4.201   6.330   2.029 -0.1596  0.6535  0.1553
12687TIP3    H259553   4.147   6.240   2.138 -0.9353  0.5769 -0.2895
12688TIP3   OH259554   3.886   0.685  17.091 -0.3922 -0.0063 -0.1650
12688TIP3    H159555   3.929   0.700  17.007 -1.1816  0.0136 -0.5753
12688TIP3    H259556   3.803   0.643  17.068  0.2317 -1.8031  0.7247
12689TIP3   OH259557   0.484   3.877  15.354 -0.5406 -0.0079  0.0014
12689TIP3    H159558   0.419   3.945  15.372 -2.1523 -1.4888  0.0184
12689TIP3    H259559   0.487   3.872  15.258  0.3355  0.7248 -0.0351
12690TIP3   OH259560   2.128   4.049   3.589  0.5820 -0.1257  0.3338
12690TIP3    H159561   2.090   4.067   3.503 -0.3281 -0.6780  0.6055
12690TIP3    H259562   2.143   3.955   3.590  0.1360 -0.1969  0.9464
12691TIP3   OH259563   5.290   0.785   1.750  0.0932 -0.7199  0.5311
12691TIP3    H159564   5.277   0.690   1.756 -0.7896 -0.5795  1.1339
12691TIP3    H259565   5.382   0.798   1.772  0.8297 -1.6014 -1.7176
12692TIP3   OH259566   6.707   5.430   2.033  0.0500 -0.5435 -0.1048
12692TIP3    H159567   6.739   5.469   1.951  1.1521 -0.6854  0.2437
12692TIP3    H259568   6.700   5.504   2.093  1.5140 -0.7556  0.3613
12693TIP3   OH259569   2.616   5.856  10.865  0.0496 -0.1239  0.6995
12693TIP3    H159570   2.711   5.840  10.861 -0.0686 -1.6371  2.4236
12693TIP3    H259571   2.607   5.950  10.854  1.8465  0.1874  1.5565
12694TIP3   OH259572   4.567   2.320   5.596 -0.3213 -0.3735  0.0777
12694TIP3    H159573   4.481   2.297   5.630  0.1985 -0.9793  1.0045
12694TIP3    H259574   4.627   2.308   5.670  0.5494  0.1358 -0.5206
12695TIP3   OH259575   3.934   2.330  13.214  0.1744 -0.0611  0.4254
12695TIP3    H159576   3.879   2.374  13.279  0.2914  1.3297 -0.3753
12695TIP3    H259577   3.975   2.259  13.262 -1.0611 -0.1333  1.4423
12696TIP3   OH259578   4.691   2.196  12.906 -0.1357  0.2855  0.0649
12696TIP3    H159579   4.615   2.249  12.927 -0.2955 -0.5339  1.7136
12696TIP3    H259580   4.765   2.243  12.943 -0.2717 -0.5629  1.4846
12697TIP3   OH259581   2.893   1.399   2.032 -0.3307  0.0576 -0.0089
12697TIP3    H159582   2.848   1.469   1.985 -1.2313 -0.3509  0.2241
12697TIP3    H259583   2.823   1.351   2.076  0.0078 -2.3504 -1.9349
12698TIP3   OH259584   6.458   2.458   1.584  0.4111 -0.5273  0.2649
12698TIP3    H159585   6.377   2.431   1.540 -0.4638  1.1598  0.7607
12698TIP3    H259586   6.527   2.434   1.523 -0.5465 -0.8982 -0.7129
12699TIP3   OH259587   5.128   2.337  17.197 -0.4921 -0.3607  0.4271
12699TIP3    H159588   5.204   2.376  17.239  1.3239 -1.3574 -1.7430
12699TIP3    H259589   5.072   2.309  17.270  0.8482  1.0456  2.0742
12700TIP3   OH259590   3.008   3.012  13.973  0.3558 -0.5509  0.4376
12700TIP3    H159591   3.100   3.012  14.000  0.3185 -0.1355  0.5701
12700TIP3    H259592   2.959   3.027  14.053  0.2123  0.0102  0.2494
12701TIP3   OH259593   1.792   6.615  12.135 -0.8955  0.3933 -0.3396
12701TIP3    H159594   1.842   6.688  12.171  1.4088 -1.7841  1.2279
12701TIP3    H259595   1.707   6.621  12.179 -0.3606  1.4575  0.6231
12702TIP3   OH259596   5.795   5.918   1.436 -0.0589 -0.5012 -0.1013
12702TIP3    H159597   5.833   5.987   1.381  1.3598 -1.1296  0.0395
12702TIP3    H259598   5.755   5.857   1.375  0.5378 -0.6262 -0.3746
12703TIP3   OH259599   6.594   3.885  15.088 -0.1319  0.6145 -0.2658
12703TIP3    H159600   6.636   3.931  15.016 -0.4811  1.8298  0.2889
12703TIP3    H259601   6.645   3.805  15.098 -0.2364  0.2922 -2.0182
12704TIP3   OH259602   3.955   4.197   2.215 -0.7114 -0.7256  0.1020
12704TIP3    H159603   4.032   4.176   2.267 -1.6422 -2.3036  0.9106
12704TIP3    H259604   3.924   4.280   2.252 -0.4325 -1.0009  0.9851
12705TIP3   OH259605   6.209   2.650   4.138  0.0610 -0.6632 -0.2530
12705TIP3    H159606   6.156   2.604   4.073  1.0316 -0.1925 -1.3947
12705TIP3    H259607   6.244   2.726   4.092  0.0244  0.2112  1.0791
12706TIP3   OH259608   4.665   5.607  14.909 -0.2664 -0.3475  0.2912
12706TIP3    H159609   4.756   5.618  14.936 -0.2114 -2.0749  0.9195
12706TIP3    H259610   4.615   5.663  14.968  0.4411  1.6083 -0.8637
12707TIP3   OH259611   0.616   2.623   4.121  0.6946  0.1917  0.1641
12707TIP3    H159612   0.573   2.554   4.070  0.6874  0.3546 -0.0514
12707TIP3    H259613   0.661   2.676   4.056 -1.7059  2.1441 -0.0523
12708TIP3   OH259614   4.641   0.243   4.514 -0.1787 -0.0142 -0.0873
12708TIP3    H159615   4.572   0.236   4.448  1.7205  0.3312 -2.2551
12708TIP3    H259616   4.689   0.322   4.490  0.8334 -0.1077  1.4855
12709TIP3   OH259617   2.049   0.059  12.516 -0.4799  0.8211  0.6629
12709TIP3    H159618   2.120   0.057  12.452 -0.8569  0.2948  0.2529
12709TIP3    H259619   2.006   0.144  12.501 -1.0715  0.3601 -0.3482
12710TIP3   OH259620   0.728   6.391   3.953 -0.2751  0.3160 -0.2957
12710TIP3    H159621   0.811   6.354   3.984 -0.7347  0.3902  1.1370
12710TIP3    H259622   0.675   6.315   3.929  1.0433  0.3244 -3.7462
12711TIP3   OH259623   1.472   2.960   3.294 -0.5237 -0.1453  0.2499
12711TIP3    H159624   1.418   3.009   3.232  0.3283  0.4190 -0.0561
12711TIP3    H259625   1.450   2.998   3.380 -0.9698 -0.2502  0.1834
12712TIP3   OH259626   5.150   6.601   4.808 -0.8961 -0.3165  0.7079
12712TIP3    H159627   5.140   6.536   4.738  1.3501 -0.5416  0.5372
12712TIP3    H259628   5.222   6.569   4.862  0.2990  1.9745  0.6310
12713TIP3   OH259629   2.034   2.626  13.979  0.8379 -0.4266  0.1707
12713TIP3    H159630   1.985   2.674  14.045  1.9988 -0.3081  0.9677
12713TIP3    H259631   1.968   2.572  13.935 -0.4127  1.4673 -0.4036
12714TIP3   OH259632   4.215   3.076  13.705  0.3913  0.2276  0.4790
12714TIP3    H159633   4.268   2.997  13.711 -0.0112 -0.2722 -1.7057
12714TIP3    H259634   4.279   3.148  13.706  0.7824 -0.0939  2.0380
12715TIP3   OH259635   2.681   0.263   1.950  0.1753  0.0038 -0.0249
12715TIP3    H159636   2.658   0.240   1.860 -1.1667 -0.4656  0.4256
12715TIP3    H259637   2.733   0.343   1.941  0.4801 -0.3051 -1.2416
12716TIP3   OH259638   3.032   5.501   2.313 -0.6778  0.3070 -0.0653
12716TIP3    H159639   3.028   5.592   2.340 -0.2434  0.3718 -0.2128
12716TIP3    H259640   3.103   5.498   2.248 -1.4429  0.0850 -0.9141
12717TIP3   OH259641   2.580   0.118  15.548 -0.4963 -0.5690  0.1528
12717TIP3    H159642   2.516   0.064  15.501  0.6977 -1.8575 -0.0363
12717TIP3    H259643   2.663   0.104  15.502  0.3528 -0.5363  1.6209
12718TIP3   OH259644   0.112   5.421  14.455  0.7171 -0.2054  0.0374
12718TIP3    H159645   0.055   5.371  14.514  1.4605  0.5024  1.3974
12718TIP3    H259646   0.065   5.503  14.441  0.0100 -0.8077 -1.3167
12719TIP3   OH259647   2.554   2.790  14.723 -0.3549 -0.1893 -0.1233
12719TIP3    H159648   2.615   2.859  14.747 -1.1833  0.9932 -1.2782
12719TIP3    H259649   2.498   2.780  14.800 -0.3975  0.6255 -0.0444
12720TIP3   OH259650   0.602   6.069   2.653 -0.0114  0.3884 -0.0258
12720TIP3    H159651   0.648   6.079   2.569  0.6874  1.3308  0.4569
12720TIP3    H259652   0.512   6.098   2.634  0.0078  0.1152 -0.5663
12721TIP3   OH259653   3.991   5.458  15.654 -0.3119  0.3088 -0.0722
12721TIP3    H159654   4.065   5.402  15.677 -0.5420 -0.1875 -0.5005
12721TIP3    H259655   3.916   5.398  15.656 -0.5182  0.5313 -0.8330
12722TIP3   OH259656   6.465   3.088  16.351 -0.4535  0.3227  0.0418
12722TIP3    H159657   6.433   3.019  16.408 -0.1710 -0.3952 -0.6487
12722TIP3    H259658   6.491   3.158  16.410 -1.8373  0.3251  0.7006
12723TIP3   OH259659   1.242   5.560   4.794 -0.1698  0.0209 -0.5667
12723TIP3    H159660   1.220   5.590   4.883 -2.2970  0.3244 -1.1297
12723TIP3    H259661   1.277   5.637   4.751 -1.8647  0.6846 -0.8180
12724TIP3   OH259662   2.318   1.205  13.742  0.3625 -0.2942  0.3409
12724TIP3    H159663   2.316   1.109  13.747 -0.4981 -0.2440  1.3480
12724TIP3    H259664   2.228   1.230  13.723  0.2799  0.3627  1.4855
12725TIP3   OH259665   3.947   5.266   5.653  0.6423 -0.4545 -0.0751
12725TIP3    H159666   3.909   5.197   5.598  0.4856 -0.3859 -0.0520
12725TIP3    H259667   3.973   5.221   5.733 -0.0517 -0.3683  0.2031
12726TIP3   OH259668   2.408   3.810  15.398  0.0175  0.6505  0.5579
12726TIP3    H159669   2.378   3.876  15.461 -0.7791  1.5244 -0.6963
12726TIP3    H259670   2.355   3.825  15.320  1.0473 -0.3383 -0.3713
12727TIP3   OH259671   5.265   0.192  12.208 -0.1077 -0.8351 -0.3678
12727TIP3    H159672   5.173   0.192  12.183  0.0255 -0.0391 -0.8755
12727TIP3    H259673   5.304   0.123  12.154 -0.4565 -1.4158  0.0989
12728TIP3   OH259674   3.090   3.010  12.710 -0.6187  0.1024  0.5444
12728TIP3    H159675   3.163   3.012  12.772 -0.3304  1.7279  0.2005
12728TIP3    H259676   3.092   3.096  12.669 -0.5135 -1.0582 -2.0674
12729TIP3   OH259677   1.354   0.308  16.875 -0.0075  0.4563 -0.3644
12729TIP3    H159678   1.384   0.388  16.832  0.4819  0.9234  0.8097
12729TIP3    H259679   1.258   0.313  16.872 -0.0104  0.0478 -2.1358
12730TIP3   OH259680   2.407   4.122  16.712  0.6106  0.2232 -0.0746
12730TIP3    H159681   2.340   4.121  16.644 -0.7672  0.8572  1.2200
12730TIP3    H259682   2.401   4.036  16.754 -0.8030  0.9527  1.3131
12731TIP3   OH259683   4.268   6.036   5.196 -0.2149  0.2460  0.5077
12731TIP3    H159684   4.299   5.962   5.143  0.6010  0.2464  0.9650
12731TIP3    H259685   4.326   6.036   5.272  0.7050  2.1773 -0.1183
12732TIP3   OH259686   5.815   4.219  13.742  0.2121  0.0858 -0.2506
12732TIP3    H159687   5.806   4.173  13.825  1.6968 -0.4212 -0.3483
12732TIP3    H259688   5.797   4.153  13.676  1.0338 -0.0450 -0.3589
12733TIP3   OH259689   0.777   3.148  14.072  0.1650  0.3896 -0.1689
12733TIP3    H159690   0.806   3.187  13.989  1.7058  0.9331  0.5926
12733TIP3    H259691   0.722   3.074  14.046 -0.6069  1.4272 -1.6650
12734TIP3   OH259692   0.925   3.675  16.365 -0.2770 -0.4515  0.1433
12734TIP3    H159693   0.954   3.732  16.436 -0.2464  0.9522 -0.9367
12734TIP3    H259694   0.925   3.732  16.288  0.0675 -2.0159 -1.0550
12735TIP3   OH259695   4.590   2.651  16.441  0.6010  0.4615 -0.1963
12735TIP3    H159696   4.533   2.728  16.446  1.0276  0.8192 -0.6175
12735TIP3    H259697   4.539   2.586  16.393 -0.0369  0.2213  0.7846
12736TIP3   OH259698   6.530   4.195  15.082  0.0258  0.0678 -0.1505
12736TIP3    H159699   6.584   4.186  15.003 -0.4785 -0.4118 -0.4488
12736TIP3    H259700   6.478   4.115  15.084 -1.3158  0.9030 -0.3565
12737TIP3   OH259701   0.765   1.694   0.936  0.1162  0.4873  0.4880
12737TIP3    H159702   0.723   1.760   0.990 -1.3296 -0.1865  0.2387
12737TIP3    H259703   0.719   1.698   0.852 -0.7663 -1.5286  0.8107
12738TIP3   OH259704   3.714   3.223   1.181 -0.4512 -0.2788  0.8260
12738TIP3    H159705   3.741   3.148   1.128 -0.2705  1.4310 -1.7005
12738TIP3    H259706   3.620   3.210   1.196 -0.1608 -1.6358  1.6017
12739TIP3   OH259707   1.545   1.627  13.554 -0.0973  0.0068  0.6978
12739TIP3    H159708   1.640   1.638  13.547 -0.1969  1.2794  1.1783
12739TIP3    H259709   1.532   1.580  13.636  0.1292 -0.5388  0.4276
12740TIP3   OH259710   5.951   0.599  14.227  0.4082  0.0530  0.6476
12740TIP3    H159711   6.021   0.562  14.174 -0.6566  0.6658 -1.2759
12740TIP3    H259712   5.919   0.525  14.279  2.8725 -0.0898  2.1039
12741TIP3   OH259713   5.650   1.314  11.164  0.2513  0.8487  0.3765
12741TIP3    H159714   5.590   1.370  11.114  0.1581  1.5892  1.2886
12741TIP3    H259715   5.593   1.265  11.224  0.3091 -0.3917 -0.5279
12742TIP3   OH259716   0.715   0.736   1.701 -0.0864  0.0053 -0.0311
12742TIP3    H159717   0.708   0.651   1.745  1.7752 -0.0048  0.3210
12742TIP3    H259718   0.642   0.737   1.639  1.7895 -3.4585 -2.6661
12743TIP3   OH259719   5.263   4.179  14.472 -0.6109 -0.1558  0.4194
12743TIP3    H159720   5.248   4.085  14.476 -2.0493  0.0044 -0.3315
12743TIP3    H259721   5.358   4.189  14.478 -0.3406 -1.7167 -0.6931
12744TIP3   OH259722   3.292   4.581  16.693 -0.2366  0.1856 -0.1739
12744TIP3    H159723   3.375   4.535  16.680  0.9548  2.3639 -0.7540
12744TIP3    H259724   3.287   4.593  16.788  0.2028  0.1967 -0.1489
12745TIP3   OH259725   5.006   0.316   6.588 -0.0979 -0.4985  0.0329
12745TIP3    H159726   5.003   0.406   6.619  0.3625  0.0336 -1.3887
12745TIP3    H259727   5.100   0.295   6.585 -0.2073 -1.1630  0.6653
12746TIP3   OH259728   4.479   4.374  15.022  0.0532  0.0135 -0.0605
12746TIP3    H159729   4.535   4.298  15.005  0.5033  0.5428 -0.9692
12746TIP3    H259730   4.420   4.378  14.947  1.5041  1.8813 -1.1586
12747TIP3   OH259731   5.375   3.931   2.838 -0.5142 -0.2592  0.5117
12747TIP3    H159732   5.468   3.941   2.817 -0.5252  0.0304  0.6090
12747TIP3    H259733   5.340   3.881   2.765 -0.2741 -0.4008  0.4910
12748TIP3   OH259734   3.111   1.571   4.762  0.1136 -0.4903  0.6394
12748TIP3    H159735   3.105   1.524   4.846 -0.5791 -2.0419 -0.2443
12748TIP3    H259736   3.194   1.542   4.724 -0.5790 -1.5141 -0.1655
12749TIP3   OH259737   4.396   6.470  12.030 -0.6205 -0.0633 -0.1618
12749TIP3    H159738   4.336   6.530  11.986 -0.4940 -0.3186 -0.6883
12749TIP3    H259739   4.353   6.450  12.113 -0.5720  0.8990  0.0995
12750TIP3   OH259740   2.330   6.359   3.096 -0.3171  0.2397  0.5007
12750TIP3    H159741   2.326   6.330   3.188  1.0458  1.4456  0.9775
12750TIP3    H259742   2.385   6.293   3.053  0.4035  0.5390  0.9389
12751TIP3   OH259743   4.633   3.039  12.628  0.1932 -0.4663  0.2062
12751TIP3    H159744   4.659   3.071  12.541 -3.0550 -1.6693 -1.3945
12751TIP3    H259745   4.605   3.117  12.675 -0.2881 -0.0435 -0.7467
12752TIP3   OH259746   1.141   5.363  12.996 -0.2349  0.3759 -0.3596
12752TIP3    H159747   1.109   5.417  12.924 -0.6034  2.4646  1.3026
12752TIP3    H259748   1.231   5.340  12.971 -1.0663 -0.8769 -2.4806
12753TIP3   OH259749   0.778   2.598   5.021  0.1847 -0.0241 -0.4783
12753TIP3    H159750   0.753   2.607   5.113 -0.4392 -2.5898 -0.3264
12753TIP3    H259751   0.863   2.554   5.023 -1.0244 -2.5452 -1.0839
12754TIP3   OH259752   2.311   2.728  16.664 -0.1895 -0.1699 -0.2891
12754TIP3    H159753   2.220   2.702  16.682 -0.3662  0.9451  0.5803
12754TIP3    H259754   2.356   2.646  16.643 -1.5010 -0.6766 -1.2252
12755TIP3   OH259755   0.841   2.097  14.250  0.2177 -0.0041 -0.3023
12755TIP3    H159756   0.815   2.101  14.342  0.3125  0.7392 -0.3010
12755TIP3    H259757   0.926   2.052  14.251  0.1630 -0.1004 -0.0376
12756TIP3   OH259758   2.553   6.155   1.271  0.2016 -0.1627 -0.2669
12756TIP3    H159759   2.510   6.185   1.351  1.6209 -0.4408  0.6296
12756TIP3    H259760   2.483   6.113   1.221 -0.6103 -0.4448  1.0567
12757TIP3   OH259761   1.468   6.622  13.798 -0.2485  0.0558 -0.1079
12757TIP3    H159762   1.412   6.692  13.830 -0.7027  0.4771 -1.7280
12757TIP3    H259763   1.547   6.666  13.767  0.5491 -0.4248  1.1888
12758TIP3   OH259764   2.444   2.425  17.079 -0.3507  0.1799  0.0692
12758TIP3    H159765   2.531   2.445  17.044  0.1390  0.2034  1.2370
12758TIP3    H259766   2.384   2.477  17.025  0.5387  1.6864  0.4658
12759TIP3   OH259767   5.199   2.215  13.429 -0.1818  0.6940 -0.2644
12759TIP3    H159768   5.186   2.158  13.505  1.8016  1.3962  0.6805
12759TIP3    H259769   5.280   2.183  13.390 -0.4461  1.2354 -1.2761
12760TIP3   OH259770   0.345   6.200  12.137 -0.3182  0.2177  0.1367
12760TIP3    H159771   0.273   6.140  12.117  0.3902 -0.7179  0.3005
12760TIP3    H259772   0.331   6.226  12.228 -0.2987 -0.1886  0.2561
12761TIP3   OH259773   3.579   1.252  17.133 -0.3468 -0.2204  0.2148
12761TIP3    H159774   3.673   1.236  17.122 -0.2690 -0.5335  1.2225
12761TIP3    H259775   3.543   1.167  17.159 -0.6471  0.2196  1.3223
12762TIP3   OH259776   4.759   2.735   1.614 -0.2133 -0.7293  0.3156
12762TIP3    H159777   4.791   2.656   1.572  0.3193 -0.3821  0.0594
12762TIP3    H259778   4.802   2.737   1.699 -0.1211 -0.6424  0.2668
12763TIP3   OH259779   6.672   2.873  12.152  0.0261  0.0762  0.2568
12763TIP3    H159780   6.751   2.917  12.181  1.4858 -1.4195 -1.2011
12763TIP3    H259781   6.665   2.895  12.059 -1.9275  1.0535  0.5830
12764TIP3   OH259782   4.710   1.467   0.499  0.3530  0.3753  0.1208
12764TIP3    H159783   4.767   1.417   0.557 -0.1910  1.5072  1.6938
12764TIP3    H259784   4.729   1.433   0.411  2.4040 -0.2374  0.7530
12765TIP3   OH259785   6.629   3.878  16.672 -0.0541 -0.7886 -0.4197
12765TIP3    H159786   6.680   3.954  16.644  0.9630 -1.1252  0.4631
12765TIP3    H259787   6.692   3.806  16.670 -0.8929 -1.5201 -0.7939
12766TIP3   OH259788   5.775   1.905   3.875  0.6326  0.0435  0.0811
12766TIP3    H159789   5.737   1.938   3.794 -0.5308  0.8435  0.9232
12766TIP3    H259790   5.836   1.973   3.903  1.6249 -0.5762 -0.4905
12767TIP3   OH259791   0.995   6.748  16.251  0.3317 -0.2029  0.3162
12767TIP3    H159792   1.013   6.745  16.157 -1.0475  1.9267 -0.0672
12767TIP3    H259793   1.045   6.823  16.283  1.8924 -1.6881  1.6173
12768TIP3   OH259794   2.710   2.779  14.194  0.5657 -0.0281 -0.5061
12768TIP3    H159795   2.699   2.789  14.288 -0.1772  1.2482 -0.7102
12768TIP3    H259796   2.636   2.725  14.166  0.9914 -0.7253 -0.3266
12769TIP3   OH259797   0.292   1.590   3.872 -0.5701 -0.2594  0.1037
12769TIP3    H159798   0.356   1.655   3.845 -1.5099  0.2205 -1.0828
12769TIP3    H259799   0.328   1.506   3.843 -1.3673  0.1967 -2.4530
12770TIP3   OH259800   6.689   6.054  14.657  0.0733  0.4335 -0.0794
12770TIP3    H159801   6.595   6.046  14.638 -0.0270  0.8341  0.2491
12770TIP3    H259802   6.732   6.019  14.578 -0.3466  0.9498 -0.5471
12771TIP3   OH259803   5.469   4.844  17.061 -0.5382 -0.6837  0.2570
12771TIP3    H159804   5.408   4.869  17.131  0.5737  0.6153  0.8199
12771TIP3    H259805   5.549   4.819  17.108  0.9612  2.2442 -0.5121
12772TIP3   OH259806   4.458   1.976   0.857 -0.5570  0.6932 -0.1414
12772TIP3    H159807   4.439   1.945   0.769  1.5370 -1.6745  0.1065
12772TIP3    H259808   4.552   1.995   0.856 -0.6379  1.3488  1.3854
12773TIP3   OH259809   0.234   1.622   0.829  0.4964  0.2009  0.7672
12773TIP3    H159810   0.287   1.637   0.750  1.1544 -0.7766  1.0019
12773TIP3    H259811   0.270   1.541   0.866 -1.5860 -0.8586  0.5936
12774TIP3   OH259812   3.329   6.213  16.512  0.0236  0.1631  0.3209
12774TIP3    H159813   3.272   6.234  16.438 -0.3456 -0.3863  0.4502
12774TIP3    H259814   3.331   6.294  16.563  1.3771  1.0031 -0.9852
12775TIP3   OH259815   5.142   0.575   0.518 -0.2879 -0.1557 -0.3310
12775TIP3    H159816   5.154   0.527   0.436  0.9663 -0.9007  0.2647
12775TIP3    H259817   5.230   0.584   0.554 -0.6930  1.1292  0.4164
12776TIP3   OH259818   5.700   5.494  13.137 -0.2651 -0.0181  0.1699
12776TIP3    H159819   5.776   5.548  13.160  0.4888 -1.1596  0.5005
12776TIP3    H259820   5.625   5.551  13.148  0.5645  1.2468 -0.4739
12777TIP3   OH259821   6.713   0.043  11.657 -0.4406 -0.0785 -0.2842
12777TIP3    H159822   6.659   0.119  11.677  1.9447  1.4904  0.6040
12777TIP3    H259823   6.754   0.019  11.741 -0.0747 -1.4704 -0.8245
12778TIP3   OH259824   1.516   1.223   5.941 -0.5958  0.0073  0.2616
12778TIP3    H159825   1.458   1.284   5.987  0.6627  0.4876  1.2544
12778TIP3    H259826   1.499   1.139   5.982 -0.4695  0.1813  0.6802
12779TIP3   OH259827   0.395   6.075  11.514 -0.7690 -0.2384 -0.0704
12779TIP3    H159828   0.438   6.131  11.579  1.1863 -0.5851 -0.9828
12779TIP3    H259829   0.328   6.028  11.563 -0.0027  0.2354  1.4933
12780TIP3   OH259830   5.020   6.009  16.768 -0.4432  0.4066  0.3143
12780TIP3    H159831   5.002   5.918  16.790  1.3635  0.4276  2.1613
12780TIP3    H259832   5.061   6.005  16.681 -0.9031 -0.4807  0.1256
12781TIP3   OH259833   4.864   5.488  16.313  0.2134 -0.3433 -0.1801
12781TIP3    H159834   4.844   5.454  16.400  0.2430 -0.5292 -0.2442
12781TIP3    H259835   4.798   5.450  16.256  0.2289 -0.2686 -0.2493
12782TIP3   OH259836   1.392   5.593   5.215 -0.5799 -0.2142 -0.3473
12782TIP3    H159837   1.309   5.585   5.169 -0.8075 -0.8873  0.1494
12782TIP3    H259838   1.381   5.667   5.274 -0.9368 -0.4765 -0.0803
12783TIP3   OH259839   4.064   2.182   3.389  0.0293  0.1260 -0.0400
12783TIP3    H159840   4.075   2.135   3.472  0.4007  0.6437  0.2055
12783TIP3    H259841   4.100   2.269   3.406  1.9974 -0.3714 -1.3462
12784TIP3   OH259842   4.786   3.777   0.062  0.1048 -0.2771  0.3159
12784TIP3    H159843   4.795   3.856   0.116  0.7191 -0.8686  1.1284
12784TIP3    H259844   4.793   3.705   0.125  3.6910 -1.1029 -0.7828
12785TIP3   OH259845   5.210   4.670   4.280  0.5231  0.3474  0.2093
12785TIP3    H159846   5.157   4.657   4.201 -1.0254  1.5011  1.0054
12785TIP3    H259847   5.252   4.586   4.295  0.0066 -0.2027 -1.2531
12786TIP3   OH259848   3.750   2.225   6.233  0.0647  0.3355  0.2143
12786TIP3    H159849   3.759   2.266   6.319 -1.0610 -0.0019  0.5095
12786TIP3    H259850   3.724   2.295   6.174  2.4637  0.9292 -0.2523
12787TIP3   OH259851   1.895   6.486  17.070 -0.2173  0.2066 -0.3462
12787TIP3    H159852   1.919   6.526  16.986  0.6142  1.4715  0.4600
12787TIP3    H259853   1.945   6.405  17.073  0.3431  0.5303 -0.7392
12788TIP3   OH259854   2.667   6.546   1.965 -0.1498 -0.4402  0.1297
12788TIP3    H159855   2.665   6.545   2.061 -1.1964 -1.0359  0.1225
12788TIP3    H259856   2.587   6.592   1.940 -0.0243 -0.5374 -0.4571
12789TIP3   OH259857   4.443   6.282   0.577  0.0982  0.0465  0.6879
12789TIP3    H159858   4.357   6.315   0.601 -0.1964 -1.1323  1.3214
12789TIP3    H259859   4.426   6.208   0.518  0.6792  0.0386  0.5161
12790TIP3   OH259860   2.387   2.049  11.267  0.1491 -0.2463  0.5457
12790TIP3    H159861   2.418   2.113  11.204  1.2170 -0.3136  0.9864
12790TIP3    H259862   2.308   2.012  11.227 -0.5694  1.4248  0.3494
12791TIP3   OH259863   4.138   3.061  10.885 -0.1280 -0.0735  0.5314
12791TIP3    H159864   4.158   3.117  10.810  0.1160 -1.0911 -0.1785
12791TIP3    H259865   4.224   3.036  10.920 -0.2259 -0.3821  0.5538
12792TIP3   OH259866   1.109   2.689   4.709  0.6050  0.6391 -0.5530
12792TIP3    H159867   1.035   2.730   4.754 -0.7818 -1.3477 -0.8892
12792TIP3    H259868   1.083   2.687   4.617 -1.1788 -4.0559 -0.2421
12793TIP3   OH259869   1.401   2.732  14.597  0.2202 -0.4183  0.7898
12793TIP3    H159870   1.331   2.670  14.613 -0.2268 -0.0456  0.3216
12793TIP3    H259871   1.405   2.741  14.502 -0.7229  1.3680  0.8713
12794TIP3   OH259872   2.701   5.780   3.744  0.4960  0.2230  0.5146
12794TIP3    H159873   2.613   5.746   3.725  1.0304 -0.4717 -0.8876
12794TIP3    H259874   2.707   5.778   3.840  0.0268 -2.5705  0.5872
12795TIP3   OH259875   4.087   0.907  15.301  1.1056  0.3770  0.4273
12795TIP3    H159876   4.010   0.961  15.319  0.0933 -0.6845 -0.5580
12795TIP3    H259877   4.128   0.949  15.225  0.3670 -0.1757 -0.2861
12796TIP3   OH259878   4.885   2.023   1.604  0.2156  1.0158 -0.1623
12796TIP3    H159879   4.828   2.095   1.632 -0.0366  0.2837  1.2697
12796TIP3    H259880   4.939   2.004   1.680 -0.1486 -0.7308 -0.2954
12797TIP3   OH259881   1.444   5.329  15.045  0.1730 -0.4311 -0.2059
12797TIP3    H159882   1.361   5.284  15.030  0.0905 -0.5501  0.5816
12797TIP3    H259883   1.432   5.375  15.128  0.1598  1.2593 -1.0838
12798TIP3   OH259884   1.668   5.177   4.876  0.2248  0.1256 -0.1082
12798TIP3    H159885   1.687   5.210   4.788  0.7405  0.8766  0.2785
12798TIP3    H259886   1.737   5.112   4.893  1.2945  1.3751  0.4881
12799TIP3   OH259887   3.269   2.811  16.291 -0.0079 -0.0919 -0.0513
12799TIP3    H159888   3.299   2.900  16.307  0.5093 -0.3652  0.5767
12799TIP3    H259889   3.286   2.765  16.374  0.1620 -0.8829 -0.5123
12800TIP3   OH259890   2.820   5.786  12.437 -0.6664 -0.5066  0.5058
12800TIP3    H159891   2.817   5.881  12.431 -0.8659 -0.5093  0.5643
12800TIP3    H259892   2.743   5.755  12.389  0.6416 -0.7390 -1.5602
12801TIP3   OH259893   3.235   4.409   4.329  0.6461  0.2061  0.3949
12801TIP3    H159894   3.288   4.489   4.333  1.4525 -0.2010 -1.3934
12801TIP3    H259895   3.165   4.430   4.268  0.5034 -0.2434  0.4021
12802TIP3   OH259896   1.029   3.518   0.216 -0.4252  0.4388  0.4923
12802TIP3    H159897   1.071   3.601   0.238  1.8413 -1.0951  2.4055
12802TIP3    H259898   1.082   3.483   0.145  0.8052 -0.8779  1.9926
12803TIP3   OH259899   5.978   4.922  15.913  0.6198  0.6140 -0.5535
12803TIP3    H159900   5.977   4.837  15.869  1.0327 -0.6674  1.7392
12803TIP3    H259901   6.057   4.965  15.881  1.3432 -0.6094 -0.4738
12804TIP3   OH259902   6.711   1.121   5.049  0.2526 -0.4095 -0.1788
12804TIP3    H159903   6.735   1.170   5.127  1.4018  2.1169 -1.9781
12804TIP3    H259904   6.693   1.188   4.983 -0.8676 -2.4220 -2.0526
12805TIP3   OH259905   2.585   1.624   4.256  0.1537  0.5429 -0.3870
12805TIP3    H159906   2.581   1.559   4.186  0.6888  0.2629 -0.1632
12805TIP3    H259907   2.512   1.601   4.314 -0.5650  1.0456 -1.0739
12806TIP3   OH259908   3.981   2.950  13.186 -0.2082  0.2154  0.0123
12806TIP3    H159909   3.943   3.038  13.176  0.5943  0.6936  0.9044
12806TIP3    H259910   4.075   2.966  13.196  0.0292 -0.8055 -0.4860
12807TIP3   OH259911   2.103   1.628   3.530 -0.1876  0.0258 -0.2964
12807TIP3    H159912   2.110   1.625   3.626  0.2448  0.3432 -0.3135
12807TIP3    H259913   2.101   1.722   3.509  1.4872  0.0048 -0.7025
12808TIP3   OH259914   5.889   4.935   6.321  0.5557  0.3853 -0.5335
12808TIP3    H159915   5.840   4.957   6.400  0.9706 -1.1875  0.1944
12808TIP3    H259916   5.928   5.018   6.293  0.0163  1.0564  0.6365
12809TIP3   OH259917   5.249   4.827   4.501 -0.4057  0.7908 -0.1618
12809TIP3    H159918   5.203   4.773   4.436  0.9257  1.0311 -1.3426
12809TIP3    H259919   5.238   4.917   4.469 -1.0815  1.0692  0.8201
12810TIP3   OH259920   2.721   0.054  15.978  0.1208  0.1412 -0.1065
12810TIP3    H159921   2.667   0.078  15.903  1.3036  0.1292 -0.9864
12810TIP3    H259922   2.746   0.138  16.018 -1.5531  0.1269  1.0836
12811TIP3   OH259923   4.607   2.798  11.163 -0.1191  0.0250 -0.3414
12811TIP3    H159924   4.586   2.750  11.083  2.6199  0.4525 -1.3985
12811TIP3    H259925   4.658   2.736  11.216  0.5577  0.6713 -0.2245
12812TIP3   OH259926   4.368   6.648   0.935 -0.8054  0.0887  0.5393
12812TIP3    H159927   4.431   6.713   0.968 -1.0373  0.7926 -0.3525
12812TIP3    H259928   4.325   6.616   1.014  2.1576 -2.0919  1.4657
12813TIP3   OH259929   3.702   3.009  14.229 -0.6230 -0.1383 -0.0775
12813TIP3    H159930   3.699   3.099  14.197 -2.6944  0.9564  2.7927
12813TIP3    H259931   3.795   2.992  14.243 -0.0246  0.7908 -2.4490
12814TIP3   OH259932   4.283   6.242  16.544  0.0048  0.4125  0.0297
12814TIP3    H159933   4.228   6.201  16.477  0.8457 -1.6206  0.5088
12814TIP3    H259934   4.300   6.330  16.510  0.4352 -0.5532 -2.4850
12815TIP3   OH259935   5.182   3.330   4.115 -0.3776 -0.5361 -0.1137
12815TIP3    H159936   5.250   3.387   4.078  1.0794  0.4156  3.5741
12815TIP3    H259937   5.101   3.358   4.071  1.1822 -0.0486 -2.9240
12816TIP3   OH259938   5.605   5.001  11.612 -0.3713 -0.2029  0.1960
12816TIP3    H159939   5.572   5.059  11.543 -3.2188 -0.3198  1.3422
12816TIP3    H259940   5.606   5.055  11.691 -1.1909 -1.1856  0.8929
12817TIP3   OH259941   6.116   0.124  12.670 -0.5116  0.1536 -0.3689
12817TIP3    H159942   6.179   0.061  12.704  0.0692  0.8021 -0.2245
12817TIP3    H259943   6.087   0.173  12.748 -1.3749 -0.2896 -0.3959
12818TIP3   OH259944   6.153   5.180   4.720  0.2342  0.1971  0.2276
12818TIP3    H159945   6.185   5.235   4.792 -1.2704 -0.9138  1.8175
12818TIP3    H259946   6.176   5.091   4.745  0.9247 -0.1163 -1.3911
12819TIP3   OH259947   1.557   3.794  13.336  0.2388 -0.3264 -0.0812
12819TIP3    H159948   1.526   3.772  13.424  0.4331 -0.6969 -0.1043
12819TIP3    H259949   1.606   3.876  13.347 -0.7774  0.2852 -0.0525
12820TIP3   OH259950   4.562   5.802   0.160  0.4658 -0.0007  0.5020
12820TIP3    H159951   4.510   5.721   0.158  0.1112  0.2418 -1.1439
12820TIP3    H259952   4.652   5.772   0.163  0.3776 -0.5130 -1.0092
12821TIP3   OH259953   5.102   1.446   4.144  0.2683  0.0805 -0.2554
12821TIP3    H159954   5.175   1.444   4.083 -0.5204 -1.7217 -1.2326
12821TIP3    H259955   5.140   1.477   4.226  1.8356  0.4125 -1.0632
12822TIP3   OH259956   0.029   6.356   0.984  0.1751 -0.3501  0.0628
12822TIP3    H159957   0.107   6.321   1.026  1.0591  0.2144 -1.0537
12822TIP3    H259958  -0.011   6.412   1.050  1.4198  0.3603  0.2502
12823TIP3   OH259959   1.176   2.045   1.309 -0.2433  0.0716 -0.7293
12823TIP3    H159960   1.222   1.990   1.246  2.4345  0.4708  0.7369
12823TIP3    H259961   1.238   2.115   1.330 -1.4897  0.6105  1.4453
12824TIP3   OH259962   3.611   2.555   0.343  0.7350 -0.4238  0.4806
12824TIP3    H159963   3.679   2.510   0.394  2.0319  1.7225  0.7625
12824TIP3    H259964   3.619   2.518   0.255  1.9134 -0.5975  0.6480
12825TIP3   OH259965   0.394   5.174   0.879 -0.4186  0.0353 -0.5540
12825TIP3    H159966   0.425   5.092   0.917 -0.4364 -0.0987 -0.8306
12825TIP3    H259967   0.423   5.171   0.788 -2.4824 -0.7501 -1.2403
12826TIP3   OH259968   0.506   5.525   4.190  0.0043 -0.1282 -0.0374
12826TIP3    H159969   0.540   5.599   4.240  1.6164 -0.2891 -0.8296
12826TIP3    H259970   0.512   5.450   4.250  0.2685  0.0141  0.1149
12827TIP3   OH259971   1.996   1.266  14.252  0.4069  0.4609  0.0531
12827TIP3    H159972   1.954   1.324  14.315  1.1490  2.2174 -0.9987
12827TIP3    H259973   1.926   1.245  14.190  0.0025 -0.2262  0.7244
12828TIP3   OH259974   3.687   5.808   3.947  0.0230  0.4017 -0.2343
12828TIP3    H159975   3.686   5.739   3.880  0.1478 -1.7039  1.7794
12828TIP3    H259976   3.772   5.851   3.935  1.9346 -2.6405  0.9856
12829TIP3   OH259977   2.168   3.727  11.367 -0.9708  0.0495  0.2351
12829TIP3    H159978   2.140   3.673  11.293  0.9526 -0.7363  0.0151
12829TIP3    H259979   2.182   3.814  11.329 -1.7884  0.1211  0.0826
12830TIP3   OH259980   2.149   0.931  11.212  0.0496 -0.1886  0.2245
12830TIP3    H159981   2.115   0.986  11.141  0.7600  0.8236  0.6449
12830TIP3    H259982   2.243   0.926  11.196  0.0465 -0.9839  0.4083
12831TIP3   OH259983   3.537   6.342   3.814  0.0179 -0.1963  0.4851
12831TIP3    H159984   3.456   6.291   3.807 -0.0248 -0.6081  2.9413
12831TIP3    H259985   3.546   6.385   3.729 -3.0607  0.3222  0.3119
12832TIP3   OH259986   4.052   0.636  14.833  0.4030 -0.8826 -0.2954
12832TIP3    H159987   4.048   0.578  14.758 -0.7077 -0.7480 -0.3535
12832TIP3    H259988   4.002   0.713  14.806  0.4120 -0.6259  0.4062
12833TIP3   OH259989   2.145   0.006  16.193  0.0586  0.1220 -0.1849
12833TIP3    H159990   2.176  -0.035  16.273 -1.1774 -1.1075 -0.2958
12833TIP3    H259991   2.224   0.028  16.145  0.7873 -1.0298  0.4469
12834TIP3   OH259992   0.886   0.407   4.153  0.3381 -0.4184 -0.3740
12834TIP3    H159993   0.807   0.460   4.145 -0.1061 -1.2491 -1.8317
12834TIP3    H259994   0.856   0.325   4.192  0.8100 -0.0793  0.7387
12835TIP3   OH259995   2.664   2.429   1.080  0.1522  0.1670 -0.7882
12835TIP3    H159996   2.570   2.413   1.085  0.1605  0.1762 -0.5984
12835TIP3    H259997   2.693   2.426   1.171  0.4764 -0.6765 -0.9101
12836TIP3   OH259998   0.545   0.969   3.460  0.0800  0.0445 -0.9125
12836TIP3    H159999   0.596   0.896   3.495 -0.7329 -0.3309 -0.4868
12836TIP3    H260000   0.484   0.929   3.398  1.0115  0.6166 -2.2660
12837TIP3   OH260001   6.581   1.345   3.435 -0.1631 -0.0317  0.2483
12837TIP3    H160002   6.541   1.432   3.440 -0.3556 -0.1182  0.1859
12837TIP3    H260003   6.625   1.334   3.520  0.4390  0.4081  0.0028
12838TIP3   OH260004   0.417   2.134  16.756 -0.2711  0.0823  0.1640
12838TIP3    H160005   0.485   2.070  16.737  0.1977  0.4241  0.6859
12838TIP3    H260006   0.463   2.207  16.797 -0.8006  0.7438 -0.3886
12839TIP3   OH260007   5.893   6.467  16.192  0.5674 -0.5385  0.3705
12839TIP3    H160008   5.959   6.398  16.197  0.2240 -0.9077 -0.1420
12839TIP3    H260009   5.928   6.529  16.128  1.1635  0.0869  1.2752
12840TIP3   OH260010   6.011   4.650  12.379 -0.0763 -0.1408 -0.1791
12840TIP3    H160011   5.978   4.699  12.304 -0.0004 -1.1163 -0.8573
12840TIP3    H260012   6.007   4.558  12.352  0.6339 -0.4562  0.7401
12841TIP3   OH260013   1.337   3.045  11.513  0.4717 -0.6104  0.1368
12841TIP3    H160014   1.358   2.970  11.458 -0.7253 -0.7870 -0.1022
12841TIP3    H260015   1.275   3.011  11.577 -0.3666  0.2549 -0.1996
12842TIP3   OH260016   2.099   5.637   6.096 -0.1420 -0.2746  0.2618
12842TIP3    H160017   2.169   5.641   6.031 -0.0217 -1.2605  0.3208
12842TIP3    H260018   2.125   5.702   6.162  1.1513 -1.1581  0.6774
12843TIP3   OH260019   6.276   3.518   3.186 -0.4244  0.1471 -0.1570
12843TIP3    H160020   6.346   3.512   3.122  0.1136  0.9591  0.3302
12843TIP3    H260021   6.292   3.601   3.232 -2.1933  0.7916 -0.6092
12844TIP3   OH260022   3.951   2.795  13.436 -0.3065 -0.1112  0.0403
12844TIP3    H160023   3.956   2.877  13.486 -0.5507  0.8478 -1.4546
12844TIP3    H260024   3.928   2.822  13.347 -0.0075 -1.7798 -0.5819
12845TIP3   OH260025   3.987   0.881   4.720 -0.0765  0.0448 -0.1126
12845TIP3    H160026   3.973   0.813   4.785 -0.3676 -0.4820 -0.7193
12845TIP3    H260027   3.953   0.844   4.638  1.7524  0.0345 -0.9202
12846TIP3   OH260028   5.735   3.915   3.074  0.1422 -0.4246  0.2111
12846TIP3    H160029   5.828   3.931   3.091  1.0523 -2.9253 -1.7147
12846TIP3    H260030   5.710   3.982   3.010  1.0508 -0.5464 -0.2955
12847TIP3   OH260031   3.642   4.676  14.392  0.4727 -0.5728  0.2581
12847TIP3    H160032   3.587   4.755  14.387  1.2021 -0.0543  0.3206
12847TIP3    H260033   3.674   4.664  14.302  0.3665 -0.8015  0.2498
12848TIP3   OH260034   5.822   6.644  12.562 -0.1163  0.0792 -0.2657
12848TIP3    H160035   5.844   6.624  12.471  0.3680  0.8545 -0.3331
12848TIP3    H260036   5.848   6.735  12.573  0.6263 -0.2508  0.8905
12849TIP3   OH260037   5.068   2.948   0.630  0.1753 -0.0223 -0.5461
12849TIP3    H160038   5.142   2.991   0.588 -0.7029 -0.1335 -2.3471
12849TIP3    H260039   5.005   3.018   0.646  0.0981 -0.1338 -0.3586
12850TIP3   OH260040   0.839   2.925   5.937 -0.1391  0.0917 -0.1807
12850TIP3    H160041   0.841   3.016   5.906  0.0499  0.2361  0.2518
12850TIP3    H260042   0.929   2.894   5.926 -0.0260  0.2086  0.4183
12851TIP3   OH260043   6.062   1.346  16.307 -0.2358 -0.2825 -0.2509
12851TIP3    H160044   5.982   1.395  16.323  0.8968  1.0450  1.6853
12851TIP3    H260045   6.100   1.387  16.229 -0.7002  0.0324 -0.3155
12852TIP3   OH260046   4.071   5.580  17.011 -0.7185 -0.2621  1.0194
12852TIP3    H160047   4.152   5.544  17.044 -0.2767  1.1651  1.5873
12852TIP3    H260048   4.074   5.565  16.916 -0.3080 -1.1765  1.1763
12853TIP3   OH260049   0.321   5.824  12.604  0.0009  0.1744 -0.0680
12853TIP3    H160050   0.230   5.835  12.634  0.4152  2.1947  0.6402
12853TIP3    H260051   0.321   5.855  12.514 -0.0192  0.2037 -0.0581
12854TIP3   OH260052   3.039   4.853   3.685 -0.6962  0.3673 -0.0406
12854TIP3    H160053   3.000   4.854   3.773  2.1295 -1.9980  1.4226
12854TIP3    H260054   3.127   4.887   3.698  1.3331 -3.9742 -0.9229
12855TIP3   OH260055   2.142   0.217   3.483 -0.3226  0.1684  0.1660
12855TIP3    H160056   2.193   0.281   3.433 -0.7044  1.8049  1.7501
12855TIP3    H260057   2.067   0.197   3.426 -0.7723  2.0163  0.0483
12856TIP3   OH260058   0.702   6.292  14.230 -0.1537  0.1116 -0.4242
12856TIP3    H160059   0.749   6.368  14.195 -1.0743  0.1802 -1.5662
12856TIP3    H260060   0.711   6.225  14.162  0.2532 -0.6712  0.3707
12857TIP3   OH260061   6.364   5.347  15.763 -0.9089 -0.2816 -0.5326
12857TIP3    H160062   6.288   5.293  15.741 -2.0539  0.3741  1.4831
12857TIP3    H260063   6.382   5.397  15.684 -0.6573 -2.5917 -2.0129
12858TIP3   OH260064   1.327   6.782  11.437 -0.6842  0.5841  0.4127
12858TIP3    H160065   1.392   6.758  11.502  1.4877 -0.2306 -1.8716
12858TIP3    H260066   1.334   6.877  11.430  0.8168  0.4534 -0.2596
12859TIP3   OH260067   1.280   5.943   5.045 -0.2258 -0.1691  0.1182
12859TIP3    H160068   1.206   6.000   5.064 -0.9576 -1.1981  0.4234
12859TIP3    H260069   1.357   5.997   5.062 -0.8903  1.1008 -0.7669
12860TIP3   OH260070   2.102   2.721  14.924  0.2638 -0.2340 -0.7634
12860TIP3    H160071   2.161   2.754  14.992  0.0636 -0.5027 -0.4527
12860TIP3    H260072   2.060   2.645  14.964  2.4993 -2.4018 -2.2621
12861TIP3   OH260073   6.080   6.407  13.629  0.4477 -1.0675 -0.0227
12861TIP3    H160074   5.996   6.363  13.645  0.4575 -0.8581  0.6772
12861TIP3    H260075   6.066   6.496  13.662  0.9429 -1.0349  0.1037
12862TIP3   OH260076   2.180   3.695  15.148  0.3498  0.2133  0.1323
12862TIP3    H160077   2.249   3.762  15.148  0.9745 -0.4038 -1.0635
12862TIP3    H260078   2.149   3.693  15.058  1.4637 -2.2226 -0.2708
12863TIP3   OH260079   5.555   2.341   0.810  0.8148  0.3763 -0.9120
12863TIP3    H160080   5.592   2.362   0.724 -0.9461  2.3136 -1.2851
12863TIP3    H260081   5.563   2.246   0.817  2.0973  0.2996 -2.6905
12864TIP3   OH260082   6.609   1.875   1.657 -0.4077 -0.1400 -0.1966
12864TIP3    H160083   6.676   1.830   1.606 -1.2421 -0.6472 -0.8814
12864TIP3    H260084   6.624   1.968   1.640 -0.6805 -0.3026 -1.4095
12865TIP3   OH260085   5.192   6.076   1.750  0.1668 -0.2268  0.2705
12865TIP3    H160086   5.235   6.093   1.834  0.1623  1.6266 -0.0680
12865TIP3    H260087   5.101   6.105   1.764  0.9601  3.7767 -1.3585
12866TIP3   OH260088   1.344   4.301   1.742 -0.0726 -0.1200 -0.0351
12866TIP3    H160089   1.371   4.342   1.825 -1.7225 -1.2482  1.1074
12866TIP3    H260090   1.395   4.348   1.676  0.4578  1.6082  1.4869
12867TIP3   OH260091   6.693   1.402  15.062  1.0589 -0.3924 -0.0607
12867TIP3    H160092   6.736   1.317  15.071  0.8186 -0.3310  2.2913
12867TIP3    H260093   6.622   1.399  15.126  1.2073  1.6809  0.2390
12868TIP3   OH260094   2.342   2.474   5.082  0.4375  0.3407  0.5067
12868TIP3    H160095   2.270   2.451   5.141 -0.3135 -0.7183 -0.7558
12868TIP3    H260096   2.374   2.389   5.051  0.4986  0.8707 -0.9375
12869TIP3   OH260097   6.029   5.486   2.359  0.7447  0.1607 -0.6234
12869TIP3    H160098   5.936   5.510   2.369  1.1788  1.3591  0.8584
12869TIP3    H260099   6.052   5.517   2.271  0.0447  0.9213 -0.5508
12870TIP3   OH260100   5.223   6.520  16.376  0.1898  0.1318 -0.0992
12870TIP3    H160101   5.240   6.591  16.438  0.2421  0.2095 -0.2017
12870TIP3    H260102   5.274   6.544  16.298  0.1735  0.0033 -0.1484
12871TIP3   OH260103   1.823   1.288   4.187  0.1534  0.2458  0.0285
12871TIP3    H160104   1.747   1.337   4.157  0.4047  1.7115  1.6771
12871TIP3    H260105   1.787   1.214   4.235 -0.2153 -0.1442 -0.8284
12872TIP3   OH260106   1.799   3.551  11.088 -0.8651 -0.1605  0.7562
12872TIP3    H160107   1.721   3.500  11.065  0.4604 -1.2775 -1.6800
12872TIP3    H260108   1.867   3.518  11.030  1.0478  1.8625  1.6973
12873TIP3   OH260109   5.178   1.802   5.015 -0.5679 -0.4703  0.3207
12873TIP3    H160110   5.170   1.763   4.928  0.0877  0.0554  0.0161
12873TIP3    H260111   5.238   1.744   5.062  0.8721  0.4499 -0.3203
12874TIP3   OH260112   3.336   0.489   0.603 -0.1443  0.1193  0.6956
12874TIP3    H160113   3.308   0.397   0.596 -0.3165  0.1527  0.9405
12874TIP3    H260114   3.295   0.532   0.528 -0.8061  0.1797  1.0831
12875TIP3   OH260115   4.787   5.533  11.909  0.6990 -0.1570  0.5976
12875TIP3    H160116   4.708   5.479  11.912  0.2910  0.4349  0.5261
12875TIP3    H260117   4.842   5.498  11.979  0.7893 -1.1965  0.0295
12876TIP3   OH260118   6.432   3.336   4.805  0.1638 -0.0775  0.2836
12876TIP3    H160119   6.478   3.254   4.823  0.5944  0.5791  2.4274
12876TIP3    H260120   6.480   3.402   4.854 -0.5184  1.3936 -0.9353
12877TIP3   OH260121   6.786   5.745  10.717 -0.1504 -0.0170 -0.1525
12877TIP3    H160122   6.753   5.717  10.803  0.2855  0.2483  0.1064
12877TIP3    H260123   6.879   5.726  10.720 -0.1174  0.0775 -0.5357
12878TIP3   OH260124   5.404   3.058   6.332  0.9874 -0.3320  0.1400
12878TIP3    H160125   5.350   2.979   6.330 -0.0956  0.3536  0.8675
12878TIP3    H260126   5.494   3.026   6.339  0.6445 -1.5014 -0.5963
12879TIP3   OH260127   4.982   5.181   2.813  0.0782  0.0718  0.1641
12879TIP3    H160128   4.980   5.102   2.760  0.2837  1.2516 -1.6836
12879TIP3    H260129   5.016   5.152   2.898  0.8730 -1.6789 -0.7013
12880TIP3   OH260130   1.986   6.386   0.069  0.6331  0.2087 -0.0012
12880TIP3    H160131   1.973   6.435   0.151 -0.5432  0.8644 -0.5575
12880TIP3    H260132   1.931   6.431   0.005  1.2709 -0.5071 -1.0811
12881TIP3   OH260133   2.639   4.886   1.110 -0.0722  0.5435  0.1191
12881TIP3    H160134   2.638   4.975   1.143 -4.2048  0.9610 -0.6669
12881TIP3    H260135   2.616   4.832   1.185  3.3718 -0.1722  0.8494
12882TIP3   OH260136   0.641   4.082   4.844  0.1683  0.1951  0.4324
12882TIP3    H160137   0.548   4.104   4.839 -0.0844 -0.8892 -0.1656
12882TIP3    H260138   0.651   4.038   4.928 -0.3659 -1.6533 -0.3956
12883TIP3   OH260139   2.807   6.631   0.312 -0.2644 -0.2751  0.2442
12883TIP3    H160140   2.846   6.552   0.349 -0.3214  0.0703  1.0564
12883TIP3    H260141   2.777   6.681   0.387 -1.2082  0.0264 -0.3133
12884TIP3   OH260142   4.059   0.522  13.363 -0.1168  0.5493 -0.7221
12884TIP3    H160143   4.130   0.516  13.299  1.2596  1.8518  0.5936
12884TIP3    H260144   4.016   0.605  13.344 -3.1660 -1.3652 -3.2174
12885TIP3   OH260145   1.875   1.472  14.425  0.7294  0.2205  0.0609
12885TIP3    H160146   1.815   1.544  14.409 -1.2802 -1.1430  0.9512
12885TIP3    H260147   1.919   1.495  14.507 -1.0926 -0.2095  1.2266
12886TIP3   OH260148   3.685   5.130  14.711  0.7459  0.2856  0.0940
12886TIP3    H160149   3.594   5.144  14.687 -0.3205 -3.2292  1.4110
12886TIP3    H260150   3.727   5.097  14.632  0.2822 -0.1989  0.0473
12887TIP3   OH260151   1.371   4.261  16.149  0.0581 -0.1841 -0.2348
12887TIP3    H160152   1.299   4.292  16.094  1.1850 -0.9648 -2.2329
12887TIP3    H260153   1.343   4.282  16.238 -1.8710  1.0704 -1.0638
12888TIP3   OH260154   5.796   1.567  15.815  0.1044 -0.1058  0.5271
12888TIP3    H160155   5.827   1.561  15.724  1.3806 -1.2601  1.0060
12888TIP3    H260156   5.807   1.659  15.838  2.6351 -0.3259  0.4358
12889TIP3   OH260157   5.756   6.111   6.345 -0.1077 -0.1286 -0.2577
12889TIP3    H160158   5.790   6.036   6.394 -1.8094 -1.3611 -0.8825
12889TIP3    H260159   5.682   6.142   6.398  0.5430  1.1151 -0.0346
12890TIP3   OH260160   5.387   2.516  10.539 -0.0061 -0.0878 -0.2805
12890TIP3    H160161   5.319   2.448  10.540 -0.1295  0.0250 -0.9876
12890TIP3    H260162   5.351   2.586  10.594  0.5278 -0.9610  1.2719
12891TIP3   OH260163   1.156   1.895   4.401  0.0048  0.2220  0.1682
12891TIP3    H160164   1.069   1.929   4.381 -0.5929 -1.0471  0.4875
12891TIP3    H260165   1.139   1.814   4.450  1.3694  0.1332  0.5298
12892TIP3   OH260166   3.860   4.532   0.299 -0.5013  0.5576 -0.1443
12892TIP3    H160167   3.767   4.509   0.299 -1.3731  3.5188 -1.1703
12892TIP3    H260168   3.875   4.571   0.213  1.2579  1.6371  0.5859
12893TIP3   OH260169   1.310   0.155  14.191  0.2755 -0.6311  0.2582
12893TIP3    H160170   1.222   0.183  14.217  0.1666 -0.3830 -0.3693
12893TIP3    H260171   1.369   0.207  14.246  0.0228 -1.6238  1.5020
12894TIP3   OH260172   6.649   1.272  12.284  0.1989  0.2660  0.0937
12894TIP3    H160173   6.737   1.300  12.311 -0.3280  0.4155  1.7152
12894TIP3    H260174   6.591   1.339  12.319 -0.5516  0.4367 -1.4030
12895TIP3   OH260175   5.095   1.264   6.365 -0.5529 -0.2947  0.5049
12895TIP3    H160176   5.141   1.196   6.316 -0.2545  0.4140 -0.2380
12895TIP3    H260177   5.005   1.262   6.330 -0.8991 -1.1514  1.3979
12896TIP3   OH260178   2.879   0.059  10.892  0.2015  0.7074  0.2441
12896TIP3    H160179   2.933  -0.019  10.903  1.5438  1.6419  0.5117
12896TIP3    H260180   2.923   0.126  10.944 -1.4773  1.3994  0.8567
12897TIP3   OH260181   5.867   2.210  12.619  0.0646  0.1692 -0.7720
12897TIP3    H160182   5.898   2.240  12.534 -0.7951  0.4130 -1.0075
12897TIP3    H260183   5.851   2.116  12.606  1.3370 -0.1110 -0.4504
12898TIP3   OH260184   5.575   1.257  12.139 -0.2179 -0.3778 -0.8081
12898TIP3    H160185   5.610   1.307  12.212 -0.3765 -0.6527 -0.5388
12898TIP3    H260186   5.648   1.202  12.111 -0.4354 -0.9885 -0.2138
12899TIP3   OH260187   4.360   1.994  13.964 -0.2931 -0.0736 -0.3343
12899TIP3    H160188   4.350   1.903  13.991  1.6956 -0.2662 -0.0466
12899TIP3    H260189   4.410   1.989  13.883 -0.9490  0.7430 -0.8020
12900TIP3   OH260190   2.295   5.585   3.872  0.4602 -0.0945 -0.1778
12900TIP3    H160191   2.297   5.511   3.933 -0.4603  0.5451  0.6462
12900TIP3    H260192   2.205   5.617   3.875  1.4983  3.0626  1.9533
12901TIP3   OH260193   6.115   4.701  14.339  0.0895  0.3036  0.1753
12901TIP3    H160194   6.087   4.715  14.249 -1.6313  2.3082  0.9489
12901TIP3    H260195   6.210   4.712  14.336  0.2714 -1.2065 -1.5939
12902TIP3   OH260196   0.742   6.750  13.050 -0.1293 -0.1000 -0.5956
12902TIP3    H160197   0.678   6.787  12.990  0.2394  2.6318  0.5803
12902TIP3    H260198   0.692   6.731  13.130  0.0922 -0.2611 -0.4938
12903TIP3   OH260199   6.603   2.091  11.040 -0.1824 -0.0073  0.0629
12903TIP3    H160200   6.549   2.154  11.088  0.5661 -0.3050  1.3426
12903TIP3    H260201   6.693   2.120  11.052  0.0346 -0.0816 -1.2111
12904TIP3   OH260202   3.469   2.127  16.488  0.3851  0.2853 -0.1104
12904TIP3    H160203   3.466   2.188  16.414  0.5798  0.5335  0.0792
12904TIP3    H260204   3.439   2.179  16.563 -0.2833 -0.1056 -0.1051
12905TIP3   OH260205   0.703   1.127  15.764  0.3611 -0.5008 -0.1265
12905TIP3    H160206   0.730   1.085  15.682  0.4271 -1.4532  0.3584
12905TIP3    H260207   0.778   1.117  15.822  0.9222  1.6159 -0.4419
12906TIP3   OH260208   5.913   3.885  15.861 -0.1576  0.1031  0.4608
12906TIP3    H160209   5.877   3.934  15.934 -1.4226 -4.7513  3.5567
12906TIP3    H260210   5.840   3.876  15.799 -0.9778 -0.6723  1.5149
12907TIP3   OH260211   1.659   3.832   6.183  0.4797  0.3247  0.0675
12907TIP3    H160212   1.729   3.860   6.123  0.7706  2.5377  1.3244
12907TIP3    H260213   1.700   3.831   6.269 -1.0872  2.2891  0.9395
12908TIP3   OH260214   5.550   1.941  11.705 -0.1145 -0.5373 -0.0417
12908TIP3    H160215   5.473   1.996  11.721  0.1888  0.7921 -2.5635
12908TIP3    H260216   5.573   1.907  11.791 -1.4460  1.8073  1.3785
12909TIP3   OH260217   2.530   0.895  11.483 -0.9234  0.5178  0.4616
12909TIP3    H160218   2.561   0.811  11.516  2.5373  1.4358  0.0323
12909TIP3    H260219   2.502   0.877  11.393 -0.6640 -0.2734  0.5347
12910TIP3   OH260220   6.572   2.561  13.729  0.6206  0.2490  0.4003
12910TIP3    H160221   6.606   2.624  13.665  1.8044  0.4279  1.1701
12910TIP3    H260222   6.510   2.611  13.782  1.4185  0.7467  0.8916
12911TIP3   OH260223   4.370   6.738   1.469 -0.3315  0.0588 -0.2346
12911TIP3    H160224   4.279   6.760   1.488 -0.2243  0.1015  0.2418
12911TIP3    H260225   4.403   6.699   1.550 -0.5586 -2.0577 -1.0983
12912TIP3   OH260226   4.607   6.423   4.991  0.0643 -0.2973  0.1695
12912TIP3    H160227   4.697   6.449   5.009 -0.2701  1.1062 -0.0515
12912TIP3    H260228   4.575   6.386   5.073  0.3478  0.6795  0.7288
12913TIP3   OH260229   1.023   1.530   1.953 -0.5381 -0.3376 -0.0250
12913TIP3    H160230   1.041   1.444   1.991 -1.7793 -0.4627  0.3260
12913TIP3    H260231   0.930   1.527   1.930 -0.5762  0.8864 -0.0792
12914TIP3   OH260232   0.681   4.075   0.501 -0.4138 -0.3018  0.5344
12914TIP3    H160233   0.770   4.090   0.472 -0.9048 -0.1912 -1.0194
12914TIP3    H260234   0.655   4.156   0.545 -0.0878  0.0388  0.0986
12915TIP3   OH260235   5.780   2.038  11.256 -0.1066  0.1704  0.3792
12915TIP3    H160236   5.820   1.960  11.217  2.7168  1.6513  0.0446
12915TIP3    H260237   5.782   2.022  11.350  0.4668 -0.1658  0.3120
12916TIP3   OH260238   2.376   4.321   0.581  0.8168  0.3063  0.3415
12916TIP3    H160239   2.308   4.270   0.537 -0.0072 -0.4469  2.3735
12916TIP3    H260240   2.458   4.290   0.543  0.3090 -2.1945  1.0854
12917TIP3   OH260241   6.192   4.118  12.869 -0.5724 -0.2321  0.2703
12917TIP3    H160242   6.205   4.189  12.931  1.0345  0.7393 -1.0770
12917TIP3    H260243   6.165   4.161  12.788 -1.6725 -1.3732 -0.0038
12918TIP3   OH260244   0.914   1.774   5.411  0.0394 -0.0093 -0.4571
12918TIP3    H160245   0.878   1.691   5.444 -0.2246  0.7807  1.3904
12918TIP3    H260246   0.933   1.824   5.491  0.1386  1.7341 -1.5380
12919TIP3   OH260247   4.489   0.890   4.867 -0.1938 -0.2422  0.3965
12919TIP3    H160248   4.410   0.911   4.916 -0.4144  2.0945 -0.8422
12919TIP3    H260249   4.465   0.902   4.775  2.0315  2.4558  0.0333
12920TIP3   OH260250   6.469   0.302  16.789 -0.0968  0.0679  0.6627
12920TIP3    H160251   6.544   0.250  16.818  0.2511 -0.1043 -0.4973
12920TIP3    H260252   6.442   0.261  16.706 -4.0025 -2.4592  2.8399
12921TIP3   OH260253   2.026   5.724   3.482  0.2189  0.7707  0.1340
12921TIP3    H160254   2.067   5.705   3.398 -1.8588  1.8166 -1.1973
12921TIP3    H260255   1.996   5.638   3.514 -0.3343  0.5324 -0.9723
12922TIP3   OH260256   3.061   6.210   6.996  0.3029 -0.2851 -0.1598
12922TIP3    H160257   2.969   6.226   7.018  0.1924 -1.0664 -0.0156
12922TIP3    H260258   3.082   6.276   6.931 -0.4880 -0.3681 -0.5067
12923TIP3   OH260259   0.832   1.509  13.062  0.5996  0.1371  0.3455
12923TIP3    H160260   0.916   1.539  13.098  0.3040 -0.4145  1.5148
12923TIP3    H260261   0.809   1.433  13.115  0.0998 -0.6514 -0.9535
12924TIP3   OH260262   1.799   3.009   4.808  0.1335 -0.0041  0.1711
12924TIP3    H160263   1.775   2.919   4.830  0.1222 -0.2309 -0.7364
12924TIP3    H260264   1.747   3.062   4.868 -0.5017 -0.5756  0.1458
12925TIP3   OH260265   4.936   4.506   0.306  0.0824 -0.1007 -0.1308
12925TIP3    H160266   4.947   4.417   0.340 -1.3739 -0.3046 -0.1477
12925TIP3    H260267   4.853   4.536   0.343  0.1534  0.9508 -0.7872
12926TIP3   OH260268   3.566   2.608  10.681  0.3083  0.2189 -0.4262
12926TIP3    H160269   3.494   2.596  10.619  0.1705  1.7631 -0.6189
12926TIP3    H260270   3.624   2.672  10.639  1.3556 -0.3581  0.1002
12927TIP3   OH260271   6.434   4.864   0.868 -0.9302  0.3338 -0.0518
12927TIP3    H160272   6.392   4.937   0.915 -0.4368 -0.5560  1.8611
12927TIP3    H260273   6.364   4.828   0.814 -2.0409  0.3529  1.3039
12928TIP3   OH260274   1.090   2.138  11.126 -0.0870  0.2813  0.3558
12928TIP3    H160275   1.036   2.216  11.112 -2.0493 -1.0757 -0.0849
12928TIP3    H260276   1.055   2.097  11.205 -0.1476 -0.9705 -0.2863
12929TIP3   OH260277   5.139   3.903  12.784  0.1641  0.3275  0.0871
12929TIP3    H160278   5.098   3.835  12.731  0.1870  2.2647 -2.6346
12929TIP3    H260279   5.066   3.942  12.833 -0.2153 -0.1802 -0.0658
12930TIP3   OH260280   2.539   0.405   2.661 -0.1089  0.1381  0.1367
12930TIP3    H160281   2.444   0.399   2.672 -0.2404 -0.5411 -1.2013
12930TIP3    H260282   2.565   0.319   2.626  0.6096  1.1586 -2.0079
12931TIP3   OH260283   4.911   4.277   2.057  0.0091  0.3050  0.1581
12931TIP3    H160284   5.006   4.271   2.066  0.0926 -0.6224 -1.0541
12931TIP3    H260285   4.895   4.268   1.963 -1.2404  1.1017  0.2662
12932TIP3   OH260286   4.913   5.993  12.700 -0.4612  0.0197  0.0448
12932TIP3    H160287   4.872   6.053  12.763 -1.0142 -0.3793  0.0707
12932TIP3    H260288   4.944   5.920  12.753 -1.3452 -0.5410 -0.1910
12933TIP3   OH260289   0.687   2.207  17.103  0.1443  0.5612 -0.1020
12933TIP3    H160290   0.712   2.124  17.062 -2.5813  0.8408 -2.6269
12933TIP3    H260291   0.696   2.272  17.034 -0.8382  1.7962  0.8867
12934TIP3   OH260292   0.268   5.612  13.309 -0.1833  0.2472 -0.2384
12934TIP3    H160293   0.311   5.696  13.322  0.5501 -0.0591 -0.5764
12934TIP3    H260294   0.341   5.549  13.302 -0.7235 -0.5540  0.9331
12935TIP3   OH260295   4.841   3.130   1.386 -0.2051  0.0460 -0.1570
12935TIP3    H160296   4.854   3.068   1.457  1.2506  0.8020  0.2685
12935TIP3    H260297   4.928   3.143   1.349 -0.6494  1.0494 -0.9004
12936TIP3   OH260298   5.288   2.448   2.909  0.2954 -0.2584  0.1070
12936TIP3    H160299   5.257   2.509   2.842 -2.4273 -0.5619  0.9363
12936TIP3    H260300   5.356   2.397   2.866 -0.4939  0.3815 -2.0476
12937TIP3   OH260301   5.135   0.978   5.644  0.2485  0.0214  0.3612
12937TIP3    H160302   5.071   0.908   5.628  0.1610  0.0147  0.7421
12937TIP3    H260303   5.185   0.949   5.719 -1.4599  1.5034  2.1779
12938TIP3   OH260304   2.692   6.274   4.784 -0.5969  0.5888  0.4153
12938TIP3    H160305   2.744   6.273   4.864  0.1028  0.3223 -0.0344
12938TIP3    H260306   2.754   6.300   4.715 -1.2851  1.2314  0.0278
12939TIP3   OH260307   5.324   3.849   1.100 -0.3422  0.1236 -0.6446
12939TIP3    H160308   5.417   3.864   1.079 -0.0552  1.1026  1.0919
12939TIP3    H260309   5.279   3.927   1.066 -0.2396  0.5292  0.1305
12940TIP3   OH260310   4.659   4.201   4.290 -0.4636 -0.0325 -0.1396
12940TIP3    H160311   4.724   4.251   4.242  0.6310 -1.5094 -0.2683
12940TIP3    H260312   4.649   4.119   4.241 -0.6452 -0.8238  1.1493
12941TIP3   OH260313   0.006   4.985  16.986 -0.3265 -0.3747  0.4836
12941TIP3    H160314   0.067   4.992  16.912 -1.8290 -1.7715 -0.9766
12941TIP3    H260315   0.036   4.909  17.035  0.0612 -0.0604  0.7465
12942TIP3   OH260316   1.184   4.765   2.823  0.1652  0.5593  0.3612
12942TIP3    H160317   1.191   4.690   2.763 -0.2211 -0.2319  1.2702
12942TIP3    H260318   1.112   4.817   2.788  0.4699  0.5330 -0.3109
12943TIP3   OH260319   0.319   3.731   1.911 -0.2041  0.3052  0.1073
12943TIP3    H160320   0.405   3.738   1.952 -0.4869  0.4792  0.6719
12943TIP3    H260321   0.287   3.821   1.905 -0.5358  0.2025  0.3072
12944TIP3   OH260322   4.181   0.703  17.192  0.5355 -0.8174  0.0061
12944TIP3    H160323   4.092   0.672  17.209 -0.6078  2.0701 -0.2806
12944TIP3    H260324   4.199   0.676  17.102  0.0951 -1.6341  0.1471
12945TIP3   OH260325   3.151   0.534  11.802  1.2174 -0.0589  0.0724
12945TIP3    H160326   3.171   0.591  11.876  3.1148  0.0923 -0.5189
12945TIP3    H260327   3.152   0.592  11.726 -0.8845 -0.1762 -0.1096
12946TIP3   OH260328   5.221   0.557   1.554  0.3438  0.0956  0.0808
12946TIP3    H160329   5.194   0.493   1.619 -0.7976  1.8413  1.4303
12946TIP3    H260330   5.258   0.505   1.482 -1.5590 -2.1031  0.5903
12947TIP3   OH260331   2.453   5.874  13.671 -0.1519 -0.4019 -0.3125
12947TIP3    H160332   2.464   5.834  13.757 -1.5278 -0.6733 -0.2386
12947TIP3    H260333   2.506   5.953  13.674  1.7545 -1.6365 -0.0868
12948TIP3   OH260334   3.717   4.088  15.095 -0.4089 -0.5532 -0.0678
12948TIP3    H160335   3.734   4.181  15.106  0.0221 -0.4239 -1.5277
12948TIP3    H260336   3.798   4.045  15.121 -0.2361 -0.4298 -0.3917
12949TIP3   OH260337   4.215   0.126  11.937 -0.1880  0.6852  0.2271
12949TIP3    H160338   4.171   0.102  12.018  0.7168 -0.5522  0.3902
12949TIP3    H260339   4.302   0.155  11.964  0.0635  0.4214 -0.2672
12950TIP3   OH260340   0.821   2.709   0.730 -0.3867 -0.2976 -0.1257
12950TIP3    H160341   0.866   2.684   0.810  0.0047 -0.4000 -0.3731
12950TIP3    H260342   0.870   2.785   0.698 -0.5489 -0.2474 -0.2601
12951TIP3   OH260343   1.048   5.289   3.730 -0.2001 -0.6193 -0.3136
12951TIP3    H160344   1.134   5.289   3.771 -0.1008  0.0343 -0.5123
12951TIP3    H260345   1.064   5.319   3.640 -0.7752  0.6160 -0.0244
12952TIP3   OH260346   3.235   4.631   6.060 -0.7212  0.6011  0.4110
12952TIP3    H160347   3.326   4.646   6.035 -0.9469  1.7152  0.1916
12952TIP3    H260348   3.231   4.538   6.085  0.2484  0.2978 -0.5067
12953TIP3   OH260349   1.768   6.342   6.198 -0.7115 -0.2679 -0.3758
12953TIP3    H160350   1.786   6.392   6.118 -1.1102 -1.9939 -1.6064
12953TIP3    H260351   1.674   6.352   6.213 -0.2846  1.9737  1.2953
12954TIP3   OH260352   3.170   1.833   0.574 -0.1003 -0.3240 -0.6575
12954TIP3    H160353   3.142   1.741   0.569 -0.8595 -0.2506  1.3119
12954TIP3    H260354   3.098   1.882   0.535 -0.1174 -0.4871 -0.8376
12955TIP3   OH260355   2.981   3.111   4.307 -0.4177  0.3584 -0.2812
12955TIP3    H160356   2.946   3.107   4.218  0.9320 -1.0181 -0.7810
12955TIP3    H260357   2.910   3.151   4.358 -1.8243 -0.2161 -1.6806
12956TIP3   OH260358   5.131   0.168   0.336 -0.1144 -0.1042 -0.2530
12956TIP3    H160359   5.062   0.221   0.298 -2.4284 -2.5120  0.2590
12956TIP3    H260360   5.132   0.192   0.429 -2.6817 -2.2137  0.4605
12957TIP3   OH260361   1.055   3.247  13.898  0.2248  0.3343  0.1503
12957TIP3    H160362   1.047   3.173  13.838  2.0663 -0.5757  0.9332
12957TIP3    H260363   1.136   3.291  13.872 -0.3603  1.5482  0.2841
12958TIP3   OH260364   3.243   6.460  11.880 -0.3767 -0.2022 -0.2281
12958TIP3    H160365   3.213   6.511  11.955  0.0135  0.0129 -0.2129
12958TIP3    H260366   3.333   6.437  11.901 -0.7647 -1.4933  0.0595
12959TIP3   OH260367   2.743   4.754   1.434 -0.1114 -0.3774 -0.2245
12959TIP3    H160368   2.773   4.829   1.485 -0.9541 -0.5227  0.5176
12959TIP3    H260369   2.737   4.683   1.497 -1.4479 -0.4895 -0.4398
12960TIP3   OH260370   1.567   3.884  16.529 -0.0617  0.2147 -0.6772
12960TIP3    H160371   1.615   3.919  16.605  2.1985  0.5350 -2.1373
12960TIP3    H260372   1.487   3.936  16.525 -0.0618  0.4271  1.2560
12961TIP3   OH260373   5.826   0.884   2.265  0.0184  0.1793  0.0879
12961TIP3    H160374   5.849   0.976   2.253 -2.1602  0.9864  1.4624
12961TIP3    H260375   5.910   0.838   2.269  1.1275  2.0030 -1.2443
12962TIP3   OH260376   0.593   4.315   2.045 -0.1176  0.2857 -0.1827
12962TIP3    H160377   0.537   4.307   1.968  1.4888 -0.8381 -1.2970
12962TIP3    H260378   0.653   4.386   2.024  1.2622 -0.9522 -0.6608
12963TIP3   OH260379   5.996   6.305  10.582  0.2145 -0.1557  0.1109
12963TIP3    H160380   6.081   6.334  10.548  1.4774 -1.6738  1.7325
12963TIP3    H260381   6.005   6.210  10.589 -2.4836 -0.6692 -1.7949
12964TIP3   OH260382   3.094   3.101   3.342  0.0960  0.6449  0.1339
12964TIP3    H160383   3.086   3.011   3.374  2.4117  1.1906  2.5730
12964TIP3    H260384   3.005   3.136   3.347 -0.7596 -1.3407 -0.4412
12965TIP3   OH260385   0.739   2.209  12.511 -0.5339 -0.4954  0.1973
12965TIP3    H160386   0.799   2.191  12.583 -0.6352 -0.2046  0.3564
12965TIP3    H260387   0.730   2.125  12.466  0.9836 -0.2675 -0.6038
12966TIP3   OH260388   4.254   5.390   0.491 -0.1671  0.3272 -0.3658
12966TIP3    H160389   4.175   5.444   0.495  0.0384  0.5833  0.3660
12966TIP3    H260390   4.220   5.300   0.480 -0.7513  0.0227  2.8566
12967TIP3   OH260391   4.409   5.502  15.051  0.0936 -0.4631 -0.3522
12967TIP3    H160392   4.435   5.526  14.962  2.8855 -2.5911 -0.2501
12967TIP3    H260393   4.463   5.557  15.108 -1.3630  0.5798  0.0559
12968TIP3   OH260394   5.571   1.894   2.649  0.2239  0.3714  0.4632
12968TIP3    H160395   5.576   1.955   2.723  0.4435  0.1667  0.6204
12968TIP3    H260396   5.627   1.820   2.675  0.1341  0.2022  0.1825
12969TIP3   OH260397   0.750   6.623  12.213 -0.0138 -0.0840 -0.4611
12969TIP3    H160398   0.712   6.536  12.223 -0.1130 -0.2009 -1.7585
12969TIP3    H260399   0.802   6.618  12.133 -1.5857  1.5945 -1.6732
12970TIP3   OH260400   2.935   0.249  14.253  0.0608 -0.3715  0.0829
12970TIP3    H160401   3.002   0.293  14.305  1.6895  0.3718 -2.4025
12970TIP3    H260402   2.940   0.157  14.279  0.1030  0.1051  1.8581
12971TIP3   OH260403   4.894   4.630   1.197 -0.0348  0.5145 -0.7380
12971TIP3    H160404   4.905   4.722   1.172 -0.8275  0.7795 -0.1370
12971TIP3    H260405   4.803   4.611   1.178 -0.6607  0.6839  1.7204
12972TIP3   OH260406   3.011   4.289  12.917 -0.0551  0.4402 -0.4133
12972TIP3    H160407   2.992   4.382  12.903 -1.0960  0.1714 -0.9170
12972TIP3    H260408   3.046   4.284  13.006 -0.3426  1.2634 -0.2463
12973TIP3   OH260409   4.474   4.316  16.199  0.1969  0.0052  0.2199
12973TIP3    H160410   4.393   4.368  16.199  1.1665  1.6019 -0.7332
12973TIP3    H260411   4.446   4.228  16.178 -1.3583  0.4137  0.4571
12974TIP3   OH260412   1.662   3.022  13.144 -0.3283  0.2399  0.4221
12974TIP3    H160413   1.672   3.117  13.155  0.3805  0.2324 -0.1421
12974TIP3    H260414   1.726   2.984  13.205 -0.5524  0.1179  0.5858
12975TIP3   OH260415   5.601   2.300   4.375 -0.1309 -0.3945 -0.3960
12975TIP3    H160416   5.535   2.360   4.408 -0.4050 -0.9876  0.1424
12975TIP3    H260417   5.680   2.320   4.426  0.0631  0.1909 -0.9159
12976TIP3   OH260418   2.246   1.246   0.734  0.0507 -0.0327 -0.8336
12976TIP3    H160419   2.317   1.250   0.798  0.1750  1.5688 -1.0345
12976TIP3    H260420   2.261   1.163   0.687  0.9136 -0.4260  0.1013
12977TIP3   OH260421   2.968   0.086   2.716 -0.3437  0.0072 -0.4834
12977TIP3    H160422   3.059   0.070   2.693 -0.5995  1.9004 -3.3493
12977TIP3    H260423   2.971   0.124   2.804  1.5104 -0.7445 -0.1923
12978TIP3   OH260424   6.187   5.621   4.110  0.2728  0.8448 -0.7185
12978TIP3    H160425   6.115   5.684   4.115 -1.1487 -0.6891 -0.9497
12978TIP3    H260426   6.154   5.551   4.053  1.1233 -0.9443  0.8717
12979TIP3   OH260427   5.774   0.718  15.314 -0.0058  0.4920  0.0875
12979TIP3    H160428   5.860   0.678  15.326  0.4106  1.4516  0.3472
12979TIP3    H260429   5.770   0.788  15.380 -1.0877  0.2949  0.2614
12980TIP3   OH260430   1.093   3.892   0.136  0.0677  0.1696  0.2189
12980TIP3    H160431   1.093   3.975   0.088  0.4164  0.2429  0.3469
12980TIP3    H260432   1.181   3.885   0.173  0.0410 -0.2571  0.2103
12981TIP3   OH260433   5.757   0.242  13.035  0.0395  0.1432 -0.1369
12981TIP3    H160434   5.712   0.213  12.956 -0.7284  4.1511 -1.3993
12981TIP3    H260435   5.809   0.317  13.007  1.6587  0.2609  2.7834
12982TIP3   OH260436   6.590   3.286  14.885 -0.1883  0.2158  0.1982
12982TIP3    H160437   6.638   3.211  14.850 -1.5527 -0.7323  0.2750
12982TIP3    H260438   6.512   3.293  14.829 -0.9025  0.5445  1.2097
12983TIP3   OH260439   5.079   4.815  13.326 -0.5039 -0.2211  0.1437
12983TIP3    H160440   5.012   4.813  13.258  1.3107 -2.0815 -1.7153
12983TIP3    H260441   5.145   4.875  13.294 -0.1303 -0.2766  0.7920
12984TIP3   OH260442   5.049   0.222  15.395 -0.4523  0.6069  0.3205
12984TIP3    H160443   4.970   0.266  15.428  0.0354 -0.3898  3.0946
12984TIP3    H260444   5.065   0.152  15.458  2.8119  0.9333 -0.0082
12985TIP3   OH260445   5.495   6.250   6.116  0.4856  0.1657 -0.0417
12985TIP3    H160446   5.443   6.214   6.045  0.8978 -3.1239  1.1189
12985TIP3    H260447   5.431   6.279   6.181  0.1292  0.9109 -0.7160
12986TIP3   OH260448   1.255   5.936   0.754  0.1474 -0.1948  0.3095
12986TIP3    H160449   1.328   5.997   0.769 -0.2384  0.0761  1.1953
12986TIP3    H260450   1.179   5.993   0.742 -0.1325 -0.4873  0.6554
12987TIP3   OH260451   0.925   0.765  13.940  0.4190  0.0622 -0.2098
12987TIP3    H160452   0.878   0.711  14.003 -0.3634  0.3550 -0.5263
12987TIP3    H260453   0.875   0.847  13.937  0.7810  0.2684 -0.7737
12988TIP3   OH260454   5.021   2.435  10.914  0.6932 -0.1721 -0.1448
12988TIP3    H160455   5.062   2.370  10.857 -0.4987  0.3683 -1.6785
12988TIP3    H260456   4.968   2.383  10.976  1.6947 -0.7411  0.2671
12989TIP3   OH260457   3.427   0.247   4.558 -0.2644  0.1760 -0.2647
12989TIP3    H160458   3.401   0.162   4.594  1.1318 -0.8822 -1.5780
12989TIP3    H260459   3.521   0.252   4.576  0.2451  0.1463 -2.5421
12990TIP3   OH260460   5.530   5.844  12.291 -0.2720 -0.4964  0.8242
12990TIP3    H160461   5.616   5.884  12.308 -1.4361  1.9025  1.4031
12990TIP3    H260462   5.494   5.895  12.219 -0.8161 -2.1993 -0.1646
12991TIP3   OH260463   5.050   4.241  12.008 -0.1571  0.1175  0.0248
12991TIP3    H160464   5.135   4.265  11.972  0.3445 -1.2303  0.2578
12991TIP3    H260465   5.054   4.267  12.099 -0.5971  1.4840 -0.3230
12992TIP3   OH260466   3.296   0.950  13.267 -0.4491  0.3457  0.0993
12992TIP3    H160467   3.274   0.880  13.206  0.5089  0.7863 -0.7697
12992TIP3    H260468   3.254   1.028  13.231 -0.3956  0.4854  0.3371
12993TIP3   OH260469   5.444   1.179   1.411  0.7125 -0.3098 -0.1538
12993TIP3    H160470   5.407   1.091   1.405 -0.5529  0.1723  0.2974
12993TIP3    H260471   5.397   1.220   1.483  1.0818  0.8341 -0.5395
12994TIP3   OH260472   4.212   6.170   1.875 -0.2596  0.6563  0.4123
12994TIP3    H160473   4.194   6.166   1.781  0.3290  2.9422  0.1461
12994TIP3    H260474   4.210   6.078   1.904 -3.7184  0.1082 -1.1333
12995TIP3   OH260475   2.444   3.109  11.097 -0.5438  0.2061  0.2925
12995TIP3    H160476   2.504   3.169  11.142 -1.3220  1.5613 -0.3988
12995TIP3    H260477   2.357   3.142  11.120 -0.9739  0.7485 -1.8963
12996TIP3   OH260478   5.370   2.747  14.167 -0.2125 -0.5627 -0.2208
12996TIP3    H160479   5.450   2.800  14.162 -0.4441 -0.2061 -0.2395
12996TIP3    H260480   5.366   2.702  14.083 -1.1379  1.0590 -1.0954
12997TIP3   OH260481   2.833   3.668  16.052 -0.2226 -0.5600 -0.1306
12997TIP3    H160482   2.769   3.617  16.101  0.0574 -2.7589 -1.8906
12997TIP3    H260483   2.785   3.696  15.973  0.0355  0.7874  0.1542
12998TIP3   OH260484   5.158   0.389   1.961 -0.3064 -0.2431 -0.7799
12998TIP3    H160485   5.152   0.484   1.961 -0.1847 -0.1968  0.9770
12998TIP3    H260486   5.135   0.363   1.872 -0.6768  1.3991 -1.1930
12999TIP3   OH260487   3.586   1.564   5.085 -0.2205 -0.8293  0.4351
12999TIP3    H160488   3.569   1.617   5.162 -1.0836  0.3355 -0.5152
12999TIP3    H260489   3.675   1.587   5.058 -1.1584  1.5116 -0.9416
13000TIP3   OH260490   4.937   5.782  15.522 -0.2541  0.2322 -0.2914
13000TIP3    H160491   5.013   5.840  15.517  1.2211 -1.6436 -0.8616
13000TIP3    H260492   4.936   5.753  15.613 -0.5421  0.5553 -0.1886
13001TIP3   OH260493   4.234   3.410   3.643  0.6211  0.0447  0.0834
13001TIP3    H160494   4.243   3.320   3.612 -0.1861 -0.3850  1.0564
13001TIP3    H260495   4.169   3.449   3.583  0.3624 -0.2623  0.1611
13002TIP3   OH260496   1.483   0.516   2.200 -0.0728  0.5676 -0.3033
13002TIP3    H160497   1.448   0.449   2.142 -1.4798  0.3237  0.7772
13002TIP3    H260498   1.558   0.552   2.153  0.5028 -1.4988 -1.0514
13003TIP3   OH260499   3.692   2.955   4.159 -0.1248  0.5459  0.3492
13003TIP3    H160500   3.641   2.877   4.183  0.7248 -1.1692 -2.7502
13003TIP3    H260501   3.632   3.006   4.105 -0.4089  1.6708  1.6897
13004TIP3   OH260502   5.127   6.094   4.778 -0.0109 -0.1179 -0.0508
13004TIP3    H160503   5.124   6.169   4.837  2.8735  1.7125 -1.9701
13004TIP3    H260504   5.077   6.121   4.702  0.7496 -0.2522 -0.6135
13005TIP3   OH260505   2.207   0.536  11.961  0.4788 -0.2561 -0.1417
13005TIP3    H160506   2.117   0.566  11.977  0.2892 -0.4701 -0.7706
13005TIP3    H260507   2.238   0.507  12.047  0.9551  2.4311  0.6820
13006TIP3   OH260508   3.876   3.208   6.293  0.3777  0.9026  0.6452
13006TIP3    H160509   3.846   3.182   6.205 -0.5876  0.3651  1.1167
13006TIP3    H260510   3.888   3.302   6.287  0.5709  0.8441 -0.1284
13007TIP3   OH260511   5.938   4.562  16.585 -0.2145  0.3057  0.4201
13007TIP3    H160512   5.882   4.605  16.649  0.9083  1.0722  0.9177
13007TIP3    H260513   5.963   4.631  16.524  0.7233  0.1271  0.5925
13008TIP3   OH260514   1.500   1.424   4.026  0.1110  0.6129  0.6291
13008TIP3    H160515   1.451   1.342   4.023  0.1188  0.5999  0.8198
13008TIP3    H260516   1.438   1.490   3.994  0.5605  0.3239 -0.9215
13009TIP3   OH260517   6.179   4.137  16.095  0.2117 -0.0446 -0.2111
13009TIP3    H160518   6.143   4.049  16.100  1.1928 -0.5610 -1.6282
13009TIP3    H260519   6.130   4.180  16.025 -0.5687  0.7056  0.7717
13010TIP3   OH260520   6.729   3.104  12.776  0.2575  0.2904  0.2593
13010TIP3    H160521   6.786   3.045  12.825 -1.9557 -2.7697 -0.5082
13010TIP3    H260522   6.778   3.125  12.697  2.0309  1.5021  1.6138
13011TIP3   OH260523   6.571   5.629  11.434 -0.0362 -0.6036  0.4138
13011TIP3    H160524   6.562   5.584  11.350  2.6131  1.9903 -1.4791
13011TIP3    H260525   6.637   5.578  11.481  1.1209 -0.1167 -0.6446
13012TIP3   OH260526   3.196   4.497   5.420  0.8588 -0.4467  0.3333
13012TIP3    H160527   3.139   4.517   5.346  0.7628 -0.3561  0.4308
13012TIP3    H260528   3.229   4.409   5.402  1.5810 -0.0655 -0.2945
13013TIP3   OH260529   0.798   1.365   4.863 -0.2083 -0.6462  0.1977
13013TIP3    H160530   0.726   1.339   4.920 -0.1437 -1.6434 -0.1430
13013TIP3    H260531   0.876   1.334   4.909 -0.1806 -1.8107 -0.5811
13014TIP3   OH260532   2.890   4.342  16.419  0.1751  0.5347 -0.7782
13014TIP3    H160533   2.797   4.323  16.405  0.3929 -0.5319 -0.8890
13014TIP3    H260534   2.902   4.334  16.513  0.4615 -0.9449 -0.9124
13015TIP3   OH260535   1.030   6.710  12.744  0.1985  0.2354  0.1971
13015TIP3    H160536   1.095   6.770  12.707  0.8374 -0.6138 -0.1052
13015TIP3    H260537   0.957   6.766  12.771  0.5125  1.0716 -0.6433
13016TIP3   OH260538   3.228   4.952   4.421 -0.4250 -0.0480  0.7999
13016TIP3    H160539   3.303   4.981   4.472  1.7356 -0.4474 -1.9480
13016TIP3    H260540   3.203   5.029   4.369  1.8935 -1.3250 -2.5208
13017TIP3   OH260541   0.547   5.175   5.236  0.0639 -0.3981  0.0098
13017TIP3    H160542   0.470   5.165   5.292  0.4148 -1.4239  0.3369
13017TIP3    H260543   0.619   5.136   5.286  0.4837 -0.8898 -0.9376
13018TIP3   OH260544   5.344   3.861  16.073 -0.3001 -0.1134  0.4582
13018TIP3    H160545   5.326   3.799  16.003  0.4560  1.6839 -1.4495
13018TIP3    H260546   5.398   3.929  16.031 -1.9599  2.3753  2.0838
13019TIP3   OH260547   2.259   5.633  13.711 -0.0870  0.3030 -0.5728
13019TIP3    H160548   2.258   5.712  13.656 -0.6440  2.2532  2.0260
13019TIP3    H260549   2.352   5.611  13.719  0.2292  1.7040 -0.0721
13020TIP3   OH260550   3.545   1.049  11.857  0.4331 -0.0049  0.3588
13020TIP3    H160551   3.461   1.089  11.878 -0.1520 -0.3174 -1.2458
13020TIP3    H260552   3.536   0.957  11.884  0.3747  0.0380  0.4817
13021TIP3   OH260553   0.906   6.000   3.807  0.6988  0.2645  0.4278
13021TIP3    H160554   0.884   5.930   3.870 -0.4836  2.0616  2.1210
13021TIP3    H260555   0.830   6.003   3.748  1.2325 -0.5430 -0.3399
13022TIP3   OH260556   4.877   3.763  13.005 -0.1357 -0.1463 -0.1468
13022TIP3    H160557   4.849   3.849  12.974 -1.5208 -0.0339  1.2592
13022TIP3    H260558   4.797   3.722  13.039  0.5614 -1.8449 -0.4393
13023TIP3   OH260559   4.836   3.843   1.931  0.3741 -0.3106 -0.2882
13023TIP3    H160560   4.794   3.929   1.936 -0.3798 -0.6982  0.3673
13023TIP3    H260561   4.879   3.833   2.016 -2.1223 -1.8265  0.9279
13024TIP3   OH260562   5.401   0.086  11.222 -0.2289  0.5721 -0.6179
13024TIP3    H160563   5.387   0.163  11.167  1.2166  0.9290 -0.5247
13024TIP3    H260564   5.488   0.055  11.199 -1.2961 -1.9073 -1.6600
13025TIP3   OH260565   0.256   1.419   2.329 -0.2358 -1.0260  0.1469
13025TIP3    H160566   0.347   1.438   2.351  0.2123 -1.8081 -0.9066
13025TIP3    H260567   0.247   1.325   2.342 -0.1260 -1.4260 -2.1499
13026TIP3   OH260568   2.623   0.063  15.018 -0.4290  0.4222  0.3927
13026TIP3    H160569   2.682   0.134  14.993 -1.8695  0.4324 -3.9279
13026TIP3    H260570   2.679  -0.014  15.024  0.6837  1.2976  1.7508
13027TIP3   OH260571   4.742   4.210  10.265  0.2150 -0.1619  0.1248
13027TIP3    H160572   4.670   4.272  10.260  0.2374 -0.1438  0.0219
13027TIP3    H260573   4.819   4.263  10.285  0.3895 -0.0390 -0.8134
13028TIP3   OH260574   1.854   2.962  14.625 -1.1191  0.2136 -0.2218
13028TIP3    H160575   1.853   3.034  14.562 -0.1359  0.8522  0.4706
13028TIP3    H260576   1.770   2.971  14.672 -0.5522  1.6052  0.5990
13029TIP3   OH260577   1.967   4.834   2.919  0.0033  0.2192  0.3831
13029TIP3    H160578   1.899   4.794   2.973 -1.0126 -1.8273 -2.1797
13029TIP3    H260579   1.943   4.926   2.915 -2.1887 -0.2995  0.2567
13030TIP3   OH260580   4.406   1.272   5.616  0.3930  0.0533 -0.7327
13030TIP3    H160581   4.427   1.180   5.636 -0.2412 -0.2002 -1.2298
13030TIP3    H260582   4.340   1.296   5.681  0.1059 -0.0325 -0.9917
13031TIP3   OH260583   4.173   2.856   3.844 -0.6647  0.3054  0.1293
13031TIP3    H160584   4.253   2.847   3.896 -0.8686  1.4443  0.6738
13031TIP3    H260585   4.105   2.812   3.896 -0.4926 -0.2634 -0.1179
13032TIP3   OH260586   2.793   4.165  12.829  0.2933  0.1256  0.1310
13032TIP3    H160587   2.731   4.178  12.901 -1.3256  0.7261 -1.3049
13032TIP3    H260588   2.874   4.203  12.861  0.0147 -0.8281  2.1396
13033TIP3   OH260589   1.838   6.751  14.599 -0.6520 -0.3105 -0.1621
13033TIP3    H160590   1.928   6.718  14.586 -0.5038  0.1795 -0.3927
13033TIP3    H260591   1.850   6.841  14.629 -1.0756  0.3438 -1.8487
13034TIP3   OH260592   5.844   0.626   0.920 -0.0821 -0.1252  0.4453
13034TIP3    H160593   5.911   0.592   0.861  1.0247  1.0722  0.9826
13034TIP3    H260594   5.891   0.683   0.980 -1.6095  0.9139  0.7043
13035TIP3   OH260595   1.303   4.726  12.581 -0.6609 -0.0818 -0.1031
13035TIP3    H160596   1.304   4.809  12.535 -1.1902  0.6628  1.1761
13035TIP3    H260597   1.242   4.739  12.654 -1.1190 -1.7346 -0.1338
13036TIP3   OH260598   3.024   0.328   4.344 -0.2247 -0.3864  0.1238
13036TIP3    H160599   3.111   0.306   4.308  0.2755 -0.0017  1.0707
13036TIP3    H260600   2.964   0.312   4.271  0.5931 -1.0379 -0.4306
13037TIP3   OH260601   5.285   0.826   2.173 -0.0722  0.0896  0.2574
13037TIP3    H160602   5.276   0.870   2.258 -1.1309 -0.7210  0.5792
13037TIP3    H260603   5.347   0.754   2.189  1.1115  0.9819 -0.1053
13038TIP3   OH260604   3.342   2.679  12.802 -0.1027 -0.1111 -0.6962
13038TIP3    H160605   3.379   2.651  12.885 -0.6887 -0.1349 -0.4345
13038TIP3    H260606   3.412   2.729  12.759 -0.1921  0.9476  0.3478
13039TIP3   OH260607   5.130   5.894  11.864 -0.2884 -0.2806 -0.2685
13039TIP3    H160608   5.062   5.844  11.909 -0.9402  1.6989  1.0827
13039TIP3    H260609   5.136   5.976  11.913 -0.6998  1.8697 -3.5034
13040TIP3   OH260610   6.817   2.217   0.680 -0.8297 -0.1654  0.0621
13040TIP3    H160611   6.739   2.170   0.710  0.1671 -1.3975  0.8282
13040TIP3    H260612   6.890   2.165   0.712  0.3331  1.5298  0.2851
13041TIP3   OH260613   2.544   3.295   3.799  0.0851  0.1634  0.4169
13041TIP3    H160614   2.523   3.204   3.822 -1.0016 -0.1196 -1.5060
13041TIP3    H260615   2.640   3.297   3.795  0.0950 -1.3126 -0.9858
13042TIP3   OH260616   4.199   2.530  12.041  0.0387 -0.5890 -0.2688
13042TIP3    H160617   4.169   2.443  12.017  1.3205 -0.6428 -1.8056
13042TIP3    H260618   4.143   2.555  12.115 -1.4319 -2.0341 -0.8310
13043TIP3   OH260619   0.208   6.127  12.456  0.1570  0.0288  0.4893
13043TIP3    H160620   0.146   6.191  12.419  0.3851  0.6007  1.0692
13043TIP3    H260621   0.190   6.046  12.409  1.6884  1.1249 -2.2312
13044TIP3   OH260622   5.279   1.933   1.990 -0.5626  0.4057  0.4045
13044TIP3    H160623   5.358   1.982   1.968 -0.3542 -0.2957 -0.4652
13044TIP3    H260624   5.300   1.891   2.074  0.3022 -0.4256 -0.2091
13045TIP3   OH260625   0.034   2.081   4.759 -0.4441  0.6410 -0.0019
13045TIP3    H160626   0.053   1.996   4.719  0.3309 -0.2212  2.0377
13045TIP3    H260627   0.119   2.125   4.762 -0.4381  0.5807  0.8924
13046TIP3   OH260628   1.947   2.346  16.157  0.1180  0.3649 -0.1749
13046TIP3    H160629   1.976   2.353  16.248 -1.2965 -1.0982  0.4213
13046TIP3    H260630   2.027   2.324  16.108  0.4046 -1.9701  1.1868
13047TIP3   OH260631   3.401   0.851   1.313  0.1881  0.4554  0.0926
13047TIP3    H160632   3.431   0.832   1.224 -1.2360 -0.5062 -0.2077
13047TIP3    H260633   3.360   0.770   1.342 -0.5922  1.1950  1.1100
13048TIP3   OH260634   5.074   2.397  11.922  0.1223 -0.0081  0.1335
13048TIP3    H160635   5.164   2.380  11.895  0.6846  2.6352  0.0135
13048TIP3    H260636   5.079   2.407  12.017  0.2661  1.3895  0.0098
13049TIP3   OH260637   3.260   4.904  13.293 -0.0547 -0.2714  0.2534
13049TIP3    H160638   3.335   4.847  13.311  0.1383 -0.2184 -0.3453
13049TIP3    H260639   3.278   4.984  13.342  2.1425  1.2154 -2.6611
13050TIP3   OH260640   6.693   4.128   2.174  0.5974  0.4325  0.1125
13050TIP3    H160641   6.732   4.041   2.182 -2.5163 -1.3547 -1.8017
13050TIP3    H260642   6.602   4.116   2.203 -0.5675  2.3924 -2.3534
13051TIP3   OH260643   4.785   6.555  12.823  0.0809  0.2888 -0.1035
13051TIP3    H160644   4.876   6.540  12.852 -0.6195 -0.0564  2.1472
13051TIP3    H260645   4.774   6.650  12.828 -0.4531  0.1682  2.4681
13052TIP3   OH260646   5.364   3.590   1.039  0.0282 -0.1079 -0.2159
13052TIP3    H160647   5.330   3.673   1.071  0.1211  0.0619 -0.5514
13052TIP3    H260648   5.457   3.607   1.023 -0.2136  0.0871 -1.4881
13053TIP3   OH260649   6.620   3.436   3.960  0.2493  0.8080 -0.2324
13053TIP3    H160650   6.597   3.471   3.874  0.4579  1.7454  0.0868
13053TIP3    H260651   6.541   3.389   3.988  0.0062  0.9140 -0.7196
13054TIP3   OH260652   2.056   1.788   1.285  0.2011 -0.1352  0.5634
13054TIP3    H160653   2.012   1.832   1.358  0.4461 -0.6250  1.0126
13054TIP3    H260654   2.036   1.695   1.297 -0.6885 -0.1185 -0.6355
13055TIP3   OH260655   2.681   2.576  13.340 -0.4277  0.0677  0.0688
13055TIP3    H160656   2.595   2.618  13.334 -0.1426  1.2592  2.9743
13055TIP3    H260657   2.711   2.570  13.249 -2.1319  2.7336 -0.7632
13056TIP3   OH260658   5.901   4.392   4.196  0.0958  0.0716 -0.4458
13056TIP3    H160659   5.927   4.323   4.257  0.8716  0.8034  0.0751
13056TIP3    H260660   5.895   4.348   4.111  1.2553 -0.5010 -0.2459
13057TIP3   OH260661   0.684   6.042   5.892 -0.7401  0.3158 -0.5117
13057TIP3    H160662   0.765   6.081   5.925 -0.5150 -0.6211  0.0704
13057TIP3    H260663   0.625   6.116   5.880 -0.2613  0.8556  0.3948
13058TIP3   OH260664   0.917   2.795  11.616  0.0870  0.0115  0.0890
13058TIP3    H160665   0.894   2.835  11.533  0.4368 -0.8328 -0.4259
13058TIP3    H260666   0.952   2.709  11.593  0.9555  0.0808  1.0397
13059TIP3   OH260667   5.608   4.400  14.201 -0.1332 -0.3308 -0.3389
13059TIP3    H160668   5.649   4.325  14.244  1.8866  1.1965  0.5359
13059TIP3    H260669   5.560   4.362  14.128  0.8821 -2.4614  0.0267
13060TIP3   OH260670   1.450   1.000   1.502 -0.0040 -0.3059  0.1758
13060TIP3    H160671   1.476   1.080   1.548 -0.7230 -0.7327  1.3509
13060TIP3    H260672   1.435   0.936   1.571  1.4770 -1.7756 -0.7646
13061TIP3   OH260673   1.708   4.224  15.426 -0.0924  0.0979 -0.4293
13061TIP3    H160674   1.769   4.167  15.472 -1.3423 -1.0672 -0.1292
13061TIP3    H260675   1.723   4.310  15.464  3.0127  0.4223 -2.0617
13062TIP3   OH260676   0.054   4.973   5.785 -0.0193  0.2525  0.1677
13062TIP3    H160677  -0.030   5.016   5.804  0.4236  1.2608 -0.0646
13062TIP3    H260678   0.096   5.031   5.721  1.2564  0.2601  0.9786
13063TIP3   OH260679   6.765   3.760   4.815 -0.2516 -0.2158 -0.0249
13063TIP3    H160680   6.850   3.770   4.857  0.0035 -0.1470 -0.5519
13063TIP3    H260681   6.771   3.812   4.735 -0.9665  0.2084  0.1890
13064TIP3   OH260682   3.685   6.022  17.116 -0.7884  0.0351 -0.9184
13064TIP3    H160683   3.638   6.104  17.105 -2.7328 -0.9724 -0.6229
13064TIP3    H260684   3.684   6.006  17.210  0.3169  0.0539 -0.8872
13065TIP3   OH260685   5.940   6.129  12.824 -0.3832 -0.2563 -0.0350
13065TIP3    H160686   5.950   6.220  12.797 -2.4291 -0.2582 -0.9479
13065TIP3    H260687   6.029   6.095  12.829  0.5617  2.2026  1.9097
13066TIP3   OH260688   1.857   5.114  12.277  0.2855  0.5232 -0.2836
13066TIP3    H160689   1.928   5.054  12.298  0.2146 -0.3378 -2.2413
13066TIP3    H260690   1.780   5.056  12.266  0.3412  0.8032 -2.7971
13067TIP3   OH260691   1.733   4.183   1.804  0.6897  0.1066 -0.0098
13067TIP3    H160692   1.678   4.105   1.794 -1.0329  1.2220  0.1777
13067TIP3    H260693   1.704   4.222   1.887  0.1606  1.8874 -0.9616
13068TIP3   OH260694   5.601   6.569  13.110 -0.0683  0.2289  0.3269
13068TIP3    H160695   5.658   6.533  13.178  0.6202  1.1448  0.2482
13068TIP3    H260696   5.555   6.492  13.075  0.9603 -0.5071  0.5304
13069TIP3   OH260697   3.107   4.785  16.032 -0.5912 -0.1951  0.2839
13069TIP3    H160698   3.125   4.815  16.121  1.0029  1.5124 -0.5421
13069TIP3    H260699   3.188   4.743  16.004 -1.5292 -1.9521  0.0561
13070TIP3   OH260700   5.907   4.697   1.262 -0.5666 -0.3792  0.0985
13070TIP3    H160701   5.954   4.628   1.310 -1.2945 -0.9564 -0.0063
13070TIP3    H260702   5.896   4.766   1.327  1.0956  0.1079 -0.0804
13071TIP3   OH260703   1.864   1.651   1.893 -0.3290  0.0703 -0.3032
13071TIP3    H160704   1.826   1.731   1.930 -0.6841 -1.0858  1.9650
13071TIP3    H260705   1.958   1.665   1.895 -0.4205  1.0483 -1.4810
13072TIP3   OH260706   3.605   3.945   1.614  0.7672  0.1036  0.1477
13072TIP3    H160707   3.629   3.964   1.523 -1.3211  0.4306 -0.3856
13072TIP3    H260708   3.518   3.984   1.625  0.4726 -0.9222  1.9567
13073TIP3   OH260709   2.095   2.268   0.172  0.1892 -0.2912  0.0839
13073TIP3    H160710   2.077   2.344   0.117  0.3282 -0.9815 -0.9320
13073TIP3    H260711   2.145   2.209   0.116  1.3668 -0.5071  1.3178
13074TIP3   OH260712   0.153   2.319  14.554 -0.3531 -0.4422 -0.4122
13074TIP3    H160713   0.243   2.291  14.569  0.0932  0.6572 -0.9586
13074TIP3    H260714   0.101   2.261  14.609  0.8880  0.6430  2.0440
13075TIP3   OH260715   4.358   1.191  12.066 -0.2990  0.0854 -0.3654
13075TIP3    H160716   4.417   1.220  12.135  0.5962 -1.4549 -0.4260
13075TIP3    H260717   4.302   1.126  12.108 -1.1918  0.6822 -0.5948
13076TIP3   OH260718   1.662   2.135  17.016  0.4898 -0.5625 -0.4440
13076TIP3    H160719   1.683   2.196  17.087  1.3607 -0.2271 -0.9663
13076TIP3    H260720   1.701   2.052  17.045 -0.5496 -0.8456  0.1900
13077TIP3   OH260721   2.529   6.312  16.868  0.2300  0.2671 -0.5075
13077TIP3    H160722   2.565   6.401  16.869 -1.5855  1.0923  2.4197
13077TIP3    H260723   2.435   6.325  16.860 -0.1274 -1.3580  0.6591
13078TIP3   OH260724   6.002   0.711  14.657 -0.4036  0.6267  0.0349
13078TIP3    H160725   6.063   0.740  14.724 -0.6933 -1.1342  1.1380
13078TIP3    H260726   6.054   0.703  14.578  0.8469 -0.8431  0.9521
13079TIP3   OH260727   2.204   5.395  15.097 -0.1075  0.3856  0.4471
13079TIP3    H160728   2.163   5.482  15.095 -0.6014  0.1655 -2.2206
13079TIP3    H260729   2.205   5.367  15.006  4.5061 -0.3999  0.5360
13080TIP3   OH260730   6.551   2.700  14.670  0.2936  0.7765 -0.6254
13080TIP3    H160731   6.560   2.781  14.721  1.2693  0.0264  0.4402
13080TIP3    H260732   6.474   2.657  14.707 -0.5754  1.4663 -1.5822
13081TIP3   OH260733   6.689   3.290  11.954  0.7856  0.5756  0.0480
13081TIP3    H160734   6.698   3.356  11.885 -1.3729  0.3624 -0.4980
13081TIP3    H260735   6.772   3.243  11.953  1.5872  1.9255 -0.9565
13082TIP3   OH260736   0.725   5.464  14.918  0.0334 -0.1554 -0.3037
13082TIP3    H160737   0.693   5.466  15.009  0.0866 -0.5364 -0.2751
13082TIP3    H260738   0.703   5.551  14.883  0.3798  0.1439  0.2004
13083TIP3   OH260739   6.787   4.974  13.032  0.0081  0.0233 -0.1900
13083TIP3    H160740   6.815   4.895  13.078  1.3113  0.9740  0.7331
13083TIP3    H260741   6.692   4.977  13.045  0.1300 -0.6201  1.0602
13084TIP3   OH260742   5.067   0.055  14.980 -0.2196 -0.0253  0.9786
13084TIP3    H160743   5.034   0.075  15.068 -2.5605 -0.1247  0.2018
13084TIP3    H260744   5.033  -0.033  14.962 -1.1078  0.6026 -0.5723
13085TIP3   OH260745   1.051   4.412  16.512  0.1490  0.2526  0.0263
13085TIP3    H160746   0.979   4.363  16.552  0.7497  0.6550  1.6952
13085TIP3    H260747   1.018   4.501  16.504 -0.7771 -0.2395 -2.5815
13086TIP3   OH260748   2.490   1.773   5.889 -0.2749  0.1800  0.4020
13086TIP3    H160749   2.555   1.842   5.900  0.2947 -0.3748  0.5802
13086TIP3    H260750   2.443   1.771   5.973 -1.0817  1.1285 -0.0079
13087TIP3   OH260751   6.027   0.688   2.273  0.2835 -0.9858 -0.3890
13087TIP3    H160752   6.104   0.675   2.328  0.9517  1.2834 -0.6776
13087TIP3    H260753   6.048   0.643   2.191  2.2403  1.1911 -1.2030
13088TIP3   OH260754   3.254   1.575   3.698  0.0867  0.3063  0.7168
13088TIP3    H160755   3.218   1.603   3.783  0.3121  2.0268  0.2887
13088TIP3    H260756   3.327   1.518   3.721 -0.2396  0.2503  1.6736
13089TIP3   OH260757   3.607   2.790  12.882  0.0800 -0.2900 -0.7556
13089TIP3    H160758   3.660   2.834  12.815 -0.6236 -0.9784 -1.7732
13089TIP3    H260759   3.605   2.699  12.855 -1.9910 -0.2110 -0.9915
13090TIP3   OH260760   6.704   3.019  16.089 -0.6578 -0.1047  0.0686
13090TIP3    H160761   6.798   3.018  16.104 -0.7061  0.1188  0.3988
13090TIP3    H260762   6.695   3.042  15.996 -0.4122  1.3392  0.3759
13091TIP3   OH260763   5.599   3.081   0.212  0.1712  0.1854  0.2106
13091TIP3    H160764   5.672   3.047   0.161 -0.1176  1.3691 -1.0207
13091TIP3    H260765   5.554   3.002   0.244 -2.2988 -1.0282 -5.0622
13092TIP3   OH260766   4.746   2.788   0.192  0.0120 -0.5326  0.1510
13092TIP3    H160767   4.792   2.870   0.204  1.6534 -1.5879  1.4828
13092TIP3    H260768   4.718   2.790   0.100  1.1453  0.9431 -0.2053
13093TIP3   OH260769   5.894   4.106   4.726 -0.3299  0.5645 -0.2072
13093TIP3    H160770   5.920   4.040   4.662 -0.0047  0.5865 -0.0993
13093TIP3    H260771   5.924   4.189   4.688 -0.0387  0.5653  0.0251
13094TIP3   OH260772   5.201   4.137   3.174  0.2168 -0.1924  0.3028
13094TIP3    H160773   5.152   4.099   3.247 -0.8286  0.0111 -0.2617
13094TIP3    H260774   5.279   4.175   3.214  1.1371 -2.5841  0.9309
13095TIP3   OH260775   5.244   3.899  14.502  0.0184 -0.3198 -0.0367
13095TIP3    H160776   5.166   3.886  14.555  0.5800 -2.8553  0.3107
13095TIP3    H260777   5.230   3.843  14.425  1.0497 -0.0052 -0.4716
13096TIP3   OH260778   0.773   1.245   1.528  0.2547 -0.1618  0.7321
13096TIP3    H160779   0.793   1.234   1.621  1.9413 -0.4760  0.3705
13096TIP3    H260780   0.826   1.320   1.501 -2.6006  1.9969  0.6709
13097TIP3   OH260781   2.353   4.118  13.171 -0.1167 -0.5378  0.4814
13097TIP3    H160782   2.385   4.208  13.163  0.1936 -0.8321 -3.5190
13097TIP3    H260783   2.258   4.125  13.162  0.0741 -0.6696 -2.6411
13098TIP3   OH260784   5.434   0.364  13.709  0.4318  0.5550  0.2508
13098TIP3    H160785   5.353   0.348  13.758 -0.3237  0.0090 -1.1017
13098TIP3    H260786   5.488   0.417  13.767 -0.7703  0.6483  1.3174
13099TIP3   OH260787   2.953   0.183  16.277 -0.2559  0.1124  0.2064
13099TIP3    H160788   2.971   0.271  16.242  1.3506 -0.1413  0.3142
13099TIP3    H260789   3.007   0.125  16.223  0.7368 -0.4965  1.7854
13100TIP3   OH260790   6.102   6.112  13.904 -0.0396  0.7059 -0.0810
13100TIP3    H160791   6.165   6.182  13.888 -2.4967  3.2558  0.5169
13100TIP3    H260792   6.127   6.042  13.843  3.4534  1.3984  0.3636
13101TIP3   OH260793   5.810   4.858  12.245  0.1142 -0.3530 -0.2321
13101TIP3    H160794   5.756   4.921  12.197  0.0580 -0.3517 -0.1672
13101TIP3    H260795   5.765   4.847  12.329 -0.2205 -0.9662 -0.4868
13102TIP3   OH260796   6.419   6.210  16.388  0.4159 -0.3103 -0.4274
13102TIP3    H160797   6.354   6.239  16.452 -0.0265  0.4677 -1.2112
13102TIP3    H260798   6.411   6.272  16.316  1.1107 -1.0010 -1.1171
13103TIP3   OH260799   2.151   3.462   2.689  0.3571  0.1853 -0.5462
13103TIP3    H160800   2.116   3.373   2.696  0.9187  0.0652  1.6848
13103TIP3    H260801   2.245   3.452   2.706  0.7884  0.9919 -2.2876
13104TIP3   OH260802   3.847   4.535   1.284  0.2784  0.1338  0.1190
13104TIP3    H160803   3.853   4.630   1.283  0.3673  0.1329  0.4172
13104TIP3    H260804   3.874   4.508   1.196 -1.3044  0.4633 -0.4986
13105TIP3   OH260805   1.443   6.736  16.958  0.4084  0.1482 -0.1042
13105TIP3    H160806   1.399   6.668  16.907  0.2647  0.3142 -0.1998
13105TIP3    H260807   1.514   6.689  17.002  1.8376  0.3296 -2.0390
13106TIP3   OH260808   1.106   0.332  13.378  0.0333 -0.6804  0.4190
13106TIP3    H160809   1.102   0.276  13.300 -0.7415  0.8032 -0.6546
13106TIP3    H260810   1.157   0.408  13.350 -1.8897  0.7878  0.7209
13107TIP3   OH260811   2.437   4.865   6.695  0.3362 -0.7192 -0.2029
13107TIP3    H160812   2.471   4.779   6.671 -1.1081 -1.0474 -1.1632
13107TIP3    H260813   2.344   4.851   6.710  0.0326  0.7088 -0.5753
13108TIP3   OH260814   5.127   5.786  17.002  0.0274 -0.3983  0.5032
13108TIP3    H160815   5.085   5.776  16.916  0.4401 -0.4856  0.3105
13108TIP3    H260816   5.138   5.881  17.012 -0.5354 -0.3504  0.7128
13109TIP3   OH260817   1.022   2.691  13.355 -0.4879  0.0732  0.4490
13109TIP3    H160818   0.985   2.676  13.442  0.9866  2.2456  1.5474
13109TIP3    H260819   0.956   2.743  13.309 -0.3069  0.9848  1.1776
13110TIP3   OH260820   4.813   0.466   0.652  0.0349  0.6520 -0.0111
13110TIP3    H160821   4.748   0.527   0.615  0.1243  0.8734  0.1937
13110TIP3    H260822   4.895   0.516   0.651  0.5761 -0.1967 -1.8446
13111TIP3   OH260823   0.662   2.336   4.023 -0.4038 -0.3969 -0.6090
13111TIP3    H160824   0.731   2.401   4.017 -0.4739 -0.2195  0.3912
13111TIP3    H260825   0.642   2.313   3.932 -1.7760  2.4463 -1.1185
13112TIP3   OH260826   5.810   1.370   2.590 -0.3938  0.4100  0.2519
13112TIP3    H160827   5.787   1.277   2.597  1.6908 -0.3142 -1.4121
13112TIP3    H260828   5.729   1.416   2.612 -1.6660 -1.8075  0.5224
13113TIP3   OH260829   3.988   5.505   6.418 -0.0763 -0.6384  0.2992
13113TIP3    H160830   4.012   5.468   6.333  0.4449 -0.8013  0.5089
13113TIP3    H260831   3.985   5.600   6.404 -0.4944 -0.6974 -0.0181
13114TIP3   OH260832   1.878   3.064   0.060  0.0554  0.0215  0.3783
13114TIP3    H160833   1.839   3.150   0.076  2.5992  1.2235  0.5579
13114TIP3    H260834   1.960   3.083   0.015  0.5355 -2.3599  0.1236
13115TIP3   OH260835   2.515   0.759  17.049  0.3123  0.3480  0.4595
13115TIP3    H160836   2.523   0.853  17.062 -2.9372  0.7905  0.0874
13115TIP3    H260837   2.422   0.740  17.065  0.5071 -2.5227 -1.0810
13116TIP3   OH260838   4.176   4.569  15.549  0.4233  0.0489 -0.6269
13116TIP3    H160839   4.131   4.503  15.602 -0.4763  0.7791 -0.4554
13116TIP3    H260840   4.239   4.609  15.608  0.0734  0.2165 -0.3614
13117TIP3   OH260841   1.240   4.172  11.755 -0.3505 -0.5467 -0.0232
13117TIP3    H160842   1.164   4.225  11.731 -1.7482 -1.3050  2.4397
13117TIP3    H260843   1.305   4.235  11.785 -0.5449 -0.0045 -0.7043
13118TIP3   OH260844   2.401   2.293   3.076  0.2244  0.2320 -0.1234
13118TIP3    H160845   2.418   2.351   3.001  0.4122  1.4663  0.8329
13118TIP3    H260846   2.457   2.217   3.060 -0.2931  0.1343 -1.5950
13119TIP3   OH260847   5.381   5.395  11.737  0.2697 -0.0542 -0.2293
13119TIP3    H160848   5.437   5.404  11.814  1.4247 -0.2115 -1.0132
13119TIP3    H260849   5.340   5.481  11.726  1.3508  0.4665 -0.3554
13120TIP3   OH260850   3.486   3.126  13.663 -0.2228 -0.3709  0.3834
13120TIP3    H160851   3.543   3.067  13.613  0.7890 -0.4584  1.5970
13120TIP3    H260852   3.499   3.212  13.623  0.5337 -0.4488  0.4458
13121TIP3   OH260853   5.651   4.773  15.365 -0.4063 -0.2141  0.1326
13121TIP3    H160854   5.735   4.729  15.375 -1.0415 -1.5169 -0.0107
13121TIP3    H260855   5.673   4.866  15.353  0.9727 -0.4802  0.4900
13122TIP3   OH260856   5.219   2.088   5.027 -0.4888 -0.2352 -0.4826
13122TIP3    H160857   5.315   2.090   5.031 -0.5244 -0.4088  1.3195
13122TIP3    H260858   5.197   1.995   5.020 -0.5341 -0.2217 -0.5209
13123TIP3   OH260859   3.606   5.101  15.925 -0.1668  0.0870  0.2532
13123TIP3    H160860   3.577   5.015  15.894 -1.4978  1.0694 -1.4001
13123TIP3    H260861   3.686   5.118  15.875  0.3469 -0.3690  0.9119
13124TIP3   OH260862   2.663   1.284  12.682  0.3048  0.3762  0.2755
13124TIP3    H160863   2.681   1.331  12.764 -1.5036  0.7388  0.5173
13124TIP3    H260864   2.635   1.353  12.621 -0.4613 -0.1348  0.0334
13125TIP3   OH260865   5.007   6.582   5.251 -0.0990 -0.5320 -0.2222
13125TIP3    H160866   4.935   6.519   5.261 -0.7254  0.2351  0.1484
13125TIP3    H260867   5.084   6.527   5.235 -0.3354 -1.5150  1.6646
13126TIP3   OH260868   0.949   5.612  11.292  0.3884 -0.0658  0.1294
13126TIP3    H160869   0.854   5.625  11.281  0.4245  1.9607  1.6265
13126TIP3    H260870   0.958   5.519  11.311 -1.3524 -0.2450  0.2673
13127TIP3   OH260871   1.451   0.178  16.653 -0.5779  0.1588  0.6735
13127TIP3    H160872   1.383   0.111  16.640 -0.9564  0.7080 -0.2655
13127TIP3    H260873   1.432   0.214  16.739 -2.0390  0.9121  0.0704
13128TIP3   OH260874   6.362   3.025   2.440  0.2737  0.1099 -0.0702
13128TIP3    H160875   6.393   3.094   2.500  1.1898  1.7173 -2.2464
13128TIP3    H260876   6.442   2.985   2.407 -0.0881  0.6313 -1.6833
13129TIP3   OH260877   0.293   1.028   1.912 -0.2101  0.0873 -0.3843
13129TIP3    H160878   0.231   1.094   1.944 -0.4790 -0.2958 -0.1101
13129TIP3    H260879   0.337   0.997   1.991 -1.4862 -1.4898 -0.2604
13130TIP3   OH260880   6.801   2.360  15.914  0.1806 -0.3084 -0.3953
13130TIP3    H160881   6.871   2.298  15.895 -1.7744 -3.3734  1.5276
13130TIP3    H260882   6.844   2.431  15.963  2.0368 -1.8249  0.2966
13131TIP3   OH260883   1.288   4.416  15.563  0.2823 -0.1734 -0.3344
13131TIP3    H160884   1.359   4.373  15.612  0.3727 -0.9795 -1.1586
13131TIP3    H260885   1.255   4.483  15.624  0.0670 -1.4629  1.0146
13132TIP3   OH260886   4.847   5.154   1.019 -0.0351 -0.2127 -0.5049
13132TIP3    H160887   4.894   5.236   1.001  1.6074 -1.1895 -0.9078
13132TIP3    H260888   4.764   5.182   1.057  1.4551  1.5856  1.6736
13133TIP3   OH260889   6.754   0.460   4.165  0.1780 -0.2212  0.1252
13133TIP3    H160890   6.679   0.456   4.224 -0.4128 -0.7134 -0.6374
13133TIP3    H260891   6.821   0.408   4.208 -0.5963 -1.4474 -0.0961
13134TIP3   OH260892   6.447   0.413   4.762 -0.3194 -0.5496  0.1476
13134TIP3    H160893   6.390   0.417   4.839 -0.6008 -0.4830 -0.0652
13134TIP3    H260894   6.394   0.446   4.690 -0.9885 -3.0701 -0.6342
13135TIP3   OH260895   3.884   1.304  11.899  0.2347 -0.4474  0.0418
13135TIP3    H160896   3.928   1.313  11.815 -0.3512  0.0769 -0.2212
13135TIP3    H260897   3.952   1.272  11.958  0.5468 -1.2485 -0.7209
13136TIP3   OH260898   0.968   4.228  11.089  0.2340 -0.0616  0.6750
13136TIP3    H160899   0.972   4.260  11.179 -1.3429  0.0129  0.7399
13136TIP3    H260900   0.909   4.289  11.045  0.4931 -0.4650 -0.2480
13137TIP3   OH260901   2.630   6.655  16.416 -0.4205  0.0709  0.3460
13137TIP3    H160902   2.665   6.612  16.494  0.3323  0.7424  0.3903
13137TIP3    H260903   2.576   6.588  16.374 -0.7219 -0.3389  1.3631
13138TIP3   OH260904   0.313   1.037  14.169  1.1724  0.0318 -0.5253
13138TIP3    H160905   0.333   0.951  14.133  1.2431 -0.4144  0.5295
13138TIP3    H260906   0.366   1.098  14.118  2.1178 -0.6960 -0.4356
13139TIP3   OH260907   1.530   4.270   5.517  0.3364 -0.1459  0.4019
13139TIP3    H160908   1.472   4.313   5.579  1.4962 -1.4317  2.4551
13139TIP3    H260909   1.612   4.319   5.523  0.8965 -1.1257  0.9512
13140TIP3   OH260910   6.010   2.824  13.316 -0.1128  0.1576  0.0869
13140TIP3    H160911   6.054   2.855  13.395 -0.2640  1.5608 -0.3472
13140TIP3    H260912   6.066   2.855  13.244 -0.9087  0.4892 -0.4051
13141TIP3   OH260913   0.569   6.590   3.080  0.0628 -0.2488 -0.0615
13141TIP3    H160914   0.642   6.627   3.030 -0.1665  0.0191 -0.1952
13141TIP3    H260915   0.599   6.502   3.103  0.7942  0.1659  0.6309
13142TIP3   OH260916   3.069   2.603  15.580  0.8056 -0.4648  0.2247
13142TIP3    H160917   3.156   2.622  15.614  0.3478 -0.0242  1.1913
13142TIP3    H260918   3.058   2.509  15.594  0.3018 -0.1700  2.1687
13143TIP3   OH260919   2.621   6.163   5.587 -0.0904 -0.6641 -0.1796
13143TIP3    H160920   2.612   6.248   5.631  0.7026 -0.1918 -0.8893
13143TIP3    H260921   2.663   6.107   5.651 -1.4086 -0.7916  0.6060
13144TIP3   OH260922   2.638   0.525  16.209 -0.4534 -0.6165 -0.4971
13144TIP3    H160923   2.597   0.513  16.295 -0.4890 -0.2988 -0.4704
13144TIP3    H260924   2.635   0.619  16.193  2.3906 -0.2450  0.5530
13145TIP3   OH260925   2.723   5.091   1.726 -0.2987  0.6946  0.3054
13145TIP3    H160926   2.702   5.148   1.800 -0.9026  2.4452 -1.1475
13145TIP3    H260927   2.732   5.150   1.652 -0.4133 -1.0732 -1.1832
13146TIP3   OH260928   3.808   6.056  15.526  0.0107 -0.1622  0.0643
13146TIP3    H160929   3.723   6.012  15.529  0.0982 -0.3482 -0.1372
13146TIP3    H260930   3.859   6.015  15.595  0.4997 -1.2407 -0.8963
13147TIP3   OH260931   1.322   3.302  17.067 -0.6504  0.3535  0.1033
13147TIP3    H160932   1.303   3.373  17.128  1.6616 -0.9138  2.4928
13147TIP3    H260933   1.380   3.341  17.001 -1.2472  1.1947  0.0681
13148TIP3   OH260934   5.208   4.782  10.513 -0.3489 -0.6279  0.1064
13148TIP3    H160935   5.255   4.746  10.588  0.0588  1.1492  0.7611
13148TIP3    H260936   5.232   4.725  10.440  3.1184  0.2822  0.3241
13149TIP3   OH260937   6.313   3.591   5.433 -0.0254 -0.0007  0.2559
13149TIP3    H160938   6.400   3.613   5.401  0.2706 -0.8949  0.4125
13149TIP3    H260939   6.285   3.667   5.484  1.5586 -0.5595  2.0261
13150TIP3   OH260940   5.813   6.446  12.016  0.0606 -0.3243  0.1654
13150TIP3    H160941   5.744   6.381  12.032  1.2900 -1.2902  1.7874
13150TIP3    H260942   5.895   6.398  12.030  1.1003  0.8656 -1.4421
13151TIP3   OH260943   1.285   2.236   1.817  1.5087 -0.3216 -0.8004
13151TIP3    H160944   1.313   2.158   1.769  2.7550  0.4031 -1.3082
13151TIP3    H260945   1.327   2.309   1.771  0.9472  0.5970  0.0882
13152TIP3   OH260946   3.129   0.875   4.854  0.6590  0.0422 -0.6179
13152TIP3    H160947   3.155   0.944   4.915  0.3676  0.8842 -1.4172
13152TIP3    H260948   3.139   0.915   4.767 -1.3141 -0.2573 -1.0407
13153TIP3   OH260949   5.730   2.594   5.025 -0.1532  0.1069  0.1936
13153TIP3    H160950   5.674   2.585   5.103 -0.7340 -0.1107 -0.2430
13153TIP3    H260951   5.691   2.667   4.977 -0.6882 -0.6969 -0.6256
13154TIP3   OH260952   2.878   4.349   6.045 -0.2959  0.6898 -0.4080
13154TIP3    H160953   2.812   4.289   6.079  1.5648 -0.3407  1.6633
13154TIP3    H260954   2.850   4.435   6.075 -1.9827  0.6450 -1.7459
13155TIP3   OH260955   4.729   3.321  13.671  0.4878  0.3274  0.6551
13155TIP3    H160956   4.755   3.368  13.592 -0.6919 -1.0537 -0.6142
13155TIP3    H260957   4.811   3.311  13.720  1.0129  2.3741  0.2966
13156TIP3   OH260958   6.165   3.759  12.368 -0.0775 -0.0148 -0.2941
13156TIP3    H160959   6.123   3.681  12.333 -2.2552  0.9136  0.0885
13156TIP3    H260960   6.154   3.825  12.300 -0.4791  0.6089  0.3551
13157TIP3   OH260961   2.822   3.700  12.816  0.1421  0.2011 -0.3430
13157TIP3    H160962   2.851   3.747  12.737 -1.8833  1.0378 -0.6578
13157TIP3    H260963   2.732   3.673  12.796 -0.9628  1.6929  2.1628
13158TIP3   OH260964   2.523   5.918   0.463  0.1893 -0.5891  0.3114
13158TIP3    H160965   2.428   5.912   0.469 -0.0062  0.2648 -1.2544
13158TIP3    H260966   2.539   5.981   0.393  1.9180  0.9895  1.9909
13159TIP3   OH260967   6.824   5.670  14.485 -0.1739 -0.0899 -0.4666
13159TIP3    H160968   6.754   5.646  14.424 -0.4801 -0.2756 -0.0487
13159TIP3    H260969   6.778   5.709  14.560  0.0877 -1.0732  0.2285
13160TIP3   OH260970   3.973   4.960  11.242 -0.0304  0.5401 -0.0923
13160TIP3    H160971   3.959   5.041  11.292  0.8464  1.8673 -1.9023
13160TIP3    H260972   3.898   4.955  11.183  0.2867  0.4276 -0.4899
13161TIP3   OH260973   2.537   0.813  16.149 -0.6192 -0.3414  0.1781
13161TIP3    H160974   2.493   0.899  16.152  0.8823  0.4723 -0.1498
13161TIP3    H260975   2.468   0.751  16.172 -1.8280  0.9178  0.1546
13162TIP3   OH260976   1.645   5.501   5.133  0.2059 -0.1852 -0.1288
13162TIP3    H160977   1.612   5.480   5.046  0.3520  0.4822 -0.3512
13162TIP3    H260978   1.574   5.551   5.174  0.0340 -0.7208  0.2323
13163TIP3   OH260979   0.937   3.417  14.909 -0.0824 -0.0133 -0.0213
13163TIP3    H160980   0.854   3.450  14.945 -0.3124 -0.0078 -0.5519
13163TIP3    H260981   0.966   3.351  14.972  0.3971  1.1960  1.0782
13164TIP3   OH260982   4.190   6.465  16.701  0.1133 -0.1968  0.2279
13164TIP3    H160983   4.247   6.467  16.778  0.6863 -1.9723 -0.1116
13164TIP3    H260984   4.205   6.379  16.663 -1.1130  0.1812 -1.1682
13165TIP3   OH260985   1.231   6.541  13.689  0.4238  0.3239 -0.3135
13165TIP3    H160986   1.306   6.543  13.748  0.0469  0.6807  0.1616
13165TIP3    H260987   1.263   6.579  13.608  0.9967 -0.3412 -0.4106
13166TIP3   OH260988   3.464   2.710   0.800  0.2876  0.1553  0.1256
13166TIP3    H160989   3.491   2.790   0.756 -1.1782  0.0407 -1.0772
13166TIP3    H260990   3.375   2.695   0.769  0.7205 -2.2526 -0.1449
13167TIP3   OH260991   2.899   0.713  15.910 -0.6223 -0.0802  0.0140
13167TIP3    H160992   2.971   0.763  15.873  0.0374 -0.8097  0.2934
13167TIP3    H260993   2.908   0.626  15.872 -0.4819 -0.5854  1.1733
13168TIP3   OH260994   2.262   2.506  13.442  0.8961  0.3059 -0.3932
13168TIP3    H160995   2.332   2.446  13.466 -0.1983 -1.2787 -0.9900
13168TIP3    H260996   2.225   2.535  13.525 -0.6149 -2.4073 -0.0145
13169TIP3   OH260997   0.484   2.001  11.350  0.6496 -0.5246 -0.0472
13169TIP3    H160998   0.437   2.068  11.399  0.6510 -0.5986  0.0572
13169TIP3    H260999   0.416   1.959  11.296  0.7373 -0.1212 -0.4699
13170TIP3   OH261000   2.387   3.045  10.817 -0.1201  0.6601 -0.5851
13170TIP3    H161001   2.469   3.036  10.768  0.6408  0.2558  0.7080
13170TIP3    H261002   2.414   3.075  10.904 -1.4153  1.2114 -0.3392
13171TIP3   OH261003   3.076   4.117  13.650  0.0698  0.0386  0.1278
13171TIP3    H161004   3.042   4.197  13.690  1.0167 -0.4287  1.9716
13171TIP3    H261005   3.001   4.057  13.648  0.3487 -0.5736  3.0468
13172TIP3   OH261006   4.437   5.718  14.400 -0.7296 -0.2866  0.4531
13172TIP3    H161007   4.461   5.806  14.372 -2.1719  0.8397  2.4844
13172TIP3    H261008   4.480   5.707  14.485 -2.9553 -0.2743  1.6658
13173TIP3   OH261009   3.771   6.333  15.540  0.1331  0.5257 -0.0836
13173TIP3    H161010   3.823   6.282  15.602  0.2547  1.2318  0.4032
13173TIP3    H261011   3.680   6.310  15.559  0.2251 -0.3510 -0.6206
13174TIP3   OH261012   2.363   1.080   2.292  0.5131 -0.1399  0.1569
13174TIP3    H161013   2.289   1.023   2.272  0.5557  0.1587 -0.9686
13174TIP3    H261014   2.335   1.167   2.262  0.0893  0.6707  2.6669
13175TIP3   OH261015   3.339   1.641  13.446 -0.0017 -0.4403 -0.4896
13175TIP3    H161016   3.351   1.720  13.500 -0.4287 -0.8518  0.2302
13175TIP3    H261017   3.245   1.641  13.425  0.1994 -0.1741 -1.4257
13176TIP3   OH261018   3.336   2.158   4.056  0.5624 -0.2047 -0.3213
13176TIP3    H161019   3.303   2.212   4.128  1.0169 -0.8925  0.4270
13176TIP3    H261020   3.407   2.209   4.017  0.9088 -0.1978  0.3042
13177TIP3   OH261021   4.176   3.683   2.987  0.1485 -0.1135  0.4357
13177TIP3    H161022   4.158   3.594   2.958  1.3270 -1.1917  2.7266
13177TIP3    H261023   4.094   3.713   3.026  0.5457 -1.4261  2.4158
13178TIP3   OH261024   1.654   0.135   4.189  0.5396  0.3232  0.8150
13178TIP3    H161025   1.644   0.045   4.158  1.4892  0.9073 -1.3999
13178TIP3    H261026   1.748   0.145   4.202  0.8318  1.8207 -1.8892
13179TIP3   OH261027   3.750   3.681  16.361  0.2202 -0.0349 -0.2661
13179TIP3    H161028   3.680   3.630  16.402 -1.1647  0.5776 -1.7658
13179TIP3    H261029   3.704   3.745  16.306  1.9217  2.0890  0.6625
13180TIP3   OH261030   2.988   0.864  14.616 -0.2700  0.6053  1.0748
13180TIP3    H161031   3.064   0.812  14.643 -0.8010 -1.7849 -1.5790
13180TIP3    H261032   3.022   0.925  14.551 -0.7907 -2.0048 -1.8543
13181TIP3   OH261033   5.927   5.908  11.551  0.2847  0.1155  0.9062
13181TIP3    H161034   5.879   5.987  11.575  1.5211  1.5022 -0.8410
13181TIP3    H261035   5.871   5.836  11.579 -0.1970  1.5376  3.9812
13182TIP3   OH261036   6.160   1.272  11.562 -0.0982  0.3110  0.2597
13182TIP3    H161037   6.247   1.255  11.600  0.1248  0.1991 -0.2834
13182TIP3    H261038   6.163   1.227  11.478 -1.1021 -0.6796  0.7375
13183TIP3   OH261039   1.015   2.883  15.268  0.3617  0.2943  0.5913
13183TIP3    H161040   0.932   2.855  15.229 -0.2387  0.6800  1.5616
13183TIP3    H261041   1.079   2.819  15.237 -1.0827 -2.7836  3.3510
13184TIP3   OH261042   3.776   6.046  14.814  0.0026 -0.0737  0.6166
13184TIP3    H161043   3.728   6.128  14.807  0.0456 -0.1205 -0.4879
13184TIP3    H261044   3.867   6.071  14.829 -0.0355  0.0713  0.6001
13185TIP3   OH261045   1.924   2.097   2.913  0.1737 -0.3687  0.3238
13185TIP3    H161046   1.914   2.062   2.824 -0.0103  0.6013 -0.0475
13185TIP3    H261047   2.011   2.067   2.940  0.2603 -0.6206 -0.2058
13186TIP3   OH261048   4.330   5.832   4.989 -0.1900  0.7382 -0.2938
13186TIP3    H161049   4.386   5.759   5.015  0.5282  0.8508 -1.4200
13186TIP3    H261050   4.242   5.795   4.985  0.0222  0.1755  0.0658
13187TIP3   OH261051   2.703   5.379   2.934 -0.3397 -0.1246 -0.2291
13187TIP3    H161052   2.787   5.337   2.915  0.0353  0.1722  0.6722
13187TIP3    H261053   2.641   5.340   2.873  0.8170  1.0177 -2.2234
13188TIP3   OH261054   5.723   6.367   1.123  0.0121 -0.2109  0.1246
13188TIP3    H161055   5.759   6.452   1.097 -1.1324  0.3662  0.3622
13188TIP3    H261056   5.729   6.367   1.219  1.3970 -1.0468  0.0591
13189TIP3   OH261057   0.605   4.772   4.868  0.2999 -0.0046 -0.1127
13189TIP3    H161058   0.536   4.754   4.804 -0.3078  0.4384  0.3977
13189TIP3    H261059   0.632   4.862   4.849 -0.4207  0.4032  0.7203
13190TIP3   OH261060   0.728   6.334  12.478 -0.7405 -0.4446  0.2606
13190TIP3    H161061   0.692   6.249  12.502 -2.0960  0.4885  1.7239
13190TIP3    H261062   0.760   6.370  12.561  3.5873 -1.1095 -0.8689
13191TIP3   OH261063   3.427   5.677  14.328  0.2339 -0.0014 -0.1730
13191TIP3    H161064   3.386   5.635  14.253 -1.3393 -0.7007  1.0276
13191TIP3    H261065   3.442   5.767  14.301 -3.2740  0.6657 -0.3208
13192TIP3   OH261066   2.711   4.574  11.639 -0.5759  0.5449 -0.9108
13192TIP3    H161067   2.629   4.619  11.620 -0.7694 -0.0602 -1.5882
13192TIP3    H261068   2.690   4.515  11.711  0.0761  2.6117  1.0913
13193TIP3   OH261069   5.381   5.977  15.752  0.1165  0.2640  0.4641
13193TIP3    H161070   5.402   5.917  15.825  1.2519  1.0738  0.8458
13193TIP3    H261071   5.462   5.980  15.700 -0.0013  1.2606  0.3172
13194TIP3   OH261072   0.255   4.840  15.567 -0.3653 -0.0431  0.0787
13194TIP3    H161073   0.347   4.814  15.565 -0.3120  0.0292  1.2384
13194TIP3    H261074   0.207   4.759  15.551 -0.1000  0.1882 -2.2248
13195TIP3   OH261075   0.014   6.719   2.599  0.2995 -0.2223 -0.0051
13195TIP3    H161076   0.084   6.677   2.649  1.0192  0.1564 -0.6769
13195TIP3    H261077   0.005   6.806   2.638  0.5741 -0.0782 -0.2600
13196TIP3   OH261078   5.371   5.921   2.762 -0.2061  0.1314  0.0590
13196TIP3    H161079   5.277   5.930   2.779 -0.2556 -0.8103  0.3091
13196TIP3    H261080   5.407   5.889   2.844  0.2500 -0.0651 -0.2171
13197TIP3   OH261081   2.266   3.701   5.774  0.2816 -0.0323 -0.4954
13197TIP3    H161082   2.223   3.616   5.763  0.4876  0.0051 -1.7425
13197TIP3    H261083   2.284   3.707   5.868  0.1299 -1.3033 -0.3701
13198TIP3   OH261084   5.576   0.420  16.921  0.2615 -0.1396  0.0308
13198TIP3    H161085   5.559   0.326  16.913  1.6967 -0.4337  0.1992
13198TIP3    H261086   5.634   0.441  16.848  0.0412  0.5951  0.0558
13199TIP3   OH261087   3.795   6.469   3.866  0.2599 -0.1766 -0.5032
13199TIP3    H161088   3.848   6.402   3.910  1.1109  0.1667 -0.9668
13199TIP3    H261089   3.742   6.420   3.803 -0.0020 -0.5333 -0.0080
13200TIP3   OH261090   3.875   2.175   0.554  0.2872 -0.0657  0.5408
13200TIP3    H161091   3.883   2.114   0.480  2.1832 -1.7695  2.0525
13200TIP3    H261092   3.920   2.131   0.626 -0.4211  2.0917  2.3919
13201TIP3   OH261093   2.343   3.643   4.075 -0.1621  0.0896  0.4017
13201TIP3    H161094   2.413   3.605   4.023 -0.5886  0.3788 -0.3917
13201TIP3    H261095   2.262   3.613   4.033 -0.5210  0.1196  1.0468
13202TIP3   OH261096   1.453   3.176   0.744  0.2167  0.1283  0.0605
13202TIP3    H161097   1.438   3.103   0.684 -0.5649  0.3613 -0.0381
13202TIP3    H261098   1.548   3.187   0.744  0.3829 -1.0850  0.3163
13203TIP3   OH261099   4.029   2.269   4.255  0.3140 -0.5587  0.6374
13203TIP3    H161100   3.972   2.243   4.182  0.6197 -0.9017  0.5164
13203TIP3    H261101   3.970   2.307   4.320 -0.0440 -0.8396  0.4777
13204TIP3   OH261102   4.454   1.677   5.999  0.0167 -0.0316 -1.1279
13204TIP3    H161103   4.503   1.712   5.925  0.6880  0.0186 -0.6697
13204TIP3    H261104   4.514   1.613   6.039  0.0791  0.7066 -0.0127
13205TIP3   OH261105   3.273   1.906  10.797  0.3431  0.1066  0.1634
13205TIP3    H161106   3.353   1.928  10.749  0.6775 -0.1676  0.5877
13205TIP3    H261107   3.290   1.820  10.834 -0.5729 -0.4389 -0.6441
13206TIP3   OH261108   5.565   2.071   5.372  0.3092  0.4313  0.5790
13206TIP3    H161109   5.551   2.095   5.464  1.6616 -0.4591  1.0487
13206TIP3    H261110   5.539   2.149   5.323 -0.1184  1.0431  1.7403
13207TIP3   OH261111   3.295   1.263   5.714 -0.2108 -0.5082  0.7170
13207TIP3    H161112   3.259   1.177   5.694 -0.4818  0.2630 -2.6533
13207TIP3    H261113   3.379   1.266   5.668 -0.3582  1.1245  0.4985
13208TIP3   OH261114   2.888   3.891   2.424 -0.3024  0.2368  0.3001
13208TIP3    H161115   2.976   3.871   2.457  0.2290  0.7799 -0.7552
13208TIP3    H261116   2.865   3.974   2.466 -1.2912 -0.9907  2.3633
13209TIP3   OH261117   2.557   0.394   1.689  0.5079  0.2695  0.0282
13209TIP3    H161118   2.549   0.299   1.687  0.7351  0.2349  0.5053
13209TIP3    H261119   2.467   0.426   1.690  0.4188  0.0213  1.0008
13210TIP3   OH261120   4.709   5.840   5.032 -0.4465  0.2456 -0.2327
13210TIP3    H161121   4.682   5.765   5.084 -2.0776 -0.1403 -1.5480
13210TIP3    H261122   4.677   5.916   5.080 -0.7626 -0.0196 -0.0242
13211TIP3   OH261123   1.312   0.341  11.694  0.4532  0.2108 -0.2972
13211TIP3    H161124   1.277   0.430  11.703 -0.0806 -0.0597  0.4566
13211TIP3    H261125   1.407   0.352  11.692  0.6821  0.5817  3.9067
13212TIP3   OH261126   6.289   6.572   0.086 -0.4765 -0.8635  0.7084
13212TIP3    H161127   6.292   6.573   0.181  0.8109 -0.3923  0.6744
13212TIP3    H261128   6.296   6.479   0.063 -0.1316 -0.9207  1.0504
13213TIP3   OH261129   3.285   2.354  16.015  0.2826  0.5363 -0.2496
13213TIP3    H161130   3.357   2.418  16.010 -0.0778  0.9939  0.2923
13213TIP3    H261131   3.207   2.405  15.994  0.0943  0.0713 -0.6853
13214TIP3   OH261132   6.071   3.646   0.708 -0.3276  0.4828  0.1849
13214TIP3    H161133   6.162   3.631   0.685 -0.3207  0.5285  0.1825
13214TIP3    H261134   6.054   3.737   0.683  0.6541  1.7164  3.4836
13215TIP3   OH261135   3.691   1.481  16.118 -0.0395  0.5865 -0.1584
13215TIP3    H161136   3.735   1.396  16.115  3.6616  2.3297 -0.8974
13215TIP3    H261137   3.703   1.511  16.208 -1.8728  0.1534  0.2679
13216TIP3   OH261138   0.592   4.479  12.117 -0.0640 -0.3134  0.2339
13216TIP3    H161139   0.576   4.433  12.035  1.2686  0.0265 -0.2360
13216TIP3    H261140   0.505   4.510  12.144 -0.8627 -2.2370  0.0846
13217TIP3   OH261141   2.806   3.314   3.738 -0.3000  0.2489 -0.0468
13217TIP3    H161142   2.885   3.342   3.783  0.6833  0.5155 -1.8501
13217TIP3    H261143   2.786   3.385   3.678 -1.4671 -0.1645 -0.1793
13218TIP3   OH261144   2.774   5.393   1.130 -0.1417  0.1602  0.9914
13218TIP3    H161145   2.695   5.426   1.087  0.3468  1.9902  1.4219
13218TIP3    H261146   2.798   5.462   1.193  2.6269  0.4007 -0.1854
13219TIP3   OH261147   1.141   1.683  11.741 -0.0700  0.3834  0.0885
13219TIP3    H161148   1.211   1.745  11.721  1.5995 -1.5528 -0.3142
13219TIP3    H261149   1.148   1.668  11.835 -0.9594  1.2854  0.3300
13220TIP3   OH261150   4.766   0.332  14.105  0.4226  0.3706  0.2179
13220TIP3    H161151   4.844   0.311  14.156  1.0235  1.3638 -0.2553
13220TIP3    H261152   4.775   0.425  14.086 -1.1221  0.6098  0.5524
13221TIP3   OH261153   0.237   6.530   3.976 -0.5309  0.2716  0.8421
13221TIP3    H161154   0.331   6.512   3.981 -0.2606 -0.1024 -2.9536
13221TIP3    H261155   0.231   6.620   3.944 -1.4267  0.0588  0.3669
13222TIP3   OH261156   6.540   1.923  15.255 -0.0593  0.1846  0.0322
13222TIP3    H161157   6.509   1.870  15.328  3.1427  0.3942  1.7509
13222TIP3    H261158   6.607   1.870  15.213  0.8757  1.5446 -0.2810
13223TIP3   OH261159   1.005   2.955  15.524 -0.4734 -0.1738  0.2732
13223TIP3    H161160   1.017   2.932  15.432 -0.3506  1.8245 -0.2541
13223TIP3    H261161   1.069   2.901  15.571 -0.4279 -1.0993 -0.8149
13224TIP3   OH261162   1.999   5.433  14.410 -0.0586 -0.2014 -0.3669
13224TIP3    H161163   2.019   5.386  14.491 -1.5308 -0.8571 -0.3437
13224TIP3    H261164   1.987   5.364  14.345  0.2847  0.2775 -0.9414
13225TIP3   OH261165   3.886   2.293   0.127  0.4568  0.5379 -0.4243
13225TIP3    H161166   3.865   2.212   0.080 -1.6614  1.5547 -1.3567
13225TIP3    H261167   3.964   2.326   0.083  1.4303 -1.0023  0.0429
13226TIP3   OH261168   0.781   2.653   3.291 -0.3082  0.7220  0.5103
13226TIP3    H161169   0.689   2.642   3.316  0.4666 -1.2783  2.8996
13226TIP3    H261170   0.804   2.573   3.245  0.7610  0.1565  1.9401
13227TIP3   OH261171   5.017   2.138   0.866 -0.1498 -0.1094  0.3330
13227TIP3    H161172   5.113   2.147   0.869  0.1019 -2.3492  1.3525
13227TIP3    H261173   4.986   2.196   0.935  0.2899  1.9204 -1.0897
13228TIP3   OH261174   1.243   0.019   3.806 -0.3482  0.0508  0.5389
13228TIP3    H161175   1.204  -0.068   3.803  2.3271 -1.2457 -0.0364
13228TIP3    H261176   1.221   0.058   3.721  0.2124 -0.9581 -0.0930
13229TIP3   OH261177   3.846   4.971   5.302 -0.2531  0.9184  0.2835
13229TIP3    H161178   3.765   5.006   5.266 -0.3150  1.3695  0.8501
13229TIP3    H261179   3.847   5.000   5.393 -0.5243 -0.9585  0.9160
13230TIP3   OH261180   6.750   5.880  15.704  0.2036 -0.6290  0.0492
13230TIP3    H161181   6.742   5.811  15.770 -1.3027  0.2100  0.8166
13230TIP3    H261182   6.750   5.961  15.755  1.4323 -0.0273 -0.8681
13231TIP3   OH261183   4.493   1.150  11.598  0.4227 -0.3261  0.2465
13231TIP3    H161184   4.430   1.146  11.669  2.0290  1.3646  1.8641
13231TIP3    H261185   4.526   1.240  11.599  0.8423 -0.3741 -2.3557
13232TIP3   OH261186   0.935   2.149  12.708  0.1835  0.5276  0.4453
13232TIP3    H161187   0.989   2.183  12.779  2.2115 -1.6994  0.0817
13232TIP3    H261188   0.858   2.112  12.752  0.6243  0.6130  1.3173
13233TIP3   OH261189   6.194   1.625  13.448 -0.0553  0.3600  0.0227
13233TIP3    H161190   6.126   1.570  13.486 -0.5067  1.3061  0.6253
13233TIP3    H261191   6.241   1.568  13.387 -0.0079 -0.8938  1.2080
13234TIP3   OH261192   1.821   5.042  14.081  0.0460  0.1319 -0.1083
13234TIP3    H161193   1.878   4.982  14.033 -0.5144  0.1636 -0.8351
13234TIP3    H261194   1.779   4.987  14.147 -1.0723 -0.4807 -1.2876
13235TIP3   OH261195   5.853   4.754   5.472 -0.2708  0.1178 -0.0827
13235TIP3    H161196   5.907   4.813   5.524  0.4950 -1.4592  0.9862
13235TIP3    H261197   5.772   4.744   5.523 -0.8287  0.9937 -0.7586
13236TIP3   OH261198   0.794   2.457   1.021 -0.7168 -0.4357 -0.0425
13236TIP3    H161199   0.711   2.497   0.999  0.0126  1.0507 -0.2088
13236TIP3    H261200   0.830   2.511   1.092  0.2661 -0.8381 -0.2068
13237TIP3   OH261201   3.008   1.080   2.370  0.3073 -0.0556  0.0716
13237TIP3    H161202   2.948   1.067   2.296 -0.4725  0.9211  0.5159
13237TIP3    H261203   3.095   1.086   2.330 -0.1500  0.8485 -0.8041
13238TIP3   OH261204   6.048   3.365   0.267 -0.1246 -0.1186  0.5471
13238TIP3    H161205   6.037   3.335   0.177  1.1572  0.8769  0.0285
13238TIP3    H261206   5.983   3.435   0.276  1.0487  1.1230 -0.2787
13239TIP3   OH261207   4.261   3.253   3.335 -0.4557 -0.2526 -0.0196
13239TIP3    H161208   4.174   3.227   3.366 -0.4234 -0.3094  0.0253
13239TIP3    H261209   4.245   3.311   3.261 -0.5316 -0.2625 -0.0104
13240TIP3   OH261210   6.207   4.157   4.359  0.3917 -0.5722  0.2684
13240TIP3    H161211   6.255   4.080   4.327 -0.0849 -0.1031 -1.6956
13240TIP3    H261212   6.115   4.138   4.338  0.1191  0.0148  0.9032
13241TIP3   OH261213   5.248   0.527   3.671  0.1016 -0.2856  0.6134
13241TIP3    H161214   5.250   0.444   3.624  0.4385  0.0439  0.0439
13241TIP3    H261215   5.171   0.519   3.728  0.1801 -1.0188  0.6295
13242TIP3   OH261216   2.751   0.332  16.035  0.0217  0.1179  0.3422
13242TIP3    H161217   2.687   0.385  16.082  0.3815 -0.9834  2.1354
13242TIP3    H261218   2.835   0.356  16.072  0.4745  0.2041 -0.7008
13243TIP3   OH261219   6.293   0.170   4.618 -0.2203 -0.2719 -0.2764
13243TIP3    H161220   6.258   0.251   4.654  0.9530 -0.1624  0.6735
13243TIP3    H261221   6.283   0.180   4.523 -0.9180  0.5745 -0.1335
13244TIP3   OH261222   1.216   2.920   4.174  0.3471 -0.6439  0.2536
13244TIP3    H161223   1.223   3.016   4.171 -0.1241 -0.6103  0.2373
13244TIP3    H261224   1.296   2.892   4.219  0.5095 -0.2464  0.2178
13245TIP3   OH261225   0.924   6.184  16.562  0.0163  0.2043  0.3715
13245TIP3    H161226   0.933   6.101  16.609 -0.9888  0.2907  0.7486
13245TIP3    H261227   0.861   6.165  16.493  0.6955  0.3520 -0.2972
13246TIP3   OH261228   6.564   6.390  16.559  0.2622  0.6242  0.1425
13246TIP3    H161229   6.626   6.421  16.492  0.0937  0.4520 -0.0958
13246TIP3    H261230   6.517   6.319  16.516 -1.0515  1.6370 -0.1380
13247TIP3   OH261231   0.697   0.489   3.376 -0.3497 -0.2816  0.0344
13247TIP3    H161232   0.767   0.438   3.417 -0.0475 -0.2442 -0.4182
13247TIP3    H261233   0.620   0.472   3.429 -0.3739 -1.6193 -0.3980
13248TIP3   OH261234   6.310   4.288   2.895  0.7553 -0.1906 -0.8009
13248TIP3    H161235   6.255   4.295   2.973  0.4776 -1.1665 -0.8995
13248TIP3    H261236   6.333   4.379   2.874 -1.2195  0.3066 -1.0444
13249TIP3   OH261237   2.724   2.069  12.135  0.0639  0.1730 -0.7272
13249TIP3    H161238   2.747   2.117  12.214  2.3846 -0.0728 -1.1954
13249TIP3    H261239   2.674   1.994  12.167 -1.8633  1.7482  0.1686
13250TIP3   OH261240   6.654   2.537   2.508  0.3349  0.6425  0.6437
13250TIP3    H161241   6.620   2.461   2.462  0.7762 -0.2585  1.7565
13250TIP3    H261242   6.668   2.603   2.440  1.0462 -0.6640 -0.5195
13251TIP3   OH261243   4.289   5.577   5.835 -0.3571  0.3195  0.1491
13251TIP3    H161244   4.214   5.546   5.785 -1.5616 -0.0933  2.1228
13251TIP3    H261245   4.365   5.536   5.793 -1.5133 -1.8431  0.0320
13252TIP3   OH261246   6.277   2.527  12.451  0.0457  0.5808 -0.5574
13252TIP3    H161247   6.259   2.621  12.443 -1.1565  0.2577 -2.0616
13252TIP3    H261248   6.248   2.490  12.368  0.5563 -1.1331 -0.0115
13253TIP3   OH261249   4.149   3.982  13.534 -0.1999 -0.0790  0.1506
13253TIP3    H161250   4.134   3.976  13.439 -0.0050 -0.2072  0.1282
13253TIP3    H261251   4.220   4.046  13.542 -1.7650  1.7023  0.3440
13254TIP3   OH261252   0.529   4.780   2.439 -0.1659 -0.3089  0.1466
13254TIP3    H161253   0.451   4.824   2.405 -0.9214 -0.3724  1.6798
13254TIP3    H261254   0.507   4.761   2.530  1.9441  0.3711  0.8556
13255TIP3   OH261255   2.477   5.206  14.983 -0.0679  0.0425 -0.4756
13255TIP3    H161256   2.393   5.190  14.940 -1.3108 -3.5048  2.7590
13255TIP3    H261257   2.463   5.287  15.032 -1.4239 -0.1983 -0.4130
13256TIP3   OH261258   0.988   2.325   3.727  0.1995 -0.0886  0.3449
13256TIP3    H161259   1.014   2.296   3.815  1.8253  2.1692  0.6906
13256TIP3    H261260   1.070   2.330   3.678 -0.6725 -1.2971 -1.3744
13257TIP3   OH261261   6.532   0.505   2.992  0.1494  0.5103 -0.0411
13257TIP3    H161262   6.539   0.442   2.921  0.2659  1.8446 -1.2684
13257TIP3    H261263   6.603   0.568   2.975  1.7931 -0.4421  2.6656
13258TIP3   OH261264   6.505   4.572   3.757  0.2599  0.3290 -0.1269
13258TIP3    H161265   6.449   4.494   3.767 -0.0909  0.6692  0.6161
13258TIP3    H261266   6.581   4.554   3.812  2.3709 -1.4079 -3.2981
13259TIP3   OH261267   1.671   5.525  13.590  0.5663 -0.3152  0.8337
13259TIP3    H161268   1.580   5.533  13.619 -1.0035 -3.9635 -2.2089
13259TIP3    H261269   1.667   5.533  13.495  3.5513 -0.0516  0.6326
13260TIP3   OH261270   1.680   6.815   5.281  0.1883 -0.7824 -0.2257
13260TIP3    H161271   1.763   6.847   5.245  1.0222 -0.9336  1.4333
13260TIP3    H261272   1.704   6.774   5.364 -1.7484  0.8345  1.2446
13261TIP3   OH261273   3.734   5.871  14.614  0.1146  0.1314  0.0412
13261TIP3    H161274   3.800   5.928  14.574 -0.8058  1.9634  1.0024
13261TIP3    H261275   3.733   5.897  14.706 -0.8649 -0.9418  0.3487
13262TIP3   OH261276   6.158   0.566   1.766  0.1699  0.8473 -0.2442
13262TIP3    H161277   6.252   0.556   1.780 -0.0008 -0.3665  0.1263
13262TIP3    H261278   6.139   0.514   1.688 -0.2042  1.0745 -0.3081
13263TIP3   OH261279   4.071   0.343   4.120 -0.0770  0.4646  0.0186
13263TIP3    H161280   4.063   0.410   4.189 -1.4371 -0.5360  0.8812
13263TIP3    H261281   4.108   0.267   4.165 -3.0572 -0.9797  0.2977
13264TIP3   OH261282   2.935   1.098   3.578 -0.5605  0.0003  0.2933
13264TIP3    H161283   2.888   1.142   3.507 -1.3115 -0.8181  0.2505
13264TIP3    H261284   2.932   1.005   3.554  1.2081 -0.0746  0.2442
13265TIP3   OH261285   1.394   5.773   3.502  0.2807 -0.1799  0.4089
13265TIP3    H161286   1.415   5.806   3.589  1.9618 -1.3654  0.5027
13265TIP3    H261287   1.341   5.696   3.517 -0.8953  0.5770  0.2917
13266TIP3   OH261288   5.463   3.006  10.989 -0.2418  0.1439 -0.5386
13266TIP3    H161289   5.475   3.002  10.894 -1.7845  0.7005 -0.7751
13266TIP3    H261290   5.393   2.944  11.007 -1.1661  1.2969 -0.0152
13267TIP3   OH261291   5.414   6.228  14.939  0.4881  0.8557  0.5741
13267TIP3    H161292   5.331   6.262  14.905  0.3711 -0.4009 -0.5064
13267TIP3    H261293   5.481   6.271  14.886  0.4357  0.7361  0.4093
13268TIP3   OH261294   0.558   3.623  13.214  0.1257 -0.4292 -0.2757
13268TIP3    H161295   0.539   3.636  13.306  1.9887 -0.3432  0.1462
13268TIP3    H261296   0.500   3.684  13.168  0.0883  0.4711  0.9272
13269TIP3   OH261297   0.714   0.243  12.904  0.2074  0.5513 -0.4517
13269TIP3    H161298   0.631   0.279  12.873 -1.2314 -2.3652 -0.3278
13269TIP3    H261299   0.754   0.203  12.826  0.2137 -0.3041 -0.0205
13270TIP3   OH261300   6.192   6.051   4.739  0.1937 -0.7826 -0.0492
13270TIP3    H161301   6.107   6.014   4.717  0.9441 -2.3204 -0.4734
13270TIP3    H261302   6.238   5.980   4.784  1.4507 -0.1565 -0.3011
13271TIP3   OH261303   4.253   5.251  10.987 -0.6280  0.5578 -0.1439
13271TIP3    H161304   4.178   5.226  11.041  0.3791  0.5421  1.2934
13271TIP3    H261305   4.222   5.327  10.938 -2.0020 -0.2422 -0.5838
13272TIP3   OH261306   3.360   4.581   1.338  0.2365 -0.4969  0.3855
13272TIP3    H161307   3.375   4.519   1.267 -1.0596  0.6874 -0.9792
13272TIP3    H261308   3.435   4.569   1.396  1.7591 -0.9680 -1.5691
13273TIP3   OH261309   4.100   5.125   2.259  0.4510 -0.6639 -0.1803
13273TIP3    H161310   4.110   5.060   2.328  0.3278 -2.6908 -1.9920
13273TIP3    H261311   4.012   5.110   2.224  0.5165  0.2987 -0.8027
13274TIP3   OH261312   3.855   3.410  15.865 -0.0407  0.0226  0.3232
13274TIP3    H161313   3.841   3.370  15.779  1.0669  2.0652 -0.8934
13274TIP3    H261314   3.768   3.435  15.895 -0.6806 -2.5557  0.8164
13275TIP3   OH261315   4.097   1.081  15.590 -0.0823  0.3352 -0.3793
13275TIP3    H161316   4.132   1.135  15.519  0.4697 -1.0847 -1.2305
13275TIP3    H261317   4.174   1.042  15.631 -0.2369  2.4282  2.1702
13276TIP3   OH261318   4.254   4.391  15.178 -0.0639  0.2559 -0.3082
13276TIP3    H161319   4.258   4.304  15.218  0.6462  0.2830 -0.3200
13276TIP3    H261320   4.314   4.386  15.103 -0.3809  0.6130 -0.5900
13277TIP3   OH261321   3.149   5.735  12.397  0.2483 -0.2293 -0.3477
13277TIP3    H161322   3.131   5.736  12.303  0.5568 -1.8915 -0.4550
13277TIP3    H261323   3.220   5.671  12.407  0.6541  0.4003  0.9486
13278TIP3   OH261324   1.365   4.220   0.217 -0.2949  0.1338 -0.0612
13278TIP3    H161325   1.334   4.139   0.257  1.7464 -0.9891 -0.6298
13278TIP3    H261326   1.299   4.240   0.151 -1.2481 -0.5994  0.6360
13279TIP3   OH261327   4.385   0.491  11.180  0.6878 -0.2404 -0.4373
13279TIP3    H161328   4.392   0.542  11.261  1.2630  1.5196 -1.5458
13279TIP3    H261329   4.308   0.527  11.136  0.0965 -1.5086 -0.4813
13280TIP3   OH261330   1.810   0.664  11.149  0.4486  0.0038 -0.4361
13280TIP3    H161331   1.855   0.600  11.093  1.0822 -0.0792  0.1509
13280TIP3    H261332   1.763   0.720  11.088 -0.4351 -1.2489 -0.9504
13281TIP3   OH261333   3.889   1.806   3.480 -0.1396 -0.5486  0.4333
13281TIP3    H161334   3.946   1.837   3.551  0.3589  0.0671 -0.2183
13281TIP3    H261335   3.948   1.789   3.408 -0.6569 -1.0652  0.1263
13282TIP3   OH261336   6.507   5.790  14.870 -0.2488 -0.0596  0.5479
13282TIP3    H161337   6.450   5.718  14.898 -0.4342 -0.0797  0.1342
13282TIP3    H261338   6.453   5.869  14.880 -0.2613 -0.0495  0.4094
13283TIP3   OH261339   0.312   0.695   2.405  0.9716  0.7003 -0.0731
13283TIP3    H161340   0.345   0.719   2.319  1.2979 -0.8966 -0.4208
13283TIP3    H261341   0.390   0.670   2.455  0.6969  0.8053  0.4185
13284TIP3   OH261342   1.866   0.585  15.293  0.1190 -0.2226 -0.2997
13284TIP3    H161343   1.871   0.585  15.197  0.3565 -1.5585 -0.3125
13284TIP3    H261344   1.956   0.571  15.321 -0.0097 -0.2338  0.1099
13285TIP3   OH261345   6.293   3.824  13.478 -0.6355  0.0078 -0.2369
13285TIP3    H161346   6.199   3.835  13.468 -1.2454 -2.5923  1.7295
13285TIP3    H261347   6.318   3.887  13.545 -0.9446  0.6384 -0.6950
13286TIP3   OH261348   3.366   3.549  10.851 -0.3599 -0.3139 -0.1396
13286TIP3    H161349   3.290   3.592  10.890 -0.1598  0.8582 -1.0196
13286TIP3    H261350   3.440   3.603  10.878 -0.2298  0.6309 -2.2453
13287TIP3   OH261351   2.814   6.364   2.635 -0.0298  0.0558  0.4398
13287TIP3    H161352   2.724   6.392   2.651  0.3997  1.2952  0.8141
13287TIP3    H261353   2.830   6.384   2.543 -0.4971 -1.2972  0.0292
13288TIP3   OH261354   1.298   2.003  17.156 -0.5572  0.3415 -0.0844
13288TIP3    H161355   1.213   2.045  17.152 -0.7884  0.0272  1.1110
13288TIP3    H261356   1.279   1.911  17.176  0.0008 -0.0766 -1.3652
13289TIP3   OH261357   1.464   4.142  14.108  0.2065  0.1077  0.4818
13289TIP3    H161358   1.531   4.200  14.071  0.8624 -0.6373  0.4530
13289TIP3    H261359   1.381   4.180  14.081  0.6079  1.3026  0.8890
13290TIP3   OH261360   5.722   2.211   1.103  0.0193  0.6171  0.7005
13290TIP3    H161361   5.764   2.185   1.021  0.4704 -0.0532  1.1369
13290TIP3    H261362   5.754   2.149   1.168 -0.5057  1.0022  1.3485
13291TIP3   OH261363   3.238   5.849   1.698 -0.2579  0.1759  0.0289
13291TIP3    H161364   3.221   5.817   1.786  0.8844 -1.3867 -0.2805
13291TIP3    H261365   3.247   5.944   1.709  0.9384 -0.0920  1.7895
13292TIP3   OH261366   0.943   6.543   6.455  0.6281 -0.2447 -0.2533
13292TIP3    H161367   0.917   6.451   6.462  1.5208 -0.6432 -1.7090
13292TIP3    H261368   1.036   6.540   6.434  0.9884  1.0522  0.9869
13293TIP3   OH261369   2.239   0.452   2.620  0.1991 -0.6117 -0.8642
13293TIP3    H161370   2.241   0.504   2.540  1.3085 -1.2829 -1.3075
13293TIP3    H261371   2.146   0.432   2.634 -0.0379 -0.2147 -1.8027
13294TIP3   OH261372   3.216   5.382   0.770  0.1852  0.0698  0.7180
13294TIP3    H161373   3.135   5.331   0.780 -0.0934 -0.3348 -2.6075
13294TIP3    H261374   3.282   5.329   0.816 -0.9749 -0.8419  1.4104
13295TIP3   OH261375   0.357   6.139   4.990 -1.0452 -0.4422  0.1632
13295TIP3    H161376   0.443   6.145   5.032 -0.1063 -0.4102 -1.6837
13295TIP3    H261377   0.370   6.077   4.919 -2.3554  0.1656 -0.6218
13296TIP3   OH261378   5.866   6.361   2.227  0.3358 -0.3695  0.0906
13296TIP3    H161379   5.902   6.295   2.286  0.1804 -0.3946  0.1563
13296TIP3    H261380   5.800   6.407   2.278  1.1718  0.5439  0.3818
13297TIP3   OH261381   0.502   6.336  13.336 -0.1583 -0.4494 -0.0028
13297TIP3    H161382   0.545   6.288  13.406  0.1896 -1.4505 -0.8703
13297TIP3    H261383   0.411   6.305  13.338 -1.2301  2.3766  2.4610
13298TIP3   OH261384   1.414   3.939   5.534 -0.4041 -0.2082  0.2091
13298TIP3    H161385   1.330   3.928   5.488 -0.6333 -0.1775  0.6213
13298TIP3    H261386   1.392   3.982   5.616  0.1909  1.0242 -0.2620
13299TIP3   OH261387   3.044   2.870  11.077  0.4077  0.0460 -0.1886
13299TIP3    H161388   3.133   2.882  11.042  1.2139  0.3843  1.8483
13299TIP3    H261389   3.057   2.846  11.168 -1.6128 -0.5981 -0.0273
13300TIP3   OH261390   6.135   4.677   3.115 -0.1200 -0.5102 -0.0292
13300TIP3    H161391   6.085   4.611   3.162 -0.4559  0.7527  1.4457
13300TIP3    H261392   6.151   4.746   3.179 -0.8246  1.4086 -1.8051
13301TIP3   OH261393   2.510   2.144  10.959 -0.2055 -0.2392  0.4471
13301TIP3    H161394   2.516   2.209  10.889  2.5870  0.7433  1.4585
13301TIP3    H261395   2.547   2.064  10.921  0.8640  0.1616  0.6025
13302TIP3   OH261396   6.563   1.366   3.992 -0.3139 -0.0966 -0.3467
13302TIP3    H161397   6.567   1.271   3.988 -0.8303 -0.0892 -1.3962
13302TIP3    H261398   6.654   1.393   4.006 -0.4499 -0.7882  2.2975
13303TIP3   OH261399   0.784   3.204   1.183  0.3292  0.6548 -0.3994
13303TIP3    H161400   0.878   3.208   1.167  0.0594  1.2847 -1.9629
13303TIP3    H261401   0.759   3.294   1.204  0.1783  0.3540  0.8082
13304TIP3   OH261402   6.262   0.971   2.606  0.1346 -0.4379 -0.1794
13304TIP3    H161403   6.184   1.025   2.591  0.1833 -0.3518 -0.1240
13304TIP3    H261404   6.322   1.029   2.652  0.4834 -0.3098 -0.7882
13305TIP3   OH261405   2.894   0.655   2.670  0.4037  0.5019 -0.3933
13305TIP3    H161406   2.955   0.686   2.603  0.4645  0.0546 -0.5513
13305TIP3    H261407   2.907   0.560   2.672  0.3060  0.4945  0.1581
13306TIP3   OH261408   0.599   6.556   1.702 -0.5598 -0.0234  0.1098
13306TIP3    H161409   0.691   6.537   1.722  0.3538  3.6646  0.2110
13306TIP3    H261410   0.569   6.479   1.654  2.9450 -0.9534 -0.9345
13307TIP3   OH261411   1.462   6.537   5.604  0.0185  0.2392  0.1018
13307TIP3    H161412   1.420   6.548   5.519 -0.8887 -0.1054  0.4956
13307TIP3    H261413   1.480   6.626   5.634 -1.6227  0.4600  0.5033
13308TIP3   OH261414   1.438   5.185  10.774 -0.1750 -0.1336  0.6215
13308TIP3    H161415   1.438   5.104  10.722 -0.9647 -1.0474  1.9792
13308TIP3    H261416   1.501   5.168  10.844 -1.0707  0.0209  1.4864
13309TIP3   OH261417   4.056   6.595  13.067  0.0169 -0.1777  0.7210
13309TIP3    H161418   4.008   6.513  13.056 -0.7030  0.2041  1.0150
13309TIP3    H261419   4.097   6.587  13.153 -0.1967 -0.1525  0.8245
13310TIP3   OH261420   1.887   0.073   1.394 -0.3091  0.0658 -0.4028
13310TIP3    H161421   1.847  -0.014   1.384 -0.3212  0.1148 -0.8120
13310TIP3    H261422   1.841   0.112   1.468  1.5014 -1.2852  1.5586
13311TIP3   OH261423   0.447   2.545  12.765  0.4601  0.3126  0.4952
13311TIP3    H161424   0.488   2.472  12.718  1.2986  0.2209  1.3460
13311TIP3    H261425   0.353   2.531  12.752  0.6227 -0.6210  0.2049
13312TIP3   OH261426   1.047   3.621   4.788 -0.0049 -0.1230 -0.6416
13312TIP3    H161427   1.022   3.699   4.839  0.1748 -0.1463 -0.5174
13312TIP3    H261428   0.966   3.595   4.744  0.1915  0.8094 -1.5960
13313TIP3   OH261429   2.647   2.363  11.378  0.1867 -0.1720 -0.2237
13313TIP3    H161430   2.644   2.318  11.463  1.2841 -0.0013 -0.0776
13313TIP3    H261431   2.740   2.385  11.366 -0.0371  0.2763 -1.2245
13314TIP3   OH261432   0.440   2.998   1.719  0.0017  0.0606  0.0007
13314TIP3    H161433   0.535   3.008   1.727  0.3428 -2.7245  0.6047
13314TIP3    H261434   0.408   3.002   1.809 -0.6588  2.0952 -0.2780
13315TIP3   OH261435   2.098   1.421  15.487  0.3656 -0.3443 -1.0748
13315TIP3    H161436   2.083   1.332  15.456 -0.1746 -0.3946 -0.6853
13315TIP3    H261437   2.019   1.469  15.462  0.1583 -0.2532 -0.2677
13316TIP3   OH261438   0.742   6.547  13.342 -0.4802  0.0998 -0.1443
13316TIP3    H161439   0.655   6.586  13.352 -0.7404 -0.2748 -0.8301
13316TIP3    H261440   0.724   6.456  13.317  0.1104 -0.2561  0.6740
13317TIP3   OH261441   1.720   4.827   2.700 -0.0716  0.2723 -0.6126
13317TIP3    H161442   1.680   4.913   2.686 -1.3858 -0.1905  0.1086
13317TIP3    H261443   1.814   4.843   2.698 -0.2969  1.6685 -0.8070
13318TIP3   OH261444   2.940   4.004   1.577 -0.3656 -0.1921  0.2060
13318TIP3    H161445   2.866   3.966   1.528 -1.7330  2.5958 -0.0576
13318TIP3    H261446   3.007   4.021   1.511 -1.5276  1.9299 -0.5203
13319TIP3   OH261447   6.401   4.773  13.237  0.2334 -0.1411 -0.4648
13319TIP3    H161448   6.412   4.839  13.306  0.0048  0.0065 -0.5670
13319TIP3    H261449   6.317   4.731  13.257 -0.3935  0.6761 -1.2938
13320TIP3   OH261450   1.313   6.771  10.828  0.0882 -0.6244  0.1518
13320TIP3    H161451   1.239   6.832  10.815  0.8570  0.3248  0.1115
13320TIP3    H261452   1.272   6.691  10.861 -0.6798  0.9421  3.3589
13321TIP3   OH261453   6.598   6.648   2.508 -0.0301  0.0811  0.5855
13321TIP3    H161454   6.672   6.699   2.540  0.3333 -0.4339  0.5905
13321TIP3    H261455   6.638   6.582   2.450 -0.3909 -0.7097  1.2173
13322TIP3   OH261456   0.752   6.819   3.181 -0.1214  0.0822  0.1548
13322TIP3    H161457   0.708   6.782   3.257  0.4627  0.9699  0.9505
13322TIP3    H261458   0.838   6.779   3.181 -0.2957 -0.3025 -0.3496
13323TIP3   OH261459   5.643   1.465  13.358 -0.1510  0.2721  0.1279
13323TIP3    H161460   5.711   1.401  13.339  0.4239  1.4214 -1.9752
13323TIP3    H261461   5.691   1.546  13.379 -0.7551  1.4256 -2.5547
13324TIP3   OH261462   6.180   0.245   1.801  0.2603  0.6103  0.0257
13324TIP3    H161463   6.223   0.196   1.731  0.5616 -0.5408  0.9733
13324TIP3    H261464   6.093   0.266   1.766  0.3956  0.0317 -0.6742
13325TIP3   OH261465   0.649   4.369   4.357  0.7286  0.0955  0.0739
13325TIP3    H161466   0.588   4.320   4.302  0.7723 -0.4257  0.4729
13325TIP3    H261467   0.727   4.313   4.362  1.4613  0.9859 -0.8572
13326TIP3   OH261468   3.521   2.041   3.013 -0.6362 -0.5380 -0.2177
13326TIP3    H161469   3.559   1.979   3.075 -0.7743  0.8440  1.3226
13326TIP3    H261470   3.584   2.045   2.941  0.1595 -1.2326  0.4229
13327TIP3   OH261471   0.418   2.563  14.029  0.3090 -0.4476 -0.0577
13327TIP3    H161472   0.435   2.652  13.998  1.2765 -0.6055  0.0110
13327TIP3    H261473   0.336   2.539  13.985 -2.0351  1.7807  2.7161
13328TIP3   OH261474   4.967   2.537  13.195  0.2505  0.0479  0.3314
13328TIP3    H161475   5.040   2.546  13.134 -0.1557 -1.0120 -0.3403
13328TIP3    H261476   4.942   2.627  13.215 -0.5088  0.4959 -2.2261
13329TIP3   OH261477   0.336   6.141   3.403  0.5405 -0.1086  0.4345
13329TIP3    H161478   0.407   6.185   3.357  0.3266 -0.3738 -0.1677
13329TIP3    H261479   0.265   6.206   3.405  0.8021  0.1674  1.0653
13330TIP3   OH261480   4.260   0.271  14.308  0.2975 -0.1774  0.1865
13330TIP3    H161481   4.218   0.240  14.227 -0.4811  0.5989  0.2795
13330TIP3    H261482   4.333   0.324  14.278  1.1750 -1.4187  0.0217
13331TIP3   OH261483   6.346   1.572  12.028  0.1810 -0.2987  0.0316
13331TIP3    H161484   6.415   1.564  11.962 -0.0215 -0.5562 -0.1467
13331TIP3    H261485   6.361   1.658  12.068 -0.4213  0.3761 -1.1484
13332TIP3   OH261486   5.790   1.488  11.703  0.0789 -0.1066 -0.2992
13332TIP3    H161487   5.787   1.420  11.636  0.8991 -0.9639  0.5016
13332TIP3    H261488   5.807   1.440  11.785 -2.0325  0.7678  0.7404
13333TIP3   OH261489   1.516   2.195  15.038 -0.3044 -0.8344 -0.4539
13333TIP3    H161490   1.541   2.251  15.111 -0.0559  1.0412 -1.9115
13333TIP3    H261491   1.590   2.136  15.026 -0.1901 -0.9082  0.5341
13334TIP3   OH261492   3.923   3.927  13.383 -0.3093 -0.2863  0.4560
13334TIP3    H161493   3.939   3.949  13.475  0.6769  0.4181  0.1358
13334TIP3    H261494   3.986   3.980  13.335 -0.2926 -1.2239 -0.5884
13335TIP3   OH261495   6.111   4.768  13.604  0.1973  0.2196 -0.7672
13335TIP3    H161496   6.021   4.771  13.638 -0.4653 -0.0814 -2.4016
13335TIP3    H261497   6.125   4.854  13.565 -0.3172 -0.5134 -2.6900
13336TIP3   OH261498   1.321   2.748   1.619 -0.6565  0.3198 -0.2517
13336TIP3    H161499   1.243   2.737   1.563 -1.3135  0.7211  0.5561
13336TIP3    H261500   1.296   2.817   1.681 -0.2753 -0.7349  1.1093
13337TIP3   OH261501   5.474   3.536  11.775  0.7083 -0.1993  0.1660
13337TIP3    H161502   5.434   3.608  11.727 -0.5012 -1.1420 -0.2961
13337TIP3    H261503   5.520   3.484  11.708 -1.2914 -1.7231 -0.1286
13338TIP3   OH261504   2.317   5.396   6.025  0.4347  0.4247 -0.3454
13338TIP3    H161505   2.257   5.324   6.046  1.4348 -0.9406 -1.8887
13338TIP3    H261506   2.306   5.409   5.930  2.6196  0.0490 -0.7007
13339TIP3   OH261507   0.458   5.542  14.019 -0.2248 -0.4441 -0.0388
13339TIP3    H161508   0.491   5.456  13.992  1.6138 -0.1095  1.0039
13339TIP3    H261509   0.510   5.605  13.970 -0.8272  0.0856 -0.0093
13340TIP3   OH261510   0.326   0.435   1.246 -0.7428 -0.4297  0.2343
13340TIP3    H161511   0.336   0.469   1.335 -0.6485  1.7889 -0.5731
13340TIP3    H261512   0.238   0.461   1.220 -0.5749 -0.5991 -0.5150
13341TIP3   OH261513   6.554   1.039  12.135 -0.4611 -0.4767 -0.3113
13341TIP3    H161514   6.600   1.103  12.190  2.9450 -0.9579 -2.3174
13341TIP3    H261515   6.528   0.969  12.195  0.5925  0.3045  1.1002
13342TIP3   OH261516   0.378   0.807   3.303 -0.2600 -0.6174 -0.5001
13342TIP3    H161517   0.325   0.861   3.243 -0.4499  0.3393  0.5076
13342TIP3    H261518   0.462   0.797   3.258  0.0291  1.1190 -0.4125
13343TIP3   OH261519   4.033   1.821  11.184 -0.0938 -0.0585  0.4166
13343TIP3    H161520   4.060   1.835  11.275  1.1061  1.2930 -0.1103
13343TIP3    H261521   3.943   1.852  11.181  0.1312  0.6817  0.9724
13344TIP3   OH261522   5.193   1.349  15.399  0.5725 -0.6405 -0.2046
13344TIP3    H161523   5.210   1.306  15.483 -2.3793  1.3139  1.5921
13344TIP3    H261524   5.138   1.424  15.422  1.3040  1.1568 -3.7110
13345TIP3   OH261525   2.585   5.273  14.334  0.5066 -0.0387 -0.5148
13345TIP3    H161526   2.597   5.179  14.321  0.8372 -0.2220  0.8939
13345TIP3    H261527   2.503   5.280  14.383  1.3023  0.2563  0.8298
13346TIP3   OH261528   5.744   6.713   0.094  0.0414 -0.2761  0.0428
13346TIP3    H161529   5.663   6.663   0.083 -0.8478  0.5421  2.2587
13346TIP3    H261530   5.775   6.688   0.181  2.6139 -1.1095 -1.0263
13347TIP3   OH261531   6.635   3.604  12.133  0.6697  0.4525  0.2432
13347TIP3    H161532   6.599   3.692  12.120  0.7442  0.2733 -1.3532
13347TIP3    H261533   6.723   3.608  12.097  0.3500 -0.4992 -0.6974
13348TIP3   OH261534   6.148   3.184  11.909 -0.1887 -0.5149 -0.6808
13348TIP3    H161535   6.076   3.206  11.967  0.2165  2.1589 -1.0714
13348TIP3    H261536   6.118   3.211  11.822  1.5120  1.4987 -0.7312
13349TIP3   OH261537   3.925   0.163   3.298  0.4583  0.0813  0.8937
13349TIP3    H161538   3.968   0.181   3.382  1.4518  3.7550 -0.1834
13349TIP3    H261539   3.986   0.198   3.233 -0.6744 -1.8579 -1.3394
13350TIP3   OH261540   0.650   1.861  14.425  0.0296 -0.6285 -0.1839
13350TIP3    H161541   0.598   1.818  14.493 -1.2118  2.7589  1.2199
13350TIP3    H261542   0.586   1.900  14.366  0.7513  2.6219  0.9157
13351TIP3   OH261543   5.334   3.569   2.273  0.2161 -0.0444 -0.0198
13351TIP3    H161544   5.367   3.543   2.187  0.5000 -1.0927  0.3988
13351TIP3    H261545   5.271   3.501   2.296 -1.1682  1.1509 -0.1555
13352TIP3   OH261546   0.922   1.370   3.234  0.2050 -0.1129 -0.4061
13352TIP3    H161547   0.881   1.309   3.173 -0.8223 -0.4870  0.6394
13352TIP3    H261548   0.850   1.407   3.284  1.0443  0.0134  0.7440
13353TIP3   OH261549   1.467   5.168  15.316  0.1938 -0.5175 -0.4906
13353TIP3    H161550   1.378   5.170  15.282  0.1340 -1.1783 -0.3807
13353TIP3    H261551   1.518   5.217  15.251 -0.2210 -0.2423 -0.6183
13354TIP3   OH261552   2.480   6.775   0.974  0.2296 -0.1589 -0.1168
13354TIP3    H161553   2.524   6.843   1.025 -2.5160  1.3140  0.4596
13354TIP3    H261554   2.423   6.823   0.914 -0.6505 -1.9597 -0.8064
13355TIP3   OH261555   4.946   4.356   4.526  0.1356 -0.0670  0.1642
13355TIP3    H161556   4.907   4.272   4.549  1.6670 -0.9081 -0.1639
13355TIP3    H261557   4.984   4.342   4.439 -1.0207  1.4833 -0.6364
13356TIP3   OH261558   0.729   4.192   3.700 -0.3117  0.1771  0.1311
13356TIP3    H161559   0.662   4.247   3.660 -0.8177  0.6505  1.5363
13356TIP3    H261560   0.768   4.247   3.768  0.8840 -0.4001 -0.0551
13357TIP3   OH261561   1.825   0.530  14.226 -0.1794 -0.3881  0.0302
13357TIP3    H161562   1.809   0.624  14.215  0.7161 -0.3153 -0.7864
13357TIP3    H261563   1.920   0.521  14.219 -0.3293 -1.4665 -0.9253
13358TIP3   OH261564   0.217   5.090   1.133 -0.1775  0.7200  0.0687
13358TIP3    H161565   0.136   5.090   1.082  0.2543  0.2853 -0.6247
13358TIP3    H261566   0.281   5.046   1.077  0.4658  0.7981  0.7297
13359TIP3   OH261567   3.397   2.429  16.532 -0.3860  0.8364 -0.1803
13359TIP3    H161568   3.381   2.522  16.545 -1.5308  0.8340 -1.4235
13359TIP3    H261569   3.328   2.386  16.583 -1.3124  0.7290 -1.4946
13360TIP3   OH261570   3.149   1.278  14.247 -0.1679 -0.1814 -0.0551
13360TIP3    H161571   3.100   1.225  14.184 -2.3895  2.6023 -0.8909
13360TIP3    H261572   3.083   1.309  14.309  1.5807 -0.8821  2.3038
13361TIP3   OH261573   6.074   0.541   2.029 -0.5351 -0.1102  0.2831
13361TIP3    H161574   6.098   0.548   1.936  0.9868 -1.6043  0.5141
13361TIP3    H261575   6.049   0.450   2.041 -0.3832 -0.0217  1.4058
13362TIP3   OH261576   2.969   6.789  14.260 -0.2282  0.0064 -0.0664
13362TIP3    H161577   3.051   6.818  14.219 -0.6495  1.9077  0.3541
13362TIP3    H261578   2.907   6.782  14.187 -0.2431  0.6579 -0.1208
13363TIP3   OH261579   1.798   5.904  16.769  0.2042 -0.0590  0.4086
13363TIP3    H161580   1.877   5.851  16.779  0.0251  0.1164  3.6279
13363TIP3    H261581   1.798   5.928  16.676  2.7260 -1.8627 -0.1855
13364TIP3   OH261582   0.394   3.199  11.409  0.4931 -0.0120 -0.4621
13364TIP3    H161583   0.304   3.174  11.386  0.2228 -0.6504  1.1602
13364TIP3    H261584   0.399   3.292  11.387 -0.6800  0.1117 -0.2910
13365TIP3   OH261585   6.638   5.046   1.254 -0.1147  0.4160  0.8604
13365TIP3    H161586   6.707   5.025   1.192 -1.0746 -0.9106  0.2038
13365TIP3    H261587   6.680   5.040   1.340  1.0011  1.3944  0.4105
13366TIP3   OH261588   2.626   0.705   5.727 -0.2527 -0.5730 -0.2840
13366TIP3    H161589   2.639   0.688   5.633  1.2555 -0.3648 -0.1382
13366TIP3    H261590   2.645   0.798   5.737  1.0816 -0.8959  0.4452
13367TIP3   OH261591   4.998   5.178  13.295 -0.1663 -0.0762 -0.1758
13367TIP3    H161592   4.935   5.249  13.282  0.5185  0.5333 -0.2839
13367TIP3    H261593   4.945   5.098  13.295 -0.9042  0.3986 -0.5050
13368TIP3   OH261594   6.292   1.815   2.672  0.4234  0.0697 -0.5155
13368TIP3    H161595   6.310   1.811   2.766 -0.9856 -0.4042 -0.2514
13368TIP3    H261596   6.359   1.874   2.637 -0.9580  2.8830  1.2661
13369TIP3   OH261597   6.227   1.317  14.587 -0.2977  0.0369  0.4356
13369TIP3    H161598   6.205   1.224  14.580 -0.5928  0.1076  0.4007
13369TIP3    H261599   6.240   1.345  14.496  1.7058 -0.4122  0.5385
13370TIP3   OH261600   6.167   6.246   5.611 -0.4805 -0.0836  0.0737
13370TIP3    H161601   6.204   6.273   5.695 -0.3792 -0.0050  0.0042
13370TIP3    H261602   6.072   6.259   5.622 -0.4394  0.2244  0.0699
13371TIP3   OH261603   2.799   5.022   3.078  0.5458 -0.6211  0.2705
13371TIP3    H161604   2.766   5.029   2.988  0.0282 -1.5713  0.3749
13371TIP3    H261605   2.892   5.003   3.068  0.4593 -0.8702 -0.0645
13372TIP3   OH261606   4.952   2.335  11.584  0.0296 -0.0981 -0.9761
13372TIP3    H161607   4.891   2.309  11.516 -0.8254  1.1048 -0.7035
13372TIP3    H261608   4.919   2.292  11.663  0.4889 -0.7543 -1.1364
13373TIP3   OH261609   4.750   0.210   2.235  0.2327 -0.4951  0.2918
13373TIP3    H161610   4.763   0.217   2.330 -1.9952  0.1402  0.6045
13373TIP3    H261611   4.829   0.249   2.197  1.2675 -0.9462  1.8603
13374TIP3   OH261612   3.294   1.086  12.256 -0.4639 -0.1489  0.2856
13374TIP3    H161613   3.251   1.106  12.339 -1.0265 -0.3848  0.0574
13374TIP3    H261614   3.288   1.167  12.206 -0.7197 -0.2044  0.2237
13375TIP3   OH261615   3.652   1.286  14.629 -0.2441  0.1178 -0.0279
13375TIP3    H161616   3.575   1.233  14.609 -0.0791 -0.6198  1.1916
13375TIP3    H261617   3.715   1.224  14.665  0.1149  1.0575  1.0302
13376TIP3   OH261618   0.784   4.499   0.539  0.5437 -0.7671  0.3463
13376TIP3    H161619   0.832   4.480   0.459  0.6823 -0.9106  0.4626
13376TIP3    H261620   0.813   4.586   0.565 -0.9753  0.1346 -0.8352
13377TIP3   OH261621   3.906   1.383  13.780  0.1612 -0.1983  0.8437
13377TIP3    H161622   3.876   1.473  13.770 -0.4192 -0.4302  0.4145
13377TIP3    H261623   3.890   1.343  13.694  0.4504 -0.6970  1.0159
13378TIP3   OH261624   0.382   4.135   3.624 -0.1478 -0.6827  0.4395
13378TIP3    H161625   0.446   4.084   3.674 -0.2426  0.0821  1.3720
13378TIP3    H261626   0.380   4.220   3.667  1.4837  0.8686 -2.2307
13379TIP3   OH261627   5.478   3.613   1.393 -0.8353 -0.5076 -0.5896
13379TIP3    H161628   5.388   3.637   1.371 -0.3146  0.7497 -1.4159
13379TIP3    H261629   5.471   3.572   1.479 -2.3546 -1.5747 -1.1726
13380TIP3   OH261630   4.364   2.445   2.346  0.0231  0.0024 -0.1321
13380TIP3    H161631   4.352   2.531   2.386 -1.5560  0.9878 -2.5436
13380TIP3    H261632   4.301   2.389   2.391 -0.0263  0.4795  0.4058
13381TIP3   OH261633   4.805   6.168  16.720  0.2489  0.2108  0.4737
13381TIP3    H161634   4.872   6.139  16.782 -1.2980  1.4090  2.8525
13381TIP3    H261635   4.777   6.088  16.675  1.6283 -0.6451  1.0689
13382TIP3   OH261636   6.209   3.440  13.926  0.0497  0.2097  0.4491
13382TIP3    H161637   6.188   3.507  13.991  2.1269 -0.0468  1.4749
13382TIP3    H261638   6.201   3.485  13.842 -2.1093  0.7119  0.8526
13383TIP3   OH261639   1.338   3.753   5.328 -0.3120 -0.1856 -0.0895
13383TIP3    H161640   1.310   3.719   5.414  0.3095 -2.6713 -0.7973
13383TIP3    H261641   1.260   3.745   5.273 -0.8427  1.8205  0.2655
13384TIP3   OH261642   2.442   6.110   4.789 -0.1981  0.0001  0.0427
13384TIP3    H161643   2.434   6.138   4.880 -1.2374 -3.3966  1.1331
13384TIP3    H261644   2.526   6.145   4.760  0.7713  0.0896  2.7337
13385TIP3   OH261645   2.131   1.195   2.418  0.2690 -0.8326  0.3537
13385TIP3    H161646   2.045   1.236   2.429 -0.2136 -1.8775  0.7029
13385TIP3    H261647   2.112   1.112   2.375  1.0238 -1.3765  1.0412
13386TIP3   OH261648   4.736   0.661  14.301 -0.1574  0.2258 -0.0460
13386TIP3    H161649   4.704   0.644  14.213  1.8094 -0.3148 -0.7055
13386TIP3    H261650   4.815   0.713  14.289  0.7700 -0.7879  1.3226
13387TIP3   OH261651   1.988   3.711   1.523  0.4929 -0.3777 -0.3468
13387TIP3    H161652   2.041   3.687   1.447  1.3150  2.0125 -0.5991
13387TIP3    H261653   1.898   3.697   1.495  0.8228 -0.3317 -1.4626
13388TIP3   OH261654   4.365   2.782   1.085  0.1419  0.2215 -0.0577
13388TIP3    H161655   4.420   2.758   1.011  3.2426 -1.8060  2.6601
13388TIP3    H261656   4.292   2.721   1.081  0.4412 -0.0996 -1.1829
13389TIP3   OH261657   0.238   2.256   4.398 -0.8155  0.0592 -0.4431
13389TIP3    H161658   0.277   2.299   4.322 -1.0737  1.2048  0.0541
13389TIP3    H261659   0.168   2.202   4.361 -0.2275 -0.2643 -1.1170
13390TIP3   OH261660   3.522   0.207   2.237  0.1005 -0.4103  0.0096
13390TIP3    H161661   3.492   0.154   2.311 -1.6067 -1.2722 -1.2239
13390TIP3    H261662   3.613   0.183   2.225  0.5091 -0.0227  1.9999
13391TIP3   OH261663   3.384   2.222   3.702  0.1427  0.1390  0.2151
13391TIP3    H161664   3.446   2.255   3.767  2.9423 -1.7243 -1.3001
13391TIP3    H261665   3.408   2.265   3.621 -0.2838 -0.9083 -0.4942
13392TIP3   OH261666   3.934   5.523   5.296 -0.0514  0.2980  0.0047
13392TIP3    H161667   3.880   5.447   5.278 -0.3900  0.4578  0.3447
13392TIP3    H261668   4.017   5.487   5.326  0.4324  0.0249 -1.5543
13393TIP3   OH261669   1.912   3.741  15.891 -0.3959  0.2973  0.3244
13393TIP3    H161670   1.953   3.681  15.953 -2.1442 -0.1392  1.1171
13393TIP3    H261671   1.946   3.827  15.915 -0.0055 -0.0405  0.9971
13394TIP3   OH261672   1.240   1.963   3.783 -0.0659  0.0280 -0.1158
13394TIP3    H161673   1.262   1.901   3.713 -0.7555  0.9715 -1.2176
13394TIP3    H261674   1.306   2.031   3.777  0.1080 -0.0863  0.4329
13395TIP3   OH261675   1.463   1.585  11.617 -0.5601 -0.0263  0.4464
13395TIP3    H161676   1.507   1.658  11.661 -0.3832  0.0311  0.1790
13395TIP3    H261677   1.465   1.514  11.681 -1.1614  0.3482  0.8877
13396TIP3   OH261678   6.530   4.366  10.978  0.4259 -0.2094 -0.0222
13396TIP3    H161679   6.592   4.295  10.994  0.3748 -0.1931  0.2593
13396TIP3    H261680   6.471   4.363  11.054  1.7997  1.6034  1.1979
13397TIP3   OH261681   0.160   2.725  13.717 -0.3119 -0.1255  0.6493
13397TIP3    H161682   0.136   2.650  13.663 -2.0125 -0.7646  2.1513
13397TIP3    H261683   0.123   2.704  13.803  3.1464  0.3442  2.3914
13398TIP3   OH261684   5.750   0.261  13.871 -0.2453 -0.5527 -0.4591
13398TIP3    H161685   5.702   0.343  13.878 -0.1166 -0.5101 -0.0413
13398TIP3    H261686   5.779   0.242  13.960  0.1361 -0.8038 -0.6325
13399TIP3   OH261687   1.212   5.993  15.790  0.3931  0.1884 -0.2473
13399TIP3    H161688   1.219   5.936  15.867 -0.9778 -2.4739 -1.9595
13399TIP3    H261689   1.140   6.053  15.812 -0.0848 -0.6315  0.5054
13400TIP3   OH261690   2.106   4.224   5.188  0.0994  0.1365 -0.0844
13400TIP3    H161691   2.086   4.176   5.269  0.1039 -0.1823 -0.2744
13400TIP3    H261692   2.202   4.226   5.185  0.1060  0.8110  0.3126
13401TIP3   OH261693   4.263   2.710   2.264 -0.7034  0.5120 -0.3355
13401TIP3    H161694   4.326   2.681   2.197  0.9026  1.5054  0.6583
13401TIP3    H261695   4.190   2.745   2.214  0.2401  0.7913 -1.5833
13402TIP3   OH261696   2.658   1.327   2.323 -0.5148 -0.0925  0.4919
13402TIP3    H161697   2.580   1.322   2.378 -0.0066  1.5665  1.4308
13402TIP3    H261698   2.729   1.295   2.379 -0.2180  0.2227  0.3023
13403TIP3   OH261699   2.894   6.731  12.740  0.8350  0.2715 -0.2991
13403TIP3    H161700   2.810   6.700  12.706  1.0467 -0.3229 -0.2992
13403TIP3    H261701   2.900   6.821  12.710 -0.2113  0.6151  0.4677
13404TIP3   OH261702   2.138   5.898  12.212  0.6870  0.0374  0.5105
13404TIP3    H161703   2.086   5.938  12.142  0.7842 -0.6338  0.0500
13404TIP3    H261704   2.080   5.899  12.288 -0.0316 -0.7162 -0.0040
13405TIP3   OH261705   5.956   1.839  13.144  0.0674  0.1551 -0.3588
13405TIP3    H161706   6.007   1.836  13.224  0.0297 -0.0554 -0.3433
13405TIP3    H261707   6.019   1.865  13.076  0.1071  0.2951 -0.2690
13406TIP3   OH261708   4.242   4.730   0.057  0.6168  0.1123  0.0422
13406TIP3    H161709   4.228   4.736  -0.037 -0.4818  0.6060  0.2106
13406TIP3    H261710   4.220   4.818   0.090 -0.8844 -0.5555  0.9526
13407TIP3   OH261711   2.695   1.226   1.773 -0.3436 -0.1905  0.1491
13407TIP3    H161712   2.643   1.232   1.693  0.8247  0.9091 -0.5644
13407TIP3    H261713   2.639   1.265   1.841 -1.6396 -1.8016  0.0686
13408TIP3   OH261714   4.728   1.034  14.886 -0.4673  0.3361 -0.4632
13408TIP3    H161715   4.763   0.948  14.861 -0.8953  0.1917 -0.5672
13408TIP3    H261716   4.683   1.018  14.968  0.0311  0.6011 -0.1325
13409TIP3   OH261717   4.267   2.732  14.465  0.2798  0.1825 -0.2583
13409TIP3    H161718   4.188   2.752  14.415  0.2969 -0.0592 -0.3817
13409TIP3    H261719   4.255   2.642  14.496  0.2454  0.3492  0.2221
13410TIP3   OH261720   5.369   2.843   4.886  0.4497  0.6072 -0.6479
13410TIP3    H161721   5.320   2.798   4.817  2.0233 -0.2484 -1.2625
13410TIP3    H261722   5.347   2.936   4.875 -0.5336  0.3085 -1.2882
13411TIP3   OH261723   1.970   5.484   3.541  0.8201  0.3056 -0.5200
13411TIP3    H161724   1.897   5.451   3.592  0.8198  1.9992  0.6736
13411TIP3    H261725   2.045   5.431   3.569  0.8228  1.1769  1.3378
13412TIP3   OH261726   3.720   2.506  12.020 -0.1025 -0.4017  0.2654
13412TIP3    H161727   3.736   2.420  12.059 -1.3250 -0.9998 -0.4701
13412TIP3    H261728   3.773   2.506  11.940  0.5288 -0.1413  0.6812
13413TIP3   OH261729   0.800   1.232  14.567  0.1033 -0.4540 -0.3779
13413TIP3    H161730   0.842   1.199  14.646  0.9929 -1.2710 -1.1669
13413TIP3    H261731   0.868   1.283  14.523 -0.5291  0.3997 -0.4003
13414TIP3   OH261732   0.224   2.996  12.490 -0.1643  0.4816  0.4329
13414TIP3    H161733   0.235   3.023  12.399 -0.3619 -2.5053 -0.5637
13414TIP3    H261734   0.307   3.021  12.533  1.6964 -1.7582 -1.6067
13415TIP3   OH261735   1.491   1.583  10.734  0.4618 -0.0956  0.2365
13415TIP3    H161736   1.541   1.508  10.766  1.8001  1.5097  2.2270
13415TIP3    H261737   1.421   1.595  10.799  0.6522  0.7350  0.3041
13416TIP3   OH261738   0.495   0.790  14.226 -0.1796 -0.2555 -0.2709
13416TIP3    H161739   0.432   0.718  14.222  1.7133 -2.1226  1.0384
13416TIP3    H261740   0.540   0.786  14.141 -2.1547  1.5390 -1.5002
13417TIP3   OH261741   3.206   1.939   4.325 -0.2092 -0.0205 -0.2172
13417TIP3    H161742   3.176   1.902   4.408 -0.1682  1.0494  0.2928
13417TIP3    H261743   3.302   1.934   4.330 -0.2310 -1.3161 -0.8508
13418TIP3   OH261744   3.233   0.463   5.938 -0.1261  0.0011  0.6507
13418TIP3    H161745   3.309   0.466   5.881  0.6620 -2.1449  1.4684
13418TIP3    H261746   3.158   0.455   5.879  0.4200  0.5452 -0.1298
13419TIP3   OH261747   3.684   4.003  13.222  0.4237  0.1808 -0.0349
13419TIP3    H161748   3.735   3.971  13.296 -1.4351  1.5011  1.9651
13419TIP3    H261749   3.722   4.088  13.201 -0.3449  0.7564  0.8492
13420TIP3   OH261750   2.379   4.457  16.903  0.7861 -0.7035  0.3062
13420TIP3    H161751   2.472   4.438  16.888  0.9883  0.1640  0.4053
13420TIP3    H261752   2.378   4.548  16.931  0.2310 -1.5515  3.4709
13421TIP3   OH261753   4.493   2.485   3.919  0.1219  0.2455 -0.2749
13421TIP3    H161754   4.579   2.491   3.961  0.0987  2.6581 -0.4137
13421TIP3    H261755   4.511   2.485   3.825  0.0012 -0.8177 -0.3126
13422TIP3   OH261756   3.964   6.564   3.182  0.0883  0.2793 -0.5195
13422TIP3    H161757   4.028   6.635   3.192  2.9864 -2.0979 -0.8588
13422TIP3    H261758   3.975   6.535   3.091 -0.9757 -0.6834 -0.3565
13423TIP3   OH261759   5.562   0.988  13.725  0.6440  0.3532 -0.0521
13423TIP3    H161760   5.532   0.952  13.809 -0.3732  0.6495 -0.2808
13423TIP3    H261761   5.629   0.926  13.696  1.2445  0.4163  1.1213
13424TIP3   OH261762   0.521   4.735  11.775  0.1961  1.0760  0.2066
13424TIP3    H161763   0.568   4.660  11.809  0.4579  0.9326 -0.4607
13424TIP3    H261764   0.581   4.776  11.713 -0.1049  1.5850  0.2404
13425TIP3   OH261765   0.127   1.651   6.197  0.4473  0.2158  0.5305
13425TIP3    H161766   0.205   1.599   6.218 -0.7932 -1.6684  0.6946
13425TIP3    H261767   0.157   1.715   6.133  1.9710 -0.9788 -0.0034
13426TIP3   OH261768   2.753   5.160   0.100 -0.0969  0.6684 -0.3664
13426TIP3    H161769   2.844   5.187   0.089  0.1215 -0.1542 -0.5956
13426TIP3    H261770   2.723   5.139   0.011 -0.5188  0.9317 -0.2928
13427TIP3   OH261771   3.393   5.307  15.995 -1.2328 -0.2704  0.0441
13427TIP3    H161772   3.451   5.231  15.993 -2.5196 -1.2738 -0.1827
13427TIP3    H261773   3.308   5.272  16.020 -2.2073  0.8553 -1.5038
13428TIP3   OH261774   4.274   5.811  16.836  0.7581 -0.2750 -0.1437
13428TIP3    H161775   4.342   5.745  16.849  0.6254 -0.4556 -0.3778
13428TIP3    H261776   4.317   5.880  16.785  0.1989 -1.3158 -2.0801
13429TIP3   OH261777   5.297   4.063   5.439  0.2353  0.4808 -0.5093
13429TIP3    H161778   5.238   3.996   5.404 -0.2722  1.1752 -1.0223
13429TIP3    H261779   5.380   4.050   5.394  0.5457 -0.6118  0.3358
13430TIP3   OH261780   0.352   0.021  11.416 -0.0326  0.2713 -0.4478
13430TIP3    H161781   0.364  -0.065  11.456 -0.3918  0.3826 -0.0953
13430TIP3    H261782   0.261   0.044  11.435  0.4623  1.3632  0.7559
13431TIP3   OH261783   3.865   1.621   5.021  0.3859 -0.7613  0.3620
13431TIP3    H161784   3.896   1.686   4.958 -0.4230 -0.0364  0.6940
13431TIP3    H261785   3.914   1.542   5.000 -0.6685 -0.8793 -1.9248
13432TIP3   OH261786   2.877   2.695  14.557  0.0940 -0.5114  0.3849
13432TIP3    H161787   2.792   2.734  14.539  0.2304  1.1697  2.8608
13432TIP3    H261788   2.869   2.605  14.525 -1.6834  0.3075 -1.7565
13433TIP3   OH261789   6.504   2.071   0.890 -0.2278 -0.6462  0.2954
13433TIP3    H161790   6.545   2.003   0.837  0.4873 -0.4197  0.5456
13433TIP3    H261791   6.494   2.145   0.830 -1.3281 -1.0780 -0.0714
13434TIP3   OH261792   4.361   5.943   4.738  0.0873  0.3955  0.8141
13434TIP3    H161793   4.367   5.905   4.826  0.6194 -1.2524  0.0974
13434TIP3    H261794   4.417   5.888   4.684  0.6824  2.0701 -0.3565
13435TIP3   OH261795   6.005   1.032   5.624  0.1354  0.0550 -0.4715
13435TIP3    H161796   6.057   1.110   5.604 -2.1755  1.2742 -2.2000
13435TIP3    H261797   6.004   0.983   5.542 -2.2210  0.6102 -0.8394
13436TIP3   OH261798   2.476   4.560   6.525  0.6574  0.0917 -0.0846
13436TIP3    H161799   2.436   4.477   6.500 -1.5238  0.9998  0.1710
13436TIP3    H261800   2.571   4.544   6.521  0.3066 -2.5751  0.6177
13437TIP3   OH261801   5.589   0.262  12.423  0.4303 -0.1547  0.1377
13437TIP3    H161802   5.495   0.276  12.416  0.4545  0.4591  0.9235
13437TIP3    H261803   5.605   0.181  12.375 -0.3087  0.3832 -1.0533
13438TIP3   OH261804   4.078   4.256  14.349 -0.4106  0.6939  0.0220
13438TIP3    H161805   4.161   4.209  14.351 -0.2434  1.0036  2.0406
13438TIP3    H261806   4.043   4.240  14.261  1.0586 -0.6801 -0.3451
13439TIP3   OH261807   2.795   1.207  16.237  0.5959 -0.3097  0.6367
13439TIP3    H161808   2.715   1.253  16.264 -0.0039 -0.5954 -0.5804
13439TIP3    H261809   2.778   1.116  16.260 -0.0055 -0.5917 -0.7731
13440TIP3   OH261810   4.925   0.190   1.639  0.7251  0.4165  0.8235
13440TIP3    H161811   4.867   0.230   1.705 -0.6115 -0.6349  0.3391
13440TIP3    H261812   4.867   0.171   1.566  1.7403 -0.5514  0.2606
13441TIP3   OH261813   3.718   2.669  13.158  0.6339 -0.1443  0.1704
13441TIP3    H161814   3.797   2.677  13.104 -0.8554 -0.7902 -2.2837
13441TIP3    H261815   3.675   2.754  13.149  0.3709 -0.2629  0.3290
13442TIP3   OH261816   5.198   0.010  10.799 -0.1363  0.2038 -0.0995
13442TIP3    H161817   5.111   0.025  10.763  0.6870  0.3867 -2.1393
13442TIP3    H261818   5.215   0.087  10.854 -1.3256  0.0313  0.5553
13443TIP3   OH261819   4.038   1.368  13.194  0.1755 -0.6157 -0.5125
13443TIP3    H161820   4.007   1.420  13.269  0.9915 -2.0972  0.9304
13443TIP3    H261821   4.013   1.278  13.216  3.4249 -1.5929 -0.2958
13444TIP3   OH261822   6.795   4.385  13.454  0.1375 -0.2001 -0.1448
13444TIP3    H161823   6.822   4.368  13.545 -0.5709  0.7369  0.2496
13444TIP3    H261824   6.800   4.299  13.412  3.1150 -0.2226  0.0482
13445TIP3   OH261825   2.529   0.309  16.419  0.1056  0.4738 -0.0482
13445TIP3    H161826   2.577   0.235  16.383 -1.2327 -0.4772  0.0614
13445TIP3    H261827   2.438   0.291  16.398 -0.3922  1.3870  1.2099
13446TIP3   OH261828   3.705   2.870  13.985  0.1545 -0.1528 -0.1240
13446TIP3    H161829   3.690   2.900  14.075 -1.5099  1.2457 -0.8099
13446TIP3    H261830   3.674   2.779  13.984  2.1582 -0.9186  1.1819
13447TIP3   OH261831   5.976   1.338  12.431 -0.0157  0.4281  0.1289
13447TIP3    H161832   6.033   1.265  12.455  0.3047  0.8656  0.7533
13447TIP3    H261833   5.952   1.377  12.515 -0.6768  0.6682 -0.1681
13448TIP3   OH261834   2.878   2.528  13.551 -0.7311  0.5093 -0.6152
13448TIP3    H161835   2.853   2.478  13.629  0.6062  0.7588  0.0051
13448TIP3    H261836   2.799   2.529  13.496 -1.1101 -1.3641 -0.1662
13449TIP3   OH261837   3.375   6.039  17.056  0.5057  0.0003 -0.6911
13449TIP3    H161838   3.372   5.976  17.128  2.2768  2.0733  1.3770
13449TIP3    H261839   3.446   6.007  17.000 -0.0785 -0.9778 -0.9039
13450TIP3   OH261840   5.394   5.412  16.856  0.5035 -0.1224 -0.0130
13450TIP3    H161841   5.456   5.470  16.813  0.1089  0.5416  0.2939
13450TIP3    H261842   5.308   5.452  16.839  0.1016 -1.3077 -0.8808
13451TIP3   OH261843   1.045   3.716   2.970 -0.6986  1.1139 -0.2076
13451TIP3    H161844   1.064   3.762   3.052  0.6869 -1.6020  1.1478
13451TIP3    H261845   0.956   3.682   2.981 -0.4298  0.5617  0.2896
13452TIP3   OH261846   3.886   0.819  16.311 -0.2813  0.2824  0.3003
13452TIP3    H161847   3.837   0.750  16.355 -1.3689  0.8054 -0.0462
13452TIP3    H261848   3.883   0.893  16.372 -0.5285  0.5359 -0.0147
13453TIP3   OH261849   4.721   0.529   1.974  0.5815 -0.2441  0.6110
13453TIP3    H161850   4.685   0.596   1.916  1.1537 -0.8325 -0.4555
13453TIP3    H261851   4.778   0.578   2.034 -0.9662  0.5288  1.5294
13454TIP3   OH261852   5.930   4.927  11.671  0.1246  0.0961  0.1159
13454TIP3    H161853   5.913   4.859  11.736  0.4898  0.1248  0.2439
13454TIP3    H261854   5.844   4.944  11.631  0.0560 -0.5500 -0.0263
13455TIP3   OH261855   3.757   5.908   1.593 -0.0489 -0.1061 -0.2521
13455TIP3    H161856   3.695   5.870   1.655  0.9710 -0.7116  0.4204
13455TIP3    H261857   3.707   5.917   1.512 -1.2955  0.3460  0.5337
13456TIP3   OH261858   5.838   3.652  12.291 -0.2908  0.1355 -0.2632
13456TIP3    H161859   5.845   3.746  12.306 -0.2405  0.4066 -1.8143
13456TIP3    H261860   5.928   3.624  12.276 -0.3344 -0.1220 -0.0518
13457TIP3   OH261861   2.810   2.877  15.455 -0.1303  0.4704  0.0199
13457TIP3    H161862   2.891   2.928  15.463 -0.5223  0.8973  1.8902
13457TIP3    H261863   2.816   2.813  15.526 -0.6144 -0.7345 -0.9893
13458TIP3   OH261864   0.392   5.146   0.081 -0.3291 -0.2478  0.0348
13458TIP3    H161865   0.453   5.214   0.054  1.8423 -1.1588  2.2991
13458TIP3    H261866   0.402   5.078   0.015 -0.5814  0.5155 -0.8157
13459TIP3   OH261867   1.236   5.114   1.283  0.2959 -0.6457  0.1613
13459TIP3    H161868   1.321   5.097   1.323 -0.2354 -3.5430  0.2437
13459TIP3    H261869   1.199   5.028   1.266 -2.2585  0.5130 -0.7377
13460TIP3   OH261870   0.103   1.862   0.219 -0.0228 -0.0797  0.3920
13460TIP3    H161871   0.075   1.924   0.287  1.0313 -0.4780  1.2187
13460TIP3    H261872   0.198   1.864   0.224  0.0461 -0.6020 -0.6576
13461TIP3   OH261873   3.758   5.836   3.550 -0.3455 -0.8302 -0.1088
13461TIP3    H161874   3.731   5.928   3.557 -2.2552 -1.2843 -0.9620
13461TIP3    H261875   3.814   5.834   3.472 -1.1337 -0.5661 -0.6876
13462TIP3   OH261876   3.728   6.425   1.450 -0.2463 -0.0054  0.5592
13462TIP3    H161877   3.792   6.360   1.480 -0.5687  0.0038  1.3006
13462TIP3    H261878   3.775   6.477   1.385  0.5461  0.0943  1.1971
13463TIP3   OH261879   5.657   5.030   0.695 -0.3217 -0.2694  0.3378
13463TIP3    H161880   5.731   5.039   0.754 -0.0974  4.2524 -0.2206
13463TIP3    H261881   5.587   4.993   0.748  1.0154 -0.2078  2.2304
13464TIP3   OH261882   3.470   2.918   1.011  0.0903  0.3855  0.5635
13464TIP3    H161883   3.393   2.863   0.999  1.3350 -1.0553 -1.3218
13464TIP3    H261884   3.515   2.916   0.927  1.2805  2.6398  1.0589
13465TIP3   OH261885   1.282   3.820   4.321  0.6099  0.5701 -0.3597
13465TIP3    H161886   1.353   3.863   4.368  0.3925 -2.0395  2.7045
13465TIP3    H261887   1.323   3.744   4.280 -0.0708  0.0892 -0.1615
13466TIP3   OH261888   1.427   6.408  11.981  0.9583 -0.5382  0.2793
13466TIP3    H161889   1.412   6.356  12.060 -0.8159 -0.1544  0.2280
13466TIP3    H261890   1.350   6.392  11.926  0.9454  1.1674 -0.2671
13467TIP3   OH261891   0.468   4.021   5.364  0.7165  0.5751  0.1289
13467TIP3    H161892   0.388   3.968   5.368  1.2695 -0.2474  0.8370
13467TIP3    H261893   0.521   3.980   5.296  0.7319  0.8173 -0.0031
13468TIP3   OH261894   3.213   1.057  16.992 -0.4680 -0.1631 -0.5940
13468TIP3    H161895   3.123   1.045  16.963 -1.7364  2.3003  1.8178
13468TIP3    H261896   3.244   1.134  16.944 -0.8226  0.8888  0.7994
13469TIP3   OH261897   0.914   6.077   1.948 -0.0162  0.0287 -0.1084
13469TIP3    H161898   0.848   6.039   1.890  0.2291 -1.0167  0.2885
13469TIP3    H261899   0.923   6.014   2.019  2.4539 -0.5835 -0.8732
13470TIP3   OH261900   4.616   5.042  11.724 -0.3870  0.0263  1.0445
13470TIP3    H161901   4.542   5.098  11.698  0.5489  1.2199  0.8999
13470TIP3    H261902   4.694   5.089  11.694  0.4346 -1.4051  0.8458
13471TIP3   OH261903   3.105   2.472   4.017 -0.2674  0.1891  0.3024
13471TIP3    H161904   3.154   2.455   4.098  1.0656  1.0048 -0.3000
13471TIP3    H261905   3.106   2.388   3.971 -0.2397 -0.0450  0.7281
13472TIP3   OH261906   3.138   0.756  16.806  0.2172  1.0028 -0.1906
13472TIP3    H161907   3.171   0.685  16.751  1.2977  1.6394 -0.3929
13472TIP3    H261908   3.083   0.712  16.871  1.2542 -0.0853 -0.0039
13473TIP3   OH261909   3.626   5.764  12.429 -0.4214  0.1542  0.1603
13473TIP3    H161910   3.645   5.817  12.352 -1.2628 -1.5735 -1.2989
13473TIP3    H261911   3.710   5.758  12.475  0.2316  0.7352 -0.9122
13474TIP3   OH261912   4.546   4.664  14.528  0.0101  0.8459  0.4824
13474TIP3    H161913   4.470   4.637  14.476  1.0967 -0.6884 -0.3857
13474TIP3    H261914   4.523   4.640  14.618  0.3329 -1.7791 -0.0661
13475TIP3   OH261915   6.558   2.341   2.368 -0.1317 -0.1572 -0.2206
13475TIP3    H161916   6.548   2.325   2.274  0.2342 -2.1695  0.0302
13475TIP3    H261917   6.598   2.260   2.402  1.0362  1.0429  1.4545
13476TIP3   OH261918   4.974   1.592  17.105  0.7595  0.5059 -0.6008
13476TIP3    H161919   5.016   1.675  17.129  0.8996  0.3625 -0.3318
13476TIP3    H261920   4.931   1.564  17.186  2.4404 -0.7005 -0.0552
13477TIP3   OH261921   0.448   2.299  16.258  0.4876 -0.6434 -0.4895
13477TIP3    H161922   0.415   2.333  16.340 -0.9305  0.2295 -1.3784
13477TIP3    H261923   0.425   2.365  16.193  2.3672 -0.8689 -1.4800
13478TIP3   OH261924   6.086   5.187   1.658 -0.4260 -0.2481 -1.0373
13478TIP3    H161925   6.005   5.147   1.690  0.2143 -0.9725 -0.3100
13478TIP3    H261926   6.152   5.119   1.665  0.5686  0.7471 -0.3221
13479TIP3   OH261927   2.119   5.186  13.494  0.4392  0.0046  0.1250
13479TIP3    H161928   2.042   5.139  13.462 -0.1085 -0.7623  2.4017
13479TIP3    H261929   2.083   5.265  13.535  0.9665  0.2393  0.1327
13480TIP3   OH261930   4.102   1.333   6.389 -0.3460  0.1178  0.4338
13480TIP3    H161931   4.072   1.270   6.323 -0.6845 -0.1158  0.8026
13480TIP3    H261932   4.142   1.278   6.457  0.2683  0.3783  0.2780
13481TIP3   OH261933   5.304   0.523   6.507  0.5293 -0.4161  0.0010
13481TIP3    H161934   5.384   0.546   6.554 -0.4137 -0.5340  1.7602
13481TIP3    H261935   5.284   0.433   6.535 -0.9779  0.1160  0.7562
13482TIP3   OH261936   2.383   3.084  16.180  0.1136  0.0653  0.2357
13482TIP3    H161937   2.464   3.130  16.200 -0.5671  0.6607  1.7981
13482TIP3    H261938   2.343   3.134  16.109 -0.8637  2.3123  2.2338
13483TIP3   OH261939   4.754   1.662   6.329 -0.6199  0.4362  0.1274
13483TIP3    H161940   4.810   1.738   6.348 -0.5393  0.4333 -0.1038
13483TIP3    H261941   4.669   1.685   6.368 -0.3883  0.3325  0.7025
13484TIP3   OH261942   1.689   2.651   5.378  0.3026 -0.1134 -0.1282
13484TIP3    H161943   1.661   2.725   5.323 -0.6221  0.1849  0.6987
13484TIP3    H261944   1.721   2.692   5.458  0.7075 -0.5777 -0.0508
13485TIP3   OH261945   5.548   3.742   4.906 -0.0591 -0.2765 -0.3082
13485TIP3    H161946   5.640   3.768   4.912 -0.0020 -0.0193 -1.8062
13485TIP3    H261947   5.528   3.704   4.991  1.3545 -0.0733  0.1411
13486TIP3   OH261948   2.147   1.157  13.410  0.2442 -0.1331  0.0122
13486TIP3    H161949   2.208   1.214  13.365  1.5473 -0.2523  1.5345
13486TIP3    H261950   2.103   1.214  13.473 -0.3612 -0.2903 -0.2624
13487TIP3   OH261951   3.995   5.475   0.044  0.6867  0.6645 -0.1893
13487TIP3    H161952   4.016   5.501  -0.046  1.7005  0.0295 -0.1482
13487TIP3    H261953   4.054   5.528   0.098  1.3659 -0.2677 -0.0019
13488TIP3   OH261954   5.640   2.827   4.961  0.2987 -0.4107 -0.1726
13488TIP3    H161955   5.659   2.913   4.999 -0.6800 -0.5186  0.6084
13488TIP3    H261956   5.558   2.839   4.914  0.2758 -0.8586 -0.2490
13489TIP3   OH261957   2.683   5.306  15.472 -0.2130  0.4975 -0.2668
13489TIP3    H161958   2.737   5.382  15.448  0.9419 -0.5742 -1.2226
13489TIP3    H261959   2.651   5.326  15.560 -0.2084  2.2256 -0.6130
13490TIP3   OH261960   6.311   3.853   3.690  0.7708  0.4950 -0.2980
13490TIP3    H161961   6.339   3.775   3.739 -1.4199 -0.5122 -0.4995
13490TIP3    H261962   6.342   3.838   3.601  1.7119  0.6251  0.0005
13491TIP3   OH261963   0.664   0.739   4.778 -0.3257  0.8132 -0.3885
13491TIP3    H161964   0.640   0.807   4.841  0.4642  1.2642 -0.5587
13491TIP3    H261965   0.629   0.770   4.694 -1.6519  0.0629 -0.1473
13492TIP3   OH261966   0.584   4.749   0.035 -0.0718  0.5651  0.0995
13492TIP3    H161967   0.525   4.724   0.107 -0.5658  0.6215 -0.2825
13492TIP3    H261968   0.659   4.790   0.079  0.1763 -0.4445  0.6608
13493TIP3   OH261969   1.647   6.538   2.845  0.2357  0.4594  0.3041
13493TIP3    H161970   1.739   6.550   2.870  0.2396  0.8058  0.1293
13493TIP3    H261971   1.614   6.627   2.832 -0.6721  0.4689  2.2922
13494TIP3   OH261972   1.931   0.288  13.312 -0.4560 -0.8668 -0.3074
13494TIP3    H161973   1.982   0.241  13.246 -1.3874 -0.6666 -1.2026
13494TIP3    H261974   1.961   0.378  13.306  1.0492 -1.2223  1.1341
13495TIP3   OH261975   2.869   0.403  14.941 -0.5672  0.8235 -0.3581
13495TIP3    H161976   2.910   0.325  14.905 -1.4017  0.4503 -0.5315
13495TIP3    H261977   2.942   0.457  14.972  0.1337  0.8683 -2.0213
13496TIP3   OH261978   0.259   6.635  11.600 -0.0635  0.1534  0.5682
13496TIP3    H161979   0.330   6.589  11.555 -1.4463 -0.5406 -0.9800
13496TIP3    H261980   0.304   6.697  11.658  1.8016 -0.7509  0.1572
13497TIP3   OH261981   1.683   4.594   2.906 -0.0810 -0.1641 -0.2822
13497TIP3    H161982   1.600   4.585   2.860 -0.6723  0.2520  0.6755
13497TIP3    H261983   1.716   4.680   2.879 -0.6479  0.2773  0.4104
13498TIP3   OH261984   4.447   5.494  11.848 -0.3669  0.1437 -0.5750
13498TIP3    H161985   4.482   5.421  11.900  1.0856  0.9027 -0.4283
13498TIP3    H261986   4.380   5.534  11.903 -1.3798 -1.2209 -0.7651
13499TIP3   OH261987   2.995   3.493   4.282  0.2410  0.1966 -0.0859
13499TIP3    H161988   2.990   3.511   4.376  0.1016  3.1768 -0.5734
13499TIP3    H261989   3.088   3.498   4.262  0.1153  1.7387 -0.4127
13500TIP3   OH261990   2.728   1.495  11.376  0.3581 -0.4284  0.5407
13500TIP3    H161991   2.747   1.422  11.434 -2.2660 -0.3193  1.6578
13500TIP3    H261992   2.655   1.465  11.322  0.7601  0.5749 -0.6142
13501TIP3   OH261993   0.681   5.745  11.331 -0.2217  0.4677 -0.0125
13501TIP3    H161994   0.639   5.725  11.415 -0.4585 -0.7608 -0.4003
13501TIP3    H261995   0.642   5.683  11.270  2.3180 -0.9388 -0.3584
13502TIP3   OH261996   2.955   0.120  13.657 -0.0336  0.0233  0.0619
13502TIP3    H161997   2.922   0.208  13.639  1.3612  0.3486 -1.0763
13502TIP3    H261998   3.039   0.134  13.700 -0.2433 -0.7760  0.7645
13503TIP3   OH261999   3.066   4.133   4.373  0.1668  0.1972  0.3489
13503TIP3    H162000   3.111   4.215   4.390 -0.8075  0.7618  0.2675
13503TIP3    H262001   3.134   4.066   4.380  0.3872  0.5934  4.0213
13504TIP3   OH262002   2.981   6.419  12.481 -0.1491  0.3016  0.2283
13504TIP3    H162003   2.899   6.432  12.432 -0.0571 -0.5728 -0.1927
13504TIP3    H262004   3.040   6.377  12.418  0.2726 -0.0225  0.8262
13505TIP3   OH262005   2.463   1.454  16.760 -0.0398 -0.3053 -0.0731
13505TIP3    H162006   2.446   1.524  16.823  0.4318 -0.0122 -0.2698
13505TIP3    H262007   2.392   1.391  16.775 -0.5262  0.2617  0.0251
13506TIP3   OH262008   1.757   6.040   5.426 -0.1856  0.4393  0.1286
13506TIP3    H162009   1.781   6.126   5.391 -0.2192  0.5108  0.2795
13506TIP3    H262010   1.697   6.003   5.361  1.2290 -0.2416 -0.8441
13507TIP3   OH262011   0.658   5.485  13.118  0.6865  0.8416 -0.2768
13507TIP3    H162012   0.567   5.513  13.113 -0.7231 -3.1160 -0.9189
13507TIP3    H262013   0.689   5.516  13.203 -2.0441  0.4498  0.9492
13508TIP3   OH262014   1.696   0.511  13.102  0.3812  0.2103  0.2659
13508TIP3    H162015   1.773   0.494  13.157 -0.3263  0.1856  1.2877
13508TIP3    H262016   1.632   0.549  13.162 -1.4525 -2.4106  0.1721
13509TIP3   OH262017   3.365   0.777   0.139  0.2517  0.4665 -0.9667
13509TIP3    H162018   3.280   0.770   0.182  0.4106  0.4584 -0.6532
13509TIP3    H262019   3.374   0.694   0.091 -0.7387  1.2189 -2.5292
13510TIP3   OH262020   5.029   6.275   5.382  0.2840  0.4748 -0.2610
13510TIP3    H162021   5.111   6.319   5.362  0.9168 -0.4163  0.3244
13510TIP3    H262022   4.969   6.304   5.313  0.7263  2.0853 -0.0008
13511TIP3   OH262023   6.669   1.353   4.304 -0.1507  0.3259 -0.0107
13511TIP3    H162024   6.706   1.269   4.332  3.4699  1.5830 -0.4536
13511TIP3    H262025   6.716   1.374   4.223 -0.5736  2.9805  0.3456
13512TIP3   OH262026   3.818   0.828   5.509  0.2261  0.3616  0.7246
13512TIP3    H162027   3.888   0.763   5.508  0.7868  0.9522 -1.0151
13512TIP3    H262028   3.856   0.906   5.469 -1.1473  1.0015  0.5832
13513TIP3   OH262029   3.968   2.854  10.781 -0.6536 -0.1826 -0.1194
13513TIP3    H162030   3.912   2.840  10.858 -0.4653  1.0019  0.2598
13513TIP3    H262031   4.047   2.894  10.817  0.2828 -1.4528 -0.7039
13514TIP3   OH262032   3.130   2.309   0.219 -0.2728  0.0105 -0.0102
13514TIP3    H162033   3.139   2.309   0.314  0.9329 -0.4385 -0.1094
13514TIP3    H262034   3.039   2.336   0.203 -0.1872  1.0891  1.2264
13515TIP3   OH262035   6.594   3.663   5.360  0.1708  0.3350  0.0731
13515TIP3    H162036   6.625   3.752   5.347 -4.1621  2.5948  3.0311
13515TIP3    H262037   6.602   3.648   5.454 -0.2392 -2.0470 -0.2045
13516TIP3   OH262038   4.113   4.207   2.690  0.0236  0.1434 -0.3565
13516TIP3    H162039   4.118   4.302   2.696 -1.6988  0.2233  0.4562
13516TIP3    H262040   4.200   4.176   2.716  0.5721  1.4768 -0.5277
13517TIP3   OH262041   0.049   6.337  10.586 -0.1790 -0.7505 -0.1896
13517TIP3    H162042   0.126   6.303  10.633 -0.2609  0.6614  1.0430
13517TIP3    H262043   0.013   6.261  10.542 -0.5083 -2.3827  2.6292
13518TIP3   OH262044   4.367   0.890   1.352 -0.5744 -0.0596  0.3849
13518TIP3    H162045   4.295   0.953   1.344 -1.6036 -1.2639 -0.2156
13518TIP3    H262046   4.333   0.822   1.410  1.0047  0.5520  2.1192
13519TIP3   OH262047   1.565   3.681  14.224 -0.0183 -0.0068 -0.6043
13519TIP3    H162048   1.550   3.602  14.173 -2.9018  0.8146 -1.2553
13519TIP3    H262049   1.563   3.752  14.159  1.3697  0.7099  0.0959
13520TIP3   OH262050   2.700   0.169   2.722 -0.3159  0.1490  0.1360
13520TIP3    H162051   2.644   0.132   2.789 -0.0640  0.0882  0.3161
13520TIP3    H262052   2.783   0.122   2.731  0.6675  2.0641  1.6619
13521TIP3   OH262053   2.004   0.682   5.581 -0.5725 -0.4623  0.5837
13521TIP3    H162054   2.029   0.590   5.588  0.1900 -0.2751  0.4480
13521TIP3    H262055   1.945   0.697   5.655 -2.5126 -1.6059 -0.6450
13522TIP3   OH262056   2.725   0.892  11.725 -0.0935  0.8238  0.5547
13522TIP3    H162057   2.653   0.954  11.712 -0.1445  1.0336  1.6981
13522TIP3    H262058   2.787   0.913  11.655 -1.8548 -0.5033 -1.5344
13523TIP3   OH262059   3.287   4.621  15.518  0.2901  0.4049 -0.6158
13523TIP3    H162060   3.363   4.564  15.523 -0.1563 -0.1461 -0.0638
13523TIP3    H262061   3.215   4.564  15.492 -0.0812  0.7864 -0.4403
13524TIP3   OH262062   0.963   4.856   5.324 -0.0107  0.1027 -0.5996
13524TIP3    H162063   1.000   4.907   5.396 -1.1155  1.1906 -0.7631
13524TIP3    H262064   0.942   4.771   5.364  0.6818  0.2054  0.0016
13525TIP3   OH262065   5.873   0.553   1.539 -0.4823  0.2131 -0.7257
13525TIP3    H162066   5.866   0.640   1.500 -0.2804  0.4904 -0.1452
13525TIP3    H262067   5.944   0.511   1.489 -1.1418  0.0656 -1.5713
13526TIP3   OH262068   6.791   1.150  15.050 -0.4554 -0.6985  0.0933
13526TIP3    H162069   6.758   1.063  15.071 -0.9531 -0.9284 -1.4641
13526TIP3    H262070   6.846   1.175  15.124 -1.0297 -1.9594  0.9610
13527TIP3   OH262071   5.059   5.402  12.329 -0.5913  0.3447 -0.3981
13527TIP3    H162072   5.143   5.360  12.313 -0.3557  0.0246  1.4747
13527TIP3    H262073   4.996   5.330  12.328 -0.5055  0.2441  0.4944
13528TIP3   OH262074   4.005   1.767  15.747 -0.0168  0.3802 -0.2651
13528TIP3    H162075   3.935   1.719  15.791 -0.1111  0.5094 -0.2761
13528TIP3    H262076   3.990   1.749  15.654  2.5977 -3.3993 -0.1862
13529TIP3   OH262077   0.443   1.328   4.165  0.3138  0.0839  0.1279
13529TIP3    H162078   0.362   1.330   4.115 -0.4119 -2.0473  1.0985
13529TIP3    H262079   0.451   1.416   4.202 -0.7590  0.7635 -1.1596
13530TIP3   OH262080   0.280   1.325   0.791  0.0157 -0.0857 -0.2685
13530TIP3    H162081   0.203   1.311   0.735  0.1653  0.0125 -0.5006
13530TIP3    H262082   0.353   1.291   0.740 -0.2688 -3.6436  1.4055
13531TIP3   OH262083   4.074   3.900   1.044  0.1916  0.5902  0.4683
13531TIP3    H162084   4.120   3.827   1.085 -0.0638  0.3835  0.3899
13531TIP3    H262085   4.143   3.957   1.012  0.4412 -0.5766 -1.2090
13532TIP3   OH262086   1.907   5.062   0.783 -0.3838  0.4360 -0.5047
13532TIP3    H162087   1.959   5.046   0.704 -0.2182  3.0063 -1.0098
13532TIP3    H262088   1.970   5.097   0.846 -1.0222  1.2054 -0.2766
13533TIP3   OH262089   2.966   3.784   1.782 -0.1406 -0.5237  0.1200
13533TIP3    H162090   2.928   3.706   1.740 -2.1156  0.5995 -0.3436
13533TIP3    H262091   2.988   3.841   1.708 -0.6046  0.1521  0.4935
13534TIP3   OH262092   2.035   6.182  15.962 -0.4802 -0.0912 -0.0508
13534TIP3    H162093   2.115   6.229  15.987 -0.1738 -1.0346  0.8143
13534TIP3    H262094   2.040   6.099  16.009 -1.0511 -0.9686 -1.4622
13535TIP3   OH262095   3.996   2.827   2.369 -0.5199 -0.2876 -0.0691
13535TIP3    H162096   3.905   2.798   2.362 -0.0140 -2.0015  0.0626
13535TIP3    H262097   4.020   2.853   2.280 -1.0032 -0.2685 -0.1950
13536TIP3   OH262098   2.594   4.199  15.514  0.3630  0.2497 -0.2248
13536TIP3    H162099   2.504   4.194  15.546  0.1458  1.6959 -0.5447
13536TIP3    H262100   2.590   4.163  15.426 -0.3493  2.1803 -1.0267
13537TIP3   OH262101   5.563   6.496   0.387  0.1740 -0.7391 -0.1421
13537TIP3    H162102   5.592   6.523   0.474 -1.9525  3.4285 -0.4800
13537TIP3    H262103   5.644   6.481   0.338  1.6414  1.9873  1.2131
13538TIP3   OH262104   1.485   0.272  12.110  0.3350 -0.0320  0.2225
13538TIP3    H162105   1.435   0.343  12.070 -1.0684 -0.3880  1.2569
13538TIP3    H262106   1.570   0.311  12.130 -0.2618  1.2381  0.3710
13539TIP3   OH262107   3.021   6.164  16.137 -0.2486 -0.1308 -0.0783
13539TIP3    H162108   2.993   6.202  16.220 -0.1038  1.9497 -0.9349
13539TIP3    H262109   3.102   6.210  16.115 -0.2943 -0.6241 -1.3909
13540TIP3   OH262110   5.293   0.639   3.406 -0.5073 -0.0845 -0.0198
13540TIP3    H162111   5.269   0.588   3.483 -3.4655  0.8736 -0.1747
13540TIP3    H262112   5.209   0.661   3.365  0.9307 -0.6416 -3.6052
13541TIP3   OH262113   2.817   6.705  10.659  0.2314 -0.2127  0.2107
13541TIP3    H162114   2.881   6.697  10.588 -1.0283  1.1129 -1.1572
13541TIP3    H262115   2.865   6.681  10.738  1.3941 -2.9039 -1.1850
13542TIP3   OH262116   4.623   6.344  13.941 -0.0356 -0.2596 -0.7026
13542TIP3    H162117   4.662   6.418  13.894 -0.2657  1.5128  1.6964
13542TIP3    H262118   4.684   6.326  14.012 -0.7831 -1.2977 -0.3006
13543TIP3   OH262119   5.410   4.214  15.181 -0.5227 -0.0997  0.7354
13543TIP3    H162120   5.465   4.250  15.112  0.9715  1.1634  2.4804
13543TIP3    H262121   5.325   4.257  15.170  0.0020  0.8430  0.3005
13544TIP3   OH262122   2.713   1.224   3.467 -0.0683 -0.0014  0.0710
13544TIP3    H162123   2.734   1.315   3.449 -0.8053 -0.0296 -1.0869
13544TIP3    H262124   2.626   1.227   3.507  0.2369 -0.1492  0.7471
13545TIP3   OH262125   1.788   1.891  15.913  0.4262  0.1127 -0.3391
13545TIP3    H162126   1.746   1.863  15.995 -0.8346  0.1308 -0.9651
13545TIP3    H262127   1.828   1.975  15.934 -0.5880  0.5095  0.0482
13546TIP3   OH262128   5.147   0.048   1.395 -0.0860  0.1807 -0.2919
13546TIP3    H162129   5.135   0.135   1.358 -0.4266  0.2429 -0.0448
13546TIP3    H262130   5.079  -0.005   1.353  0.7568 -0.2039 -1.1850
13547TIP3   OH262131   4.510   0.542  13.389  0.0118  0.4754  0.1904
13547TIP3    H162132   4.605   0.546  13.383  0.0241  1.3556  0.7469
13547TIP3    H262133   4.488   0.451  13.369  0.8854  0.4937 -0.9370
13548TIP3   OH262134   4.121   0.644   2.369 -1.0010  0.1997  0.0616
13548TIP3    H162135   4.054   0.580   2.394 -1.0856  0.5794  0.8284
13548TIP3    H262136   4.113   0.714   2.434  0.5899 -0.0607  0.5824
13549TIP3   OH262137   1.884   1.622   0.991  0.5926 -0.1742  0.0965
13549TIP3    H162138   1.899   1.693   0.928  0.8639 -0.9202 -0.6859
13549TIP3    H262139   1.905   1.542   0.944  1.9775 -0.6954  1.4799
13550TIP3   OH262140   4.786   0.258   0.824 -0.0815 -0.5149 -0.2584
13550TIP3    H162141   4.758   0.334   0.774 -1.2010 -1.0153 -0.4338
13550TIP3    H262142   4.874   0.239   0.792 -0.6442 -0.6322 -1.8557
13551TIP3   OH262143   1.968   1.295  16.662  0.0307  0.2249  1.1626
13551TIP3    H162144   1.879   1.260  16.666 -0.3947  1.2049  0.6074
13551TIP3    H262145   1.980   1.339  16.746 -0.8747  2.0525  0.3900
13552TIP3   OH262146   4.248   1.286   1.854 -0.0873  0.7824  0.0900
13552TIP3    H162147   4.329   1.330   1.880  1.3440 -1.3689 -0.4816
13552TIP3    H262148   4.191   1.295   1.930  1.0551  1.4992  0.8999
13553TIP3   OH262149   4.134   5.655   0.420  0.0642  0.4863  0.0275
13553TIP3    H162150   4.040   5.642   0.434 -0.1630 -2.0546 -2.8506
13553TIP3    H262151   4.140   5.713   0.344  0.8198  0.6793  0.2258
13554TIP3   OH262152   5.912   6.766   3.336  0.5494  0.1742 -0.1458
13554TIP3    H162153   5.927   6.746   3.243 -1.0092 -2.5520  0.0808
13554TIP3    H262154   5.859   6.693   3.368  0.8316  1.1489  2.8652
13555TIP3   OH262155   2.083   4.094  13.244 -0.4598  0.2614 -0.5366
13555TIP3    H162156   2.047   4.150  13.313  0.2098  1.1349 -0.8872
13555TIP3    H262157   2.100   4.010  13.288 -2.5876 -0.1030 -0.2837
13556TIP3   OH262158   1.220   6.337  17.145 -0.0798 -0.0160 -0.0228
13556TIP3    H162159   1.312   6.329  17.169  1.1457  0.4385 -3.8362
13556TIP3    H262160   1.183   6.398  17.208  2.8023  1.4511  0.3875
13557TIP3   OH262161   6.088   5.746   2.635 -0.1539  0.2671  0.4565
13557TIP3    H162162   6.085   5.764   2.729 -0.5215  1.2049  0.2742
13557TIP3    H262163   6.015   5.685   2.620  1.1299 -1.5111  1.0867
13558TIP3   OH262164   2.021   1.718   5.150  0.1475 -0.0618 -0.5486
13558TIP3    H162165   1.977   1.674   5.077  0.2601 -0.7683 -0.1951
13558TIP3    H262166   1.998   1.666   5.227  0.0937  0.6357 -0.0851
13559TIP3   OH262167   0.591   6.247   5.125  0.1925 -0.0063  0.0281
13559TIP3    H162168   0.624   6.329   5.089 -0.2260  1.0807  1.9377
13559TIP3    H262169   0.654   6.181   5.097  1.7238  1.3348  0.1595
13560TIP3   OH262170   5.498   0.817   1.915 -0.3198  0.0133 -0.1709
13560TIP3    H162171   5.525   0.896   1.960 -0.3212 -0.0506 -0.0572
13560TIP3    H262172   5.482   0.754   1.985  0.9434 -0.4939 -0.2971
13561TIP3   OH262173   1.994   3.267   1.138 -0.1811  0.3542  0.3616
13561TIP3    H162174   1.942   3.345   1.156 -0.1184  0.2698  0.9404
13561TIP3    H262175   1.929   3.196   1.132 -0.0876  0.0105  2.4183
13562TIP3   OH262176   5.219   4.437  14.011 -0.3433 -0.1012  0.0770
13562TIP3    H162177   5.243   4.491  14.087 -3.1414 -1.4030  2.0466
13562TIP3    H262178   5.269   4.356  14.023 -3.2605 -1.7246  2.6738
13563TIP3   OH262179   4.748   4.255   5.424 -0.4698  0.8693 -0.0184
13563TIP3    H162180   4.680   4.254   5.357  0.2028  1.0010 -0.7158
13563TIP3    H262181   4.820   4.205   5.386 -0.5184 -0.0986  1.0982
13564TIP3   OH262182   3.483   3.733   0.628 -0.3045 -0.0391  0.3925
13564TIP3    H162183   3.564   3.713   0.674  0.1952  0.9281 -0.0562
13564TIP3    H262184   3.422   3.665   0.657  0.7026 -0.8820  0.6057
13565TIP3   OH262185   0.768   5.539  14.372  0.6722  0.4572  0.0490
13565TIP3    H162186   0.794   5.539  14.464  0.2138 -0.2991  0.1894
13565TIP3    H262187   0.686   5.489  14.371  0.3904  0.9283 -0.6926
13566TIP3   OH262188   0.765   6.330   4.434  0.1577  0.0417  0.0008
13566TIP3    H162189   0.701   6.376   4.489 -0.7397  0.9865 -1.7329
13566TIP3    H262190   0.811   6.271   4.494 -1.7811 -0.0715  1.4805
13567TIP3   OH262191   3.316   4.190  11.882  0.2500 -0.1308 -0.5223
13567TIP3    H162192   3.337   4.259  11.945  0.0743 -0.3805 -0.1897
13567TIP3    H262193   3.377   4.119  11.902  1.0214  0.2581 -1.4338
13568TIP3   OH262194   2.440   6.044  16.613 -0.1209  0.0734 -0.1777
13568TIP3    H162195   2.479   5.975  16.666  1.2895 -0.4295 -1.7515
13568TIP3    H262196   2.507   6.112  16.610 -0.9656  0.9333  0.2724
13569TIP3   OH262197   1.297   6.763   4.620  0.2241  0.1168  0.1402
13569TIP3    H162198   1.362   6.750   4.550  0.4012 -0.7614  0.4516
13569TIP3    H262199   1.346   6.746   4.700 -0.3602 -0.3993  0.3875
13570TIP3   OH262200   2.190   5.194   5.104 -0.2847 -0.5528 -0.3781
13570TIP3    H162201   2.227   5.130   5.043  1.0448 -0.4211  0.2441
13570TIP3    H262202   2.103   5.212   5.070  0.1945 -0.9428 -1.8895
13571TIP3   OH262203   0.091   2.319  17.191 -0.1894 -0.1064  0.1070
13571TIP3    H162204   0.115   2.395  17.245  1.6390  1.0445 -2.1489
13571TIP3    H262205   0.003   2.340  17.158 -0.1342  0.5236  0.3421
13572TIP3   OH262206   5.602   2.431   2.756  0.0819  0.4167  0.2404
13572TIP3    H162207   5.675   2.423   2.696 -0.5294  0.2841 -0.5040
13572TIP3    H262208   5.641   2.428   2.843  1.1179  1.8199 -0.1383
13573TIP3   OH262209   2.856   1.945   0.693  0.5170  0.3530 -0.3762
13573TIP3    H162210   2.844   1.969   0.785  2.8943  0.4882 -0.0429
13573TIP3    H262211   2.810   1.861   0.684  0.7597  0.0340  1.0981
13574TIP3   OH262212   4.470   5.278   5.458  0.2059  0.3938 -0.5663
13574TIP3    H162213   4.438   5.190   5.478  0.5426  0.5286  0.6347
13574TIP3    H262214   4.493   5.275   5.365 -1.5450 -0.2293 -1.0304
13575TIP3   OH262215   5.100   5.251  11.376  0.2803  0.0565  0.1162
13575TIP3    H162216   5.153   5.255  11.455  0.0242  1.3821  0.2508
13575TIP3    H262217   5.158   5.211  11.310  0.5996 -0.7523  0.8757
13576TIP3   OH262218   1.246   3.439   1.125 -0.0639  0.8101  0.5887
13576TIP3    H162219   1.291   3.369   1.078 -1.4628  0.7335 -0.7241
13576TIP3    H262220   1.230   3.403   1.212 -0.3107 -0.3318  0.0921
13577TIP3   OH262221   3.956   1.512  12.971 -0.3424  0.4589  0.6415
13577TIP3    H162222   4.029   1.549  13.022 -0.1362  1.1041 -0.1069
13577TIP3    H262223   3.900   1.472  13.037  0.0297  1.0821  1.3674
13578TIP3   OH262224   4.791   1.169  17.174  0.5302  0.1089  0.2580
13578TIP3    H162225   4.811   1.075  17.171 -0.6532 -0.1235 -1.5512
13578TIP3    H262226   4.872   1.209  17.204  1.1897 -1.4538  0.6853
13579TIP3   OH262227   1.416   5.670   5.622  0.0026 -0.2402  0.0722
13579TIP3    H162228   1.411   5.683   5.717  1.2220 -0.8869  0.2437
13579TIP3    H262229   1.485   5.606   5.610 -1.3660 -1.5684 -1.1574
13580TIP3   OH262230   5.682   5.578   6.330  0.1383  0.0355  0.1343
13580TIP3    H162231   5.702   5.488   6.357  0.8689  0.2622  0.3802
13580TIP3    H262232   5.656   5.621   6.411 -1.0472 -0.1662 -0.1273
13581TIP3   OH262233   2.840   0.191   0.552 -0.0779  0.1903 -0.6765
13581TIP3    H162234   2.883   0.232   0.477  1.6330  0.4718  0.3920
13581TIP3    H262235   2.760   0.242   0.564  0.0926  0.7385 -1.7423
13582TIP3   OH262236   1.477   2.680  15.159  0.5819 -0.0076 -0.0214
13582TIP3    H162237   1.572   2.676  15.148  0.4767  0.1121 -1.1655
13582TIP3    H262238   1.447   2.591  15.137  0.5072 -0.3618  1.4218
13583TIP3   OH262239   2.107   4.328   1.164 -0.3356 -0.7395 -0.4556
13583TIP3    H162240   2.097   4.395   1.230 -0.3188 -1.3405  0.1696
13583TIP3    H262241   2.021   4.320   1.122 -0.1775  0.0899 -0.9549
13584TIP3   OH262242   5.543   4.736  14.096 -0.1161  0.8906  0.1813
13584TIP3    H162243   5.614   4.688  14.138 -1.1911 -1.0296 -0.0992
13584TIP3    H262244   5.482   4.756  14.168 -0.0734  1.0903  0.1623
13585TIP3   OH262245   5.947   0.075  11.403 -0.1923 -0.4163  0.2650
13585TIP3    H162246   5.891   0.142  11.365 -0.7942 -0.4992  1.0053
13585TIP3    H262247   5.985   0.115  11.481 -0.4630 -0.8914  0.6452
13586TIP3   OH262248   2.104   3.860   3.878  0.1709  0.1843  0.1112
13586TIP3    H162249   2.079   3.897   3.793 -5.2176  0.0092  1.2661
13586TIP3    H262250   2.119   3.767   3.861 -0.1957  0.2722 -0.7346
13587TIP3   OH262251   5.343   4.419   5.799  0.7018  0.0326  0.2033
13587TIP3    H162252   5.436   4.435   5.778  0.4779  1.5835  0.2838
13587TIP3    H262253   5.342   4.330   5.835  2.0551 -0.2676 -0.4076
13588TIP3   OH262254   6.317   1.377  13.263  0.0523 -0.4558 -0.2615
13588TIP3    H162255   6.315   1.344  13.173 -2.3226  2.8532 -1.6253
13588TIP3    H262256   6.252   1.324  13.309  1.1512 -2.0598 -0.4740
13589TIP3   OH262257   5.348   3.579  14.914  0.0235  0.4315 -0.0095
13589TIP3    H162258   5.391   3.552  14.833 -0.3655 -0.0220 -0.0641
13589TIP3    H262259   5.378   3.516  14.979 -1.8233 -0.9172 -0.3904
13590TIP3   OH262260   4.882   3.499  15.912  0.0681  0.3714 -0.3651
13590TIP3    H162261   4.918   3.426  15.963 -1.0352  0.3171  0.3734
13590TIP3    H262262   4.829   3.457  15.844  1.0225  0.4603 -1.1908
13591TIP3   OH262263   4.479   6.648  10.917  0.3351 -0.2188 -0.0498
13591TIP3    H162264   4.464   6.734  10.879 -1.6203  0.3883  1.8658
13591TIP3    H262265   4.454   6.587  10.847 -0.4474  0.7897 -0.6877
13592TIP3   OH262266   3.052   1.611  15.548  0.2146  0.4484 -0.0727
13592TIP3    H162267   3.047   1.538  15.487  2.0748 -0.0450  0.2965
13592TIP3    H262268   3.061   1.571  15.634  3.1938  0.9577 -0.0181
13593TIP3   OH262269   4.965   4.900  10.541  0.0749  0.3064  0.4323
13593TIP3    H162270   5.008   4.982  10.564  1.9560 -0.5361  0.1585
13593TIP3    H262271   5.037   4.838  10.530 -1.3145 -1.5066  1.1080
13594TIP3   OH262272   0.062   2.089  11.186 -0.1120 -0.2381 -0.0903
13594TIP3    H162273   0.126   2.023  11.158  0.4325  0.7974 -1.3721
13594TIP3    H262274   0.020   2.050  11.263 -0.2532 -2.3656 -1.1714
13595TIP3   OH262275   5.571   3.605  16.632  0.5723  0.1127 -0.2196
13595TIP3    H162276   5.499   3.542  16.633  1.3263 -0.8044 -1.1011
13595TIP3    H262277   5.576   3.634  16.541  0.7683  0.8124  0.0120
13596TIP3   OH262278   1.803   4.201   5.305 -0.0034  0.3202 -0.9284
13596TIP3    H162279   1.824   4.251   5.384 -0.8320 -0.0694 -0.4443
13596TIP3    H262280   1.883   4.203   5.253  0.3198  1.2128 -0.4185
13597TIP3   OH262281   4.359   3.058  11.582  0.2331 -0.3028 -0.0892
13597TIP3    H162282   4.382   3.017  11.498  1.4292 -0.4626  0.2951
13597TIP3    H262283   4.292   3.001  11.618 -0.3929 -0.1648 -0.9901
13598TIP3   OH262284   5.412   1.938  12.896 -0.4695 -0.3041  0.1136
13598TIP3    H162285   5.362   2.018  12.913  0.1689 -0.3420  2.6342
13598TIP3    H262286   5.375   1.902  12.815 -2.0818  1.4973 -0.0132
13599TIP3   OH262287   1.655   3.133  13.772  0.1561  0.7302  0.3368
13599TIP3    H162288   1.610   3.181  13.702  0.5007 -1.5836 -1.5849
13599TIP3    H262289   1.593   3.133  13.845 -1.9056 -0.0736 -1.3257
13600TIP3   OH262290   2.597   4.631   4.651  0.3183  0.1057 -0.1742
13600TIP3    H162291   2.538   4.677   4.712 -0.5059  0.0128 -0.8875
13600TIP3    H262292   2.681   4.627   4.698  0.0208  1.0712  0.4820
13601TIP3   OH262293   0.701   1.041   4.877 -0.0530 -0.5517 -0.1934
13601TIP3    H162294   0.733   1.045   4.967 -0.4091  0.3460 -0.0921
13601TIP3    H262295   0.621   0.989   4.882  0.8595 -2.0131 -0.2978
13602TIP3   OH262296   6.736   5.706   4.735 -0.5672 -0.0097  0.2312
13602TIP3    H162297   6.698   5.722   4.649  0.4832  1.9135  0.0727
13602TIP3    H262298   6.805   5.642   4.719 -0.9697 -0.3420 -0.2007
13603TIP3   OH262299   4.470   6.217   5.624  0.4297  0.4642 -0.3980
13603TIP3    H162300   4.517   6.146   5.581 -0.7258 -2.3755  2.6247
13603TIP3    H262301   4.526   6.243   5.697  0.1341  1.6310 -0.5561
13604TIP3   OH262302   2.457   6.005  16.152  0.1292  0.0829 -0.5006
13604TIP3    H162303   2.543   6.042  16.171  0.6311 -0.3689 -1.7967
13604TIP3    H262304   2.406   6.022  16.231  0.0522  4.2376 -1.2321
13605TIP3   OH262305   1.002   5.465  12.488 -0.3291  0.2577  0.2362
13605TIP3    H162306   0.917   5.499  12.461  0.9706  2.1952 -1.7857
13605TIP3    H262307   1.004   5.375  12.455 -1.8264 -0.0791  0.9793
13606TIP3   OH262308   0.144   6.426  12.087  0.6235 -0.5040 -0.0844
13606TIP3    H162309   0.229   6.468  12.104  1.4621 -1.7654 -0.9893
13606TIP3    H262310   0.130   6.439  11.993  0.8467 -2.1105 -0.3567
13607TIP3   OH262311   6.299   4.174  13.379  0.2901 -0.5968 -0.2482
13607TIP3    H162312   6.358   4.107  13.345 -1.2899 -2.5162  0.5630
13607TIP3    H262313   6.257   4.210  13.301  1.9778  0.3218 -0.7800
13608TIP3   OH262314   6.632   6.818   5.223 -0.0652  0.2754 -0.3933
13608TIP3    H162315   6.688   6.756   5.176  2.8103  1.7364  0.8814
13608TIP3    H262316   6.604   6.881   5.156  0.0569 -0.2757 -0.9760
13609TIP3   OH262317   3.388   5.918  14.154 -0.0268  0.0052  0.1096
13609TIP3    H162318   3.410   5.990  14.096  0.0347  0.1260  0.2824
13609TIP3    H262319   3.343   5.855  14.098 -0.5530  0.4127  0.0722
13610TIP3   OH262320   3.094   4.191  16.586 -0.1367  0.1119 -0.0924
13610TIP3    H162321   3.168   4.211  16.529 -0.1270  0.5492  0.0652
13610TIP3    H262322   3.086   4.268  16.642 -0.0911 -0.3437  0.5572
13611TIP3   OH262323   2.715   5.751   3.483  0.5691 -0.2747  0.1014
13611TIP3    H162324   2.739   5.758   3.575 -1.3131 -2.9255  0.9195
13611TIP3    H262325   2.622   5.726   3.484  0.4032 -0.0532 -2.5257
13612TIP3   OH262326   3.428   0.962  15.531  0.4174  0.1415  0.1693
13612TIP3    H162327   3.479   0.971  15.611  1.7802  0.6196 -0.7114
13612TIP3    H262328   3.490   0.984  15.461 -0.3268 -1.5747 -1.1058
13613TIP3   OH262329   1.089   2.397   4.387 -0.5822 -0.4672  0.1184
13613TIP3    H162330   1.145   2.326   4.417 -0.7281  0.2710  2.3061
13613TIP3    H262331   1.122   2.475   4.432 -3.2296  0.0273  1.3918
13614TIP3   OH262332   5.073   4.272  13.425  0.6121  0.1984 -0.1868
13614TIP3    H162333   5.156   4.308  13.395  0.7502 -1.0646 -1.4014
13614TIP3    H262334   5.078   4.178  13.404 -0.4245 -0.2272  1.2923
13615TIP3   OH262335   1.238   5.083   4.709 -0.0806  0.0044  0.1974
13615TIP3    H162336   1.316   5.068   4.762 -0.5337  0.2831  0.9585
13615TIP3    H262337   1.251   5.170   4.671  0.4179 -0.3511 -0.4740
13616TIP3   OH262338   1.660   1.282  13.226  0.2947 -0.7017  0.5547
13616TIP3    H162339   1.588   1.345  13.218  0.5355 -0.2828  1.4555
13616TIP3    H262340   1.716   1.298  13.150 -0.6005 -1.1026 -0.2123
13617TIP3   OH262341   5.168   0.191  16.436 -0.2779 -1.0398 -0.3255
13617TIP3    H162342   5.097   0.179  16.499 -1.1434 -2.1581 -1.4538
13617TIP3    H262343   5.201   0.279  16.453 -0.1061 -1.4951  2.0338
13618TIP3   OH262344   1.868   1.259  15.308 -0.3301 -0.3829  0.3542
13618TIP3    H162345   1.815   1.184  15.335 -0.1914 -0.7066 -0.2669
13618TIP3    H262346   1.929   1.223  15.244  1.4388 -0.2832  1.8804
13619TIP3   OH262347   0.585   1.301  13.603  0.5602 -0.1111 -0.5880
13619TIP3    H162348   0.495   1.273  13.585 -0.4595 -0.0705  3.3907
13619TIP3    H262349   0.575   1.371  13.667  3.4171 -0.3573  0.2549
13620TIP3   OH262350   5.266   2.698  15.538  0.3328  0.1393  0.1928
13620TIP3    H162351   5.290   2.624  15.593  0.0943 -0.3170 -0.3028
13620TIP3    H262352   5.231   2.658  15.458 -2.2703  0.7291  0.9285
13621TIP3   OH262353   5.881   1.882   0.381 -0.3411  0.3350  0.0332
13621TIP3    H162354   5.961   1.869   0.433 -1.4676  0.4660  1.8828
13621TIP3    H262355   5.810   1.868   0.443 -1.8597 -1.8833 -1.9992
13622TIP3   OH262356   2.025   3.713   2.203 -0.4417 -0.7477  0.0427
13622TIP3    H162357   2.001   3.769   2.277  0.4552  1.0521 -0.9747
13622TIP3    H262358   2.097   3.660   2.236  0.1860  0.2815  0.3844
13623TIP3   OH262359   3.184   5.101   0.531 -0.3639  0.4086  0.2433
13623TIP3    H162360   3.168   5.169   0.465  2.5326  0.4099 -0.6019
13623TIP3    H262361   3.158   5.020   0.487  0.7065  0.5036 -0.6123
13624TIP3   OH262362   3.537   6.078   1.861 -0.5365 -0.1875  0.9875
13624TIP3    H162363   3.631   6.094   1.862 -0.4877  0.2380 -1.8091
13624TIP3    H262364   3.498   6.166   1.854 -1.0401 -0.4521  0.3959
13625TIP3   OH262365   3.991   3.038  13.550  0.0648 -0.0953 -0.3943
13625TIP3    H162366   3.924   3.011  13.613  1.8170  0.9032  2.0514
13625TIP3    H262367   4.070   3.050  13.603  1.7157  0.6204 -2.8549
13626TIP3   OH262368   0.752   1.487  13.448 -0.3699 -0.7799 -0.4356
13626TIP3    H162369   0.770   1.452  13.361 -0.2514  0.2675 -0.8431
13626TIP3    H262370   0.671   1.444  13.475  0.8427 -2.9737 -0.0160
13627TIP3   OH262371   6.503   1.715   6.369 -0.0095  0.5809  0.9622
13627TIP3    H162372   6.422   1.760   6.343  0.1854  0.8237  0.7801
13627TIP3    H262373   6.474   1.628   6.395 -0.0182 -0.2772 -1.6834
13628TIP3   OH262374   1.391   4.038   2.378  0.6522 -0.2837 -0.0231
13628TIP3    H162375   1.339   4.080   2.447  0.5860  1.4907 -1.0984
13628TIP3    H262376   1.329   3.982   2.332  0.3518 -0.2990  0.3925
13629TIP3   OH262377   4.717   6.162  11.424  0.7730 -0.2627  0.0335
13629TIP3    H162378   4.653   6.172  11.494 -0.1016  0.3421 -0.8230
13629TIP3    H262379   4.688   6.085  11.375  1.7566 -1.0791  0.6986
13630TIP3   OH262380   5.599   0.806   5.426 -0.1873 -0.3829 -0.0398
13630TIP3    H162381   5.526   0.865   5.444  0.8123  0.1673  2.6076
13630TIP3    H262382   5.563   0.719   5.438 -0.5916 -0.1467  0.4930
13631TIP3   OH262383   1.012   3.901   4.865  0.7290  0.0415 -0.1729
13631TIP3    H162384   1.044   3.990   4.883  0.2635  0.4029 -1.0524
13631TIP3    H262385   0.983   3.905   4.774  0.4509 -0.9462 -0.1304
13632TIP3   OH262386   1.335   5.894   2.237  0.2458 -0.3510  0.2168
13632TIP3    H162387   1.319   5.807   2.201 -0.5108 -0.8372  1.6395
13632TIP3    H262388   1.415   5.884   2.289  0.1954 -0.1902  0.3286
13633TIP3   OH262389   4.624   3.644  11.930 -0.3069  0.6513  0.0547
13633TIP3    H162390   4.625   3.562  11.881 -1.2443  0.0349  1.0084
13633TIP3    H262391   4.692   3.697  11.890  0.9025 -0.9063 -0.0598
13634TIP3   OH262392   0.712   6.343  15.081  0.4020  0.2353  0.2345
13634TIP3    H162393   0.708   6.400  15.158 -1.4113 -0.5999  0.7984
13634TIP3    H262394   0.690   6.256  15.115 -0.0638 -0.2093 -1.1689
13635TIP3   OH262395   5.388   4.356  16.871  0.6613 -0.2592 -0.1416
13635TIP3    H162396   5.352   4.445  16.864  0.6181 -0.0427  2.1068
13635TIP3    H262397   5.465   4.366  16.927 -0.0405 -1.7943  1.1690
13636TIP3   OH262398   6.549   5.761   1.175  0.1410  0.1013  0.5501
13636TIP3    H162399   6.644   5.763   1.166  0.0546  0.8525 -0.4017
13636TIP3    H262400   6.522   5.685   1.123  0.1227  0.8336 -0.5617
13637TIP3   OH262401   4.809   5.711   0.179  0.1271  0.1308 -0.5110
13637TIP3    H162402   4.838   5.622   0.156  0.9293  0.0980  0.5631
13637TIP3    H262403   4.877   5.744   0.237  0.8612  2.2148 -2.4309
13638TIP3   OH262404   6.012   2.999   4.490 -0.0787 -0.0984 -0.7167
13638TIP3    H162405   5.966   3.080   4.466  2.6715  1.8589  0.1117
13638TIP3    H262406   5.946   2.947   4.535 -1.7147  2.1913 -0.2457
13639TIP3   OH262407   2.931   1.811  15.701  0.0436 -0.1759 -0.5112
13639TIP3    H162408   2.849   1.830  15.748  1.3387  0.6063  1.5570
13639TIP3    H262409   2.951   1.720  15.722 -1.0092 -0.8669 -2.2629
13640TIP3   OH262410   0.025   6.201  16.585 -0.1208 -0.3217  0.2453
13640TIP3    H162411   0.096   6.174  16.644  0.3252  1.8853  0.7973
13640TIP3    H262412  -0.051   6.150  16.614  0.6647 -0.9971  1.1805
13641TIP3   OH262413   6.343   1.562  10.531 -0.0060 -0.6362  0.1101
13641TIP3    H162414   6.347   1.637  10.590 -0.0081 -1.0789  0.6830
13641TIP3    H262415   6.412   1.578  10.467 -0.6614  0.3416 -0.3658
13642TIP3   OH262416   2.807   1.801   1.750 -0.2507  0.3008 -0.3626
13642TIP3    H162417   2.768   1.725   1.792 -0.3510  1.3845  1.6479
13642TIP3    H262418   2.883   1.767   1.703 -1.0370 -1.1996 -0.5726
13643TIP3   OH262419   5.852   0.470  13.439  0.3717  0.5118  0.6124
13643TIP3    H162420   5.857   0.455  13.534 -0.1057  1.3127  0.7716
13643TIP3    H262421   5.799   0.397  13.407  0.2669  0.4073  1.0068
13644TIP3   OH262422   4.578   0.391   1.591 -0.5826  0.3936 -0.5529
13644TIP3    H162423   4.588   0.436   1.675 -2.7112 -1.1048  0.5855
13644TIP3    H262424   4.487   0.404   1.567 -0.4605 -0.6996 -1.7333
13645TIP3   OH262425   2.492   4.493   4.170 -0.1658  0.2257 -0.2102
13645TIP3    H162426   2.488   4.553   4.095  2.0491  0.5671 -0.1251
13645TIP3    H262427   2.516   4.548   4.244  0.8123 -0.5607  0.0888
13646TIP3   OH262428   1.003   5.296  13.390 -0.5966  0.1498 -0.3255
13646TIP3    H162429   0.977   5.228  13.452  0.4879 -2.0495 -2.1071
13646TIP3    H262430   0.950   5.279  13.312 -1.9782  2.8805 -0.0809
13647TIP3   OH262431   3.059   2.932   4.584  0.0749  0.4028  0.2540
13647TIP3    H162432   3.055   2.954   4.677  0.6915 -0.0777  0.3943
13647TIP3    H262433   3.126   2.991   4.549 -1.2069  1.6631 -0.2057
13648TIP3   OH262434   1.451   1.813   5.420  0.4598  0.6169 -0.5988
13648TIP3    H162435   1.381   1.835   5.481  1.9069  1.5402  0.7970
13648TIP3    H262436   1.445   1.718   5.409 -0.4563  0.5674  0.1748
13649TIP3   OH262437   0.923   4.057  11.479  0.7594 -0.2339  0.4356
13649TIP3    H162438   0.876   3.991  11.428  1.8570 -0.9424  0.2932
13649TIP3    H262439   1.010   4.019  11.493  1.5102  1.2920  0.1299
13650TIP3   OH262440   0.156   3.674  15.847 -0.2606 -0.6499 -1.1503
13650TIP3    H162441   0.242   3.648  15.814  1.3620  2.5595  0.1563
13650TIP3    H262442   0.115   3.720  15.774 -0.2184 -0.8504 -1.2994
13651TIP3   OH262443   6.703   0.453   0.344  0.3062  0.5298 -0.1869
13651TIP3    H162444   6.765   0.517   0.378  0.9296  0.4471 -1.1356
13651TIP3    H262445   6.657   0.498   0.273 -0.9553  0.6877  0.6949
13652TIP3   OH262446   1.542   5.961  12.361 -0.0615 -0.1665  0.2766
13652TIP3    H162447   1.471   5.958  12.425 -0.2312 -0.2203  0.0832
13652TIP3    H262448   1.593   5.882  12.379  0.9699  0.7374  1.5928
13653TIP3   OH262449   2.624   5.051  15.341  0.1919  0.7564  0.0648
13653TIP3    H162450   2.559   4.994  15.382  1.2118 -0.7460 -0.3329
13653TIP3    H262451   2.612   5.136  15.385 -1.4136  0.2833  0.6205
13654TIP3   OH262452   4.209   1.668   5.415 -0.4714  0.4804 -0.4070
13654TIP3    H162453   4.165   1.608   5.475  1.1763 -0.3849  0.0153
13654TIP3    H262454   4.197   1.755   5.453 -1.6973  0.2573 -0.2677
13655TIP3   OH262455   4.246   1.858  15.415 -0.6479 -0.1627 -0.4237
13655TIP3    H162456   4.266   1.950  15.400 -0.8075 -0.1945 -0.8293
13655TIP3    H262457   4.309   1.810  15.361 -0.3755 -0.2980  0.0075
13656TIP3   OH262458   0.646   2.305   2.686  0.0316 -0.2842 -0.1003
13656TIP3    H162459   0.691   2.220   2.683 -0.2671 -0.4818  0.7956
13656TIP3    H262460   0.717   2.369   2.696  0.3005 -0.3644 -1.2668
13657TIP3   OH262461   1.300   4.334   0.705 -0.0111 -0.0526 -0.1886
13657TIP3    H162462   1.314   4.262   0.644 -3.2804  0.2006 -1.4401
13657TIP3    H262463   1.305   4.413   0.651 -0.4931  0.3471  0.3307
13658TIP3   OH262464   0.714   3.117  11.661  0.2513  0.0067 -0.1849
13658TIP3    H162465   0.759   3.175  11.600  0.5852  0.3812  0.4067
13658TIP3    H262466   0.782   3.088  11.722 -0.5760  1.9468  1.7921
13659TIP3   OH262467   4.563   3.561  14.594  0.3751  0.2253 -0.2751
13659TIP3    H162468   4.647   3.606  14.604  0.6463  0.1471 -1.8426
13659TIP3    H262469   4.563   3.494  14.663  0.6880  1.5216  1.0222
13660TIP3   OH262470   1.916   2.286  13.890 -0.2168 -0.0748 -0.2984
13660TIP3    H162471   1.910   2.193  13.869 -1.8177 -0.0953  0.1264
13660TIP3    H262472   1.828   2.310  13.919  0.3560  1.4015  0.3260
13661TIP3   OH262473   2.606   3.853  11.574 -0.1623  0.7254 -0.1958
13661TIP3    H162474   2.519   3.839  11.611  0.7143  0.1325  1.7595
13661TIP3    H262475   2.604   3.807  11.490 -2.2993  2.3338 -1.1224
13662TIP3   OH262476   6.167   4.087  14.337 -0.1834 -0.2050  0.2171
13662TIP3    H162477   6.242   4.097  14.278  0.1286  0.4922  0.7044
13662TIP3    H262478   6.207   4.087  14.425 -0.8294  1.5238  0.5574
13663TIP3   OH262479   1.861   3.891   3.590 -0.3876 -0.2610 -0.3627
13663TIP3    H162480   1.801   3.903   3.517 -0.5203 -1.8592 -0.5636
13663TIP3    H262481   1.948   3.898   3.550 -0.4162  1.2626 -0.2124
13664TIP3   OH262482   1.665   6.270   2.739  0.1865  0.3341  0.0742
13664TIP3    H162483   1.638   6.237   2.653 -2.9704  1.5696  0.4330
13664TIP3    H262484   1.635   6.361   2.739 -0.2315  0.2519  2.6188
13665TIP3   OH262485   5.356   1.580  15.317  0.1965  0.2423  0.1920
13665TIP3    H162486   5.271   1.590  15.275 -0.2641 -0.9625  0.8000
13665TIP3    H262487   5.365   1.486  15.332 -0.1870  0.6522  3.8464
13666TIP3   OH262488   5.741   3.216   3.608  0.6139  0.0755 -0.4599
13666TIP3    H162489   5.768   3.125   3.595  1.4587  0.4037 -1.1053
13666TIP3    H262490   5.713   3.245   3.522  0.1244  0.3566 -0.2038
13667TIP3   OH262491   1.406   1.603   0.894  0.6450  0.3221  0.1575
13667TIP3    H162492   1.453   1.686   0.901  1.7455 -0.1310 -1.4824
13667TIP3    H262493   1.469   1.542   0.857 -0.2480 -1.1961  1.0250
13668TIP3   OH262494   2.014   2.055   3.635  0.4055 -0.5454  0.5831
13668TIP3    H162495   2.033   1.980   3.579  1.8283 -0.4340  0.8690
13668TIP3    H262496   2.062   2.038   3.716  0.5327  0.5341  0.7535
13669TIP3   OH262497   1.508   1.535  16.975 -0.2328  0.0675 -0.4861
13669TIP3    H162498   1.455   1.593  17.031 -1.3259  0.0582 -1.4760
13669TIP3    H262499   1.560   1.594  16.921 -1.0898  0.1453 -1.2505
13670TIP3   OH262500   3.466   4.099  11.422  0.0120 -0.4293 -0.0422
13670TIP3    H162501   3.462   4.124  11.329  0.5203 -0.3472 -0.0424
13670TIP3    H262502   3.395   4.149  11.462 -0.9701 -1.3464 -0.5793
13671TIP3   OH262503   2.053   5.043  16.002  0.1900 -0.1474 -0.1524
13671TIP3    H162504   2.037   4.957  15.964  1.5513 -0.7604  0.5423
13671TIP3    H262505   2.077   5.024  16.093  0.2840  0.9885  0.0756
13672TIP3   OH262506   0.500   0.878   4.552 -0.5033 -0.1313  0.6681
13672TIP3    H162507   0.411   0.856   4.526 -0.0765 -1.2700  0.1371
13672TIP3    H262508   0.547   0.893   4.470 -0.3832  1.2903  0.9623
13673TIP3   OH262509   5.871   1.461  15.569  0.2989 -0.0663 -0.3065
13673TIP3    H162510   5.929   1.472  15.494  0.5638  0.1005 -0.0783
13673TIP3    H262511   5.898   1.378  15.608  0.5617  0.1428 -0.0442
13674TIP3   OH262512   5.412   1.122  15.422 -0.1330 -0.2080 -0.1410
13674TIP3    H162513   5.446   1.112  15.511  0.2085 -2.9822 -0.5170
13674TIP3    H262514   5.320   1.100  15.429 -0.0113 -0.8625 -0.5283
13675TIP3   OH262515   5.300   6.054  15.168  0.3841 -0.9331  0.2621
13675TIP3    H162516   5.347   6.113  15.109  1.0844 -0.1147  1.5938
13675TIP3    H262517   5.359   5.980  15.180  0.3041 -1.0303  0.0629
13676TIP3   OH262518   4.633   4.516   4.842 -0.9896 -0.0061  0.0131
13676TIP3    H162519   4.620   4.486   4.932  1.7808  1.1289  0.8754
13676TIP3    H262520   4.581   4.596   4.836 -1.0031  0.0428  0.6735
13677TIP3   OH262521   2.968   1.020   5.429 -0.5016 -0.1729  0.2749
13677TIP3    H162522   2.889   1.071   5.449 -0.0767 -0.5039  3.1249
13677TIP3    H262523   2.936   0.947   5.376 -1.5475  1.3979 -1.4057
13678TIP3   OH262524   6.810   2.305  13.247  0.3383 -0.5152  0.2143
13678TIP3    H162525   6.869   2.266  13.311  0.7500 -1.9933 -0.9890
13678TIP3    H262526   6.854   2.291  13.163 -2.0690 -2.5148 -0.8337
13679TIP3   OH262527   3.975   6.261  14.245  0.1724  0.1239  0.7468
13679TIP3    H162528   3.983   6.195  14.176  0.7365  0.1121  0.8194
13679TIP3    H262529   4.064   6.273  14.277 -0.3496 -1.5151  3.0013
13680TIP3   OH262530   5.392   1.875  16.306  0.1356  0.0743  0.1258
13680TIP3    H162531   5.326   1.841  16.366 -0.7676 -2.2269 -2.0219
13680TIP3    H262532   5.471   1.881  16.359 -1.1532  0.3826  2.1060
13681TIP3   OH262533   3.057   0.529   4.045 -0.2485 -0.1756 -0.3722
13681TIP3    H162534   3.106   0.610   4.059  0.1987 -0.2322 -1.4950
13681TIP3    H262535   2.990   0.529   4.113  0.3096  0.6957  0.1928
13682TIP3   OH262536   4.511   4.718  16.860 -0.1529 -0.0966 -0.0248
13682TIP3    H162537   4.505   4.622  16.855  0.9668 -0.1335 -1.6119
13682TIP3    H262538   4.447   4.749  16.796  0.3288  0.1702 -0.3811
13683TIP3   OH262539   4.050   5.883  13.816 -0.1084 -0.3750 -0.3658
13683TIP3    H162540   4.143   5.862  13.809 -0.0762  0.3176 -2.4142
13683TIP3    H262541   4.029   5.932  13.737 -2.0339  0.2606  0.4630
13684TIP3   OH262542   5.411   4.186   1.625 -0.3853  0.3362  0.4022
13684TIP3    H162543   5.373   4.198   1.712  0.0825  0.6103  0.5681
13684TIP3    H262544   5.487   4.244   1.623  0.8319 -1.1921  0.5673
13685TIP3   OH262545   1.836   1.091   0.720 -0.0169  0.4760 -0.1931
13685TIP3    H162546   1.927   1.064   0.714  0.7235  2.8482 -0.7129
13685TIP3    H262547   1.796   1.058   0.639  0.4732 -0.2072 -0.1646
13686TIP3   OH262548   6.236   0.330  13.104 -0.3335 -0.3442 -0.0140
13686TIP3    H162549   6.327   0.320  13.078 -0.8049 -2.1541 -1.1802
13686TIP3    H262550   6.187   0.332  13.022 -1.3072  1.6793  0.5474
13687TIP3   OH262551   1.230   2.791  11.624  0.2870 -0.0286 -0.0146
13687TIP3    H162552   1.255   2.756  11.538 -0.2722 -0.0973 -0.1522
13687TIP3    H262553   1.138   2.816  11.614  0.7467  1.8607 -0.0475
13688TIP3   OH262554   6.097   6.534   4.034  0.0835  0.4883 -0.1206
13688TIP3    H162555   6.022   6.502   3.984  0.6886  0.7121 -1.2099
13688TIP3    H262556   6.135   6.603   3.979  1.1882  0.2485  0.3153
13689TIP3   OH262557   5.397   3.112  11.373 -0.3985  0.2338 -0.0663
13689TIP3    H162558   5.403   3.203  11.345  1.2584  0.0418 -0.4645
13689TIP3    H262559   5.306   3.100  11.399 -0.4572  2.2260  0.7941
13690TIP3   OH262560   3.807   1.670   1.097  0.0522 -0.2383  0.4203
13690TIP3    H162561   3.864   1.642   1.169 -1.3182 -2.0968  0.8655
13690TIP3    H262562   3.734   1.715   1.140  0.5689  1.1294 -0.0632
13691TIP3   OH262563   3.034   4.470   2.720  0.1576  0.4748 -0.2875
13691TIP3    H162564   2.961   4.503   2.772  0.2384  3.1063 -1.6521
13691TIP3    H262565   2.997   4.449   2.635  0.6020 -0.5823 -0.2429
13692TIP3   OH262566   6.807   3.105  14.537 -0.2610  0.3725 -0.5951
13692TIP3    H162567   6.751   3.051  14.481  0.4789 -1.3169  0.1994
13692TIP3    H262568   6.769   3.096  14.624  0.8668 -0.3606 -0.1409
13693TIP3   OH262569   5.073   3.313   2.677  0.0118  0.1080 -0.1848
13693TIP3    H162570   5.079   3.408   2.684  1.0427 -0.0356  1.5054
13693TIP3    H262571   5.155   3.281   2.714 -0.2986 -1.4528 -0.7530
13694TIP3   OH262572   3.351   5.202  12.220  0.2187  0.0463  0.2545
13694TIP3    H162573   3.352   5.118  12.174 -0.5080 -0.2910  0.8371
13694TIP3    H262574   3.329   5.266  12.152 -1.7296 -0.5527  0.2544
13695TIP3   OH262575   0.826   1.739  15.914 -0.0699  0.5738  0.0660
13695TIP3    H162576   0.785   1.826  15.911 -0.9687  0.1484 -1.8968
13695TIP3    H262577   0.919   1.756  15.922 -0.2270  1.7195 -0.3894
13696TIP3   OH262578   3.201   2.643   0.730  0.1144 -0.3966 -0.3038
13696TIP3    H162579   3.167   2.732   0.719 -0.1299 -0.1943  1.7739
13696TIP3    H262580   3.157   2.592   0.662 -1.1688  0.7103 -0.3387
13697TIP3   OH262581   5.519   3.383  11.565  0.2367  0.0056 -0.5032
13697TIP3    H162582   5.436   3.343  11.591  0.1089  1.3846  1.4745
13697TIP3    H262583   5.501   3.425  11.481 -0.0988 -2.4184 -1.7384
13698TIP3   OH262584   6.257   6.757  14.388  0.9120 -0.2710  0.3634
13698TIP3    H162585   6.220   6.673  14.360  1.7027 -1.0193  1.4962
13698TIP3    H262586   6.328   6.774  14.326 -1.5775  1.5305 -2.2937
13699TIP3   OH262587   6.763   5.389   1.290 -0.1383 -0.6323  0.0641
13699TIP3    H162588   6.838   5.393   1.231 -0.3837  0.6638 -0.2071
13699TIP3    H262589   6.758   5.298   1.317  1.5161 -0.7608  0.0705
13700TIP3   OH262590   4.413   6.536  10.675 -0.3496  0.1652  0.7153
13700TIP3    H162591   4.480   6.477  10.640 -1.8341 -1.0918 -0.1280
13700TIP3    H262592   4.419   6.614  10.619 -1.3309 -1.0144 -1.1567
13701TIP3   OH262593   3.733   2.979   3.646 -0.0148 -0.5211 -0.1419
13701TIP3    H162594   3.669   2.994   3.577  1.6408  0.7708 -1.4754
13701TIP3    H262595   3.764   3.067   3.670  0.2852 -1.0165  1.4461
13702TIP3   OH262596   2.706   0.184  12.504 -0.4673 -0.1014  0.2424
13702TIP3    H162597   2.628   0.144  12.542 -2.1931  0.1889 -2.6587
13702TIP3    H262598   2.673   0.233  12.428  2.6057 -0.4647 -1.4950
13703TIP3   OH262599   1.051   3.725  11.209  0.1700 -0.2526  0.2043
13703TIP3    H162600   1.012   3.807  11.242  0.7796 -0.2553  0.9571
13703TIP3    H262601   1.026   3.722  11.117 -1.4699 -0.1707  0.6195
13704TIP3   OH262602   6.461   1.620   4.860  0.1814  0.4023  0.2046
13704TIP3    H162603   6.489   1.693   4.805 -1.0018  0.3289 -0.5371
13704TIP3    H262604   6.530   1.610   4.925  2.1042 -0.1166 -1.8317
13705TIP3   OH262605   1.248   4.564  15.781  0.4797  0.1162  0.4343
13705TIP3    H162606   1.236   4.587  15.874  0.7960  0.0970  0.4815
13705TIP3    H262607   1.268   4.647  15.739 -1.6502  0.4780  0.0209
13706TIP3   OH262608   5.920   4.198   5.004  0.1715  0.3112  0.3037
13706TIP3    H162609   5.897   4.171   4.915 -0.3294 -1.7033  0.9942
13706TIP3    H262610   6.002   4.246   4.994 -0.3764  0.9699 -1.3448
13707TIP3   OH262611   2.784   1.618   3.769 -0.2458 -0.1571 -0.2306
13707TIP3    H162612   2.842   1.554   3.727 -3.2601 -2.4955 -1.2329
13707TIP3    H262613   2.737   1.659   3.696 -0.3611  1.2070  0.5754
13708TIP3   OH262614   5.024   6.460  12.222  0.3416 -0.6938  0.2660
13708TIP3    H162615   5.046   6.370  12.201 -0.0887 -0.5787 -0.7262
13708TIP3    H262616   4.930   6.468  12.204 -0.2755 -0.7695  2.9931
13709TIP3   OH262617   5.049   5.123  12.989 -0.8924  0.1319 -0.0053
13709TIP3    H162618   4.962   5.093  12.966 -0.7699 -0.9238  0.8127
13709TIP3    H262619   5.071   5.073  13.068  0.3887  0.4830 -0.1193
13710TIP3   OH262620   2.950   0.405  16.680 -0.1701 -0.4772 -0.4031
13710TIP3    H162621   2.880   0.400  16.615 -0.4707  2.2642 -0.4105
13710TIP3    H262622   2.906   0.438  16.759  0.9380  0.4662 -0.1535
13711TIP3   OH262623   5.454   5.035  11.916  0.2734  0.3931  0.0848
13711TIP3    H162624   5.402   5.115  11.910  1.1380  0.9268 -0.4815
13711TIP3    H262625   5.445   4.994  11.830  2.7671  1.7780 -0.9454
13712TIP3   OH262626   4.662   5.233  12.405  0.6168 -0.0763 -0.4515
13712TIP3    H162627   4.681   5.255  12.496 -1.5399  2.2905 -0.4646
13712TIP3    H262628   4.583   5.180  12.409 -0.9772  2.1216 -0.9569
13713TIP3   OH262629   4.157   2.138   3.663  0.6143 -0.5801  0.2911
13713TIP3    H162630   4.239   2.180   3.639  1.7946 -1.1433  3.0063
13713TIP3    H262631   4.104   2.209   3.699 -0.8135  0.0842 -2.7173
13714TIP3   OH262632   2.414   2.577   2.444  0.4585 -0.1672 -0.4361
13714TIP3    H162633   2.367   2.560   2.526  0.6210 -0.1997 -0.3499
13714TIP3    H262634   2.474   2.504   2.435  0.6584 -0.0046 -0.4271
13715TIP3   OH262635   5.121   1.590   1.931  0.2041 -0.4329 -0.5059
13715TIP3    H162636   5.058   1.660   1.951 -0.9329 -1.9170  1.4570
13715TIP3    H262637   5.101   1.566   1.841  0.2641  1.3743 -1.0469
13716TIP3   OH262638   5.280   3.914  13.064  0.3506 -0.3487  0.2170
13716TIP3    H162639   5.257   3.925  12.972  0.1224 -0.3977  0.2686
13716TIP3    H262640   5.196   3.907  13.110  0.3619  1.9921  0.7235
13717TIP3   OH262641   4.975   1.210  12.145  0.2829 -0.2850  0.1031
13717TIP3    H162642   4.965   1.264  12.067  1.2274  0.9980  0.8148
13717TIP3    H262643   4.896   1.227  12.196 -0.1211 -0.7672 -0.3551
13718TIP3   OH262644   0.038   0.123  13.453 -0.1898  0.3749  0.2232
13718TIP3    H162645   0.081   0.067  13.518 -0.7403  1.1759  1.3115
13718TIP3    H262646  -0.053   0.129  13.483 -0.7503 -0.1297 -1.2511
13719TIP3   OH262647   2.778   0.780   1.494 -0.3102  0.3956  0.1181
13719TIP3    H162648   2.831   0.736   1.560 -0.4026 -0.9904 -0.6826
13719TIP3    H262649   2.689   0.776   1.529 -0.0729  1.6579  0.9123
13720TIP3   OH262650   2.719   6.705  14.780  0.4935  0.7450 -0.1278
13720TIP3    H162651   2.675   6.697  14.695 -0.0125 -0.6294  0.2366
13720TIP3    H262652   2.674   6.643  14.836  2.3446 -0.1094  0.5003
13721TIP3   OH262653   1.021   0.086  16.547  0.3792  0.0529  0.5639
13721TIP3    H162654   1.018   0.180  16.526  2.5644 -0.2927 -2.0102
13721TIP3    H262655   0.946   0.049  16.501  0.3034  0.3831  0.4157
13722TIP3   OH262656   0.659   4.986  15.204  0.8819  0.2173  0.3112
13722TIP3    H162657   0.613   5.015  15.125  1.8166  0.0180 -0.3303
13722TIP3    H262658   0.746   4.959  15.172 -0.6640 -6.2157  0.2078
13723TIP3   OH262659   4.295   0.388  13.928  0.5387 -0.7087  0.5787
13723TIP3    H162660   4.387   0.364  13.920  1.3352  1.3203  2.5398
13723TIP3    H262661   4.289   0.473  13.884 -0.6910 -1.2922 -0.4531
13724TIP3   OH262662   5.269   1.768   3.110  0.4070 -0.0566 -0.0895
13724TIP3    H162663   5.319   1.687   3.118  1.9083  0.9221  1.2215
13724TIP3    H262664   5.215   1.771   3.189  1.1694  0.6975  0.4278
13725TIP3   OH262665   2.238   0.034   4.431  0.0914 -0.4538 -0.5384
13725TIP3    H162666   2.233  -0.026   4.506 -0.1451  0.2161 -0.0120
13725TIP3    H262667   2.276   0.114   4.467 -0.4746  0.0460 -1.0294
13726TIP3   OH262668   1.460   0.173   0.896 -0.5262  0.3163 -0.5874
13726TIP3    H162669   1.515   0.171   0.818 -2.1386  1.1174 -1.8209
13726TIP3    H262670   1.480   0.257   0.938  2.7671 -1.4606  1.8368
13727TIP3   OH262671   1.049   2.179   5.465  0.0589 -0.3291  0.2033
13727TIP3    H162672   0.957   2.180   5.492  0.0344  1.7914  0.1989
13727TIP3    H262673   1.067   2.268   5.436  1.7564 -1.0433 -1.1206
13728TIP3   OH262674   3.692   0.271  10.461  0.0322  0.2408 -0.1490
13728TIP3    H162675   3.674   0.364  10.471  2.4435  0.5601  2.5958
13728TIP3    H262676   3.637   0.228  10.526  0.2011 -0.0620 -0.2004
13729TIP3   OH262677   0.121   5.700   2.292  0.3391  0.1535  0.1179
13729TIP3    H162678   0.070   5.772   2.255 -0.6073  0.3042  1.6442
13729TIP3    H262679   0.204   5.704   2.246 -0.1602  1.4123 -0.7369
13730TIP3   OH262680   0.286   5.344   5.057 -0.5169  0.3005  0.5364
13730TIP3    H162681   0.258   5.289   5.130  0.2030  0.0289  0.6185
13730TIP3    H262682   0.205   5.381   5.022 -1.5660 -3.5592 -1.7620
13731TIP3   OH262683   2.699   3.107  15.078  0.0595 -0.1728  0.0091
13731TIP3    H162684   2.784   3.124  15.116  0.1720 -0.7777  0.0395
13731TIP3    H262685   2.717   3.090  14.985 -0.0139 -0.4011  0.0354
13732TIP3   OH262686   0.435   1.054  17.117 -0.1042 -0.6621  0.1530
13732TIP3    H162687   0.359   1.005  17.086 -0.8086  0.4155  0.1271
13732TIP3    H262688   0.408   1.146  17.113  1.4451 -0.1941 -0.5533
13733TIP3   OH262689   6.012   1.506   0.413 -0.1830 -0.7714  0.3546
13733TIP3    H162690   5.946   1.520   0.345 -0.8018 -1.7997  0.7109
13733TIP3    H262691   5.975   1.548   0.490 -0.1432 -0.8176  0.3986
13734TIP3   OH262692   4.488   6.062  17.023  0.0153 -0.0078  0.8599
13734TIP3    H162693   4.417   6.034  16.966 -0.9978  1.1545  1.4901
13734TIP3    H262694   4.462   6.150  17.052  1.3057  0.1005  1.7798
13735TIP3   OH262695   4.532   0.211   0.341 -0.6545  0.1601  0.7798
13735TIP3    H162696   4.552   0.188   0.432  1.2635  2.4295  1.0273
13735TIP3    H262697   4.593   0.158   0.289  0.0543  0.7459  1.0004
13736TIP3   OH262698   4.826   4.228  11.474  0.2284  0.8466  0.4053
13736TIP3    H162699   4.784   4.168  11.411  0.4784 -0.8837  1.8104
13736TIP3    H262700   4.754   4.274  11.515 -0.1354 -0.0959  0.8459
13737TIP3   OH262701   0.717   5.343   0.861  0.0403 -0.2906  0.5954
13737TIP3    H162702   0.709   5.384   0.947  0.6456  0.8192  0.1455
13737TIP3    H262703   0.722   5.417   0.800  0.6527 -1.0444 -0.2897
13738TIP3   OH262704   3.242   3.646  11.757 -0.2167  0.7800 -0.0061
13738TIP3    H162705   3.337   3.647  11.769 -0.4213 -0.5890  2.1229
13738TIP3    H262706   3.214   3.733  11.785  0.2872  0.7555  0.5956
13739TIP3   OH262707   6.625   6.145   1.276  0.4230 -0.2157  0.4211
13739TIP3    H162708   6.614   6.173   1.185 -2.1076  1.3408  1.1115
13739TIP3    H262709   6.684   6.069   1.271  1.3116  0.5505 -2.3579
13740TIP3   OH262710   1.835   0.342  14.036 -0.7088 -0.4350 -0.3446
13740TIP3    H162711   1.823   0.410  14.103  1.1073 -0.8577  0.4899
13740TIP3    H262712   1.854   0.390  13.956 -2.5032  0.0729 -0.5026
13741TIP3   OH262713   5.527   1.856   3.032  0.2437 -0.2195  0.0832
13741TIP3    H162714   5.554   1.766   3.016 -0.8888 -0.2601 -2.0126
13741TIP3    H262715   5.434   1.850   3.052 -0.3700  0.5827 -2.2216
13742TIP3   OH262716   4.060   5.677   6.006  0.4333  1.4752 -0.1029
13742TIP3    H162717   4.042   5.636   6.091  1.1278 -0.9977 -1.0571
13742TIP3    H262718   4.130   5.624   5.968  1.2990  3.5211 -1.5583
13743TIP3   OH262719   2.197   2.172  15.071  0.0665 -0.0241  0.1398
13743TIP3    H162720   2.225   2.223  15.147  0.6369 -0.1678  0.0368
13743TIP3    H262721   2.134   2.109  15.106  1.3181 -0.9827  0.7535
13744TIP3   OH262722   6.627   5.654  16.617 -0.0941  0.1314 -0.1899
13744TIP3    H162723   6.540   5.692  16.631 -0.3550 -0.3126 -0.6020
13744TIP3    H262724   6.614   5.589  16.549  0.8664  1.1529 -1.3849
13745TIP3   OH262725   5.678   0.843   2.549 -0.1571 -0.1037 -0.5469
13745TIP3    H162726   5.706   0.771   2.605 -1.9989 -1.2879 -1.0488
13745TIP3    H262727   5.694   0.812   2.460 -0.6455  0.2396 -0.7602
13746TIP3   OH262728   3.917   1.164  14.546 -0.4643  0.2498 -0.5309
13746TIP3    H162729   3.919   1.076  14.510 -0.3118 -0.1748  0.4853
13746TIP3    H262730   3.931   1.152  14.640  1.7330  1.5319 -0.6392
13747TIP3   OH262731   3.301   4.360   2.674 -0.0859  0.4644  0.1455
13747TIP3    H162732   3.210   4.372   2.702 -0.1155  1.3530 -0.2929
13747TIP3    H262733   3.319   4.436   2.619  0.6719 -0.1170 -0.4309
13748TIP3   OH262734   4.478   6.190   2.020  0.1884 -0.4535 -0.1862
13748TIP3    H162735   4.462   6.097   2.002 -0.1362 -0.5593  0.5972
13748TIP3    H262736   4.484   6.195   2.116  1.5527  0.1211 -0.2778
13749TIP3   OH262737   2.673   5.926   3.264  0.1018 -0.0656 -0.1222
13749TIP3    H162738   2.694   5.875   3.186 -2.7636 -1.3437 -0.1687
13749TIP3    H262739   2.698   5.869   3.337 -0.7609 -0.5232 -0.1672
13750TIP3   OH262740   3.187   1.007  12.629  0.5546 -0.0951 -0.6628
13750TIP3    H162741   3.123   1.040  12.691  0.0371  1.5948 -2.0168
13750TIP3    H262742   3.259   1.071  12.632  2.2416 -1.9218  0.7977
13751TIP3   OH262743   4.146   2.783   0.858 -0.0319  0.8904 -0.7757
13751TIP3    H162744   4.143   2.828   0.942  0.0054  1.8587 -1.2768
13751TIP3    H262745   4.055   2.757   0.842 -0.0605  0.8183 -0.5027
13752TIP3   OH262746   1.864   3.530  16.869 -0.4888 -0.6454  0.7346
13752TIP3    H162747   1.824   3.491  16.791 -0.7335 -0.7077  0.8901
13752TIP3    H262748   1.793   3.580  16.910  0.3734  1.9749 -0.7405
13753TIP3   OH262749   1.254   6.020   5.409  0.1707  0.1592  0.5736
13753TIP3    H162750   1.234   6.088   5.344  1.0366 -1.0693 -1.0443
13753TIP3    H262751   1.213   6.052   5.489 -0.7804  1.8415 -0.5020
13754TIP3   OH262752   4.381   4.624   0.968 -0.0643 -0.0475 -0.1507
13754TIP3    H162753   4.360   4.694   0.906 -0.8063 -0.0706  0.0656
13754TIP3    H262754   4.335   4.649   1.048 -0.9213 -1.1336 -0.2797
13755TIP3   OH262755   0.350   3.568  16.871 -0.4760 -0.3375 -0.0876
13755TIP3    H162756   0.443   3.589  16.865 -0.1212 -1.0809  2.0122
13755TIP3    H262757   0.344   3.475  16.849 -0.7007 -0.3087 -0.1571
13756TIP3   OH262758   6.780   0.056   0.569 -0.1086 -0.6340 -0.2973
13756TIP3    H162759   6.845   0.125   0.587  0.7281 -1.2886 -0.7478
13756TIP3    H262760   6.748   0.076   0.480 -1.0064  0.0528  0.1647
13757TIP3   OH262761   4.218   4.557  12.063  0.0382  0.2332 -0.1059
13757TIP3    H162762   4.285   4.551  12.131 -0.4992  0.8024  0.4823
13757TIP3    H262763   4.139   4.525  12.105 -0.3234  0.7010 -0.4229
13758TIP3   OH262764   3.660   3.608  17.110 -0.5054  0.1043  0.6601
13758TIP3    H162765   3.630   3.696  17.088  0.8174  0.9404  2.0308
13758TIP3    H262766   3.660   3.605  17.205  1.8289 -0.4918  0.6978
13759TIP3   OH262767   1.926   5.295  12.473  0.4037  0.2409  0.0784
13759TIP3    H162768   1.888   5.227  12.417  1.3532  0.3004 -0.6781
13759TIP3    H262769   2.017   5.268  12.484  0.4209  0.6439  0.9639
13760TIP3   OH262770   3.570   5.912  14.936  0.0426  0.4671 -0.5405
13760TIP3    H162771   3.639   5.976  14.917 -1.4646  2.3100 -0.1876
13760TIP3    H262772   3.525   5.948  15.013 -0.7496 -1.1412 -0.2166
13761TIP3   OH262773   2.373   4.075  10.938  0.1945 -0.7388 -0.8329
13761TIP3    H162774   2.295   4.102  10.891 -0.8655 -0.5941  0.9151
13761TIP3    H262775   2.368   4.121  11.022  1.6961 -1.4165 -0.3331
13762TIP3   OH262776   4.125   2.344   1.499 -0.5748 -0.3975 -0.0956
13762TIP3    H162777   4.192   2.284   1.468  0.4327 -0.0529  1.2804
13762TIP3    H262778   4.170   2.397   1.565 -1.7927  0.9361 -0.2893
13763TIP3   OH262779   2.758   5.113   4.116  0.1292  0.3762  0.1271
13763TIP3    H162780   2.836   5.148   4.074 -0.2120  0.5525 -0.3714
13763TIP3    H262781   2.688   5.124   4.051 -0.7229  1.9879  1.2218
13764TIP3   OH262782   5.898   2.368   2.104 -0.5581  0.6134 -0.2480
13764TIP3    H162783   5.968   2.303   2.105 -1.2391 -0.1598 -1.3009
13764TIP3    H262784   5.919   2.425   2.030 -0.3804  1.1324  0.1973
13765TIP3   OH262785   2.492   1.584  15.797  0.5416  0.6658  0.9343
13765TIP3    H162786   2.399   1.606  15.806  0.4285  0.0585  1.2499
13765TIP3    H262787   2.517   1.548  15.882  1.3058  1.6777  1.1609
13766TIP3   OH262788   6.375   1.607  16.886  0.2944 -0.8724  0.0727
13766TIP3    H162789   6.394   1.565  16.802  4.1237 -0.1021  0.3377
13766TIP3    H262790   6.362   1.700  16.864  2.3789 -0.4653  0.2762
13767TIP3   OH262791   4.239   0.548  11.868  0.1975  0.3958 -0.5931
13767TIP3    H162792   4.264   0.489  11.797 -1.3438 -1.5174  0.3642
13767TIP3    H262793   4.322   0.571  11.910  1.0375  0.7254 -2.3396
13768TIP3   OH262794   5.326   4.615  16.800  0.1817  0.1863  0.5446
13768TIP3    H162795   5.272   4.686  16.835 -0.6059 -0.9369  1.6976
13768TIP3    H262796   5.299   4.608  16.709 -1.4035 -0.1056  0.9995
13769TIP3   OH262797   5.801   4.721   0.729  0.1090  0.0599 -0.6030
13769TIP3    H162798   5.722   4.747   0.682 -1.6091 -2.6137  0.5920
13769TIP3    H262799   5.787   4.752   0.819  0.2461 -0.7568 -0.2945
13770TIP3   OH262800   6.409   3.196  11.804  0.6815 -0.0589  0.0787
13770TIP3    H162801   6.465   3.264  11.842  1.0305 -0.2742 -0.0459
13770TIP3    H262802   6.319   3.225  11.822  0.8297  0.4285  0.0409
13771TIP3   OH262803   2.203   6.303  15.047  0.5523 -0.4201 -0.3216
13771TIP3    H162804   2.224   6.295  15.140  0.7113  0.1834 -0.2964
13771TIP3    H262805   2.170   6.393  15.039  0.3193 -0.5487 -0.8047
13772TIP3   OH262806   5.385   5.505   4.709  0.3613  0.2425 -0.8058
13772TIP3    H162807   5.447   5.442   4.670  0.0768 -0.4071 -0.2341
13772TIP3    H262808   5.320   5.519   4.641  0.3633 -0.1794 -0.8985
13773TIP3   OH262809   0.500   1.099   1.727  0.7052  0.2981 -0.1700
13773TIP3    H162810   0.471   1.137   1.643  0.7529  2.4568  0.7239
13773TIP3    H262811   0.419   1.080   1.773  0.6874  0.2052 -0.2387
13774TIP3   OH262812   5.040   2.933   3.455 -0.8038 -0.5222  0.1011
13774TIP3    H162813   5.088   2.955   3.375 -1.4037  0.7537  0.0650
13774TIP3    H262814   5.078   2.850   3.484  0.9534  0.0964 -0.2945
13775TIP3   OH262815   1.789   2.125   1.603  0.3208 -0.2134 -0.2097
13775TIP3    H162816   1.775   2.199   1.544  0.4492  0.0081  0.0341
13775TIP3    H262817   1.701   2.093   1.624  0.2469  0.1467  0.0304
13776TIP3   OH262818   0.708   4.384   3.011  0.1423  0.1207  0.1387
13776TIP3    H162819   0.653   4.360   3.086  1.5967 -0.9000  0.9425
13776TIP3    H262820   0.725   4.301   2.967 -0.5318  0.6884 -1.2273
13777TIP3   OH262821   0.049   5.583   1.552 -0.1207 -0.0582 -0.4812
13777TIP3    H162822  -0.009   5.590   1.476  0.9673 -0.6076 -1.4014
13777TIP3    H262823   0.105   5.660   1.546 -0.2553  0.0784 -0.0243
13778TIP3   OH262824   3.105   2.507   4.457 -0.2610 -0.4383  0.0756
13778TIP3    H162825   3.067   2.567   4.521 -0.5173  0.3044 -0.7566
13778TIP3    H262826   3.151   2.442   4.510 -0.0704  0.4222  0.9976
13779TIP3   OH262827   1.909   5.486  13.038 -0.1802 -0.1055 -0.1569
13779TIP3    H162828   1.830   5.539  13.024  0.3517  0.9702  0.7502
13779TIP3    H262829   1.925   5.444  12.954 -1.5205 -0.0615 -0.4518
13780TIP3   OH262830   3.472   4.652  17.067 -0.7972  0.2281  0.2623
13780TIP3    H162831   3.494   4.704  16.990 -0.1903  0.4017  0.5393
13780TIP3    H262832   3.403   4.593  17.038  0.7976 -1.1267 -0.9900
13781TIP3   OH262833   2.956   6.122   0.410  0.4972 -0.9281 -0.4754
13781TIP3    H162834   2.914   6.041   0.440  1.4006 -0.8244  1.1484
13781TIP3    H262835   3.031   6.091   0.359  0.2227 -1.0944 -0.7889
13782TIP3   OH262836   3.393   5.062   1.614 -0.0361 -0.4062 -0.2444
13782TIP3    H162837   3.420   5.107   1.694 -0.9593 -0.1905 -0.0377
13782TIP3    H262838   3.423   4.972   1.626 -1.8986 -0.9048  1.2846
13783TIP3   OH262839   0.094   0.486  14.238  0.2183 -0.1690 -0.7701
13783TIP3    H162840   0.175   0.536  14.244 -0.5037  0.8905  0.6765
13783TIP3    H262841   0.096   0.427  14.313 -0.8981  0.7816  0.0610
13784TIP3   OH262842   2.134   0.807   0.060  0.4374  0.1883  0.3198
13784TIP3    H162843   2.126   0.897   0.092 -0.1316  0.0730  0.5114
13784TIP3    H262844   2.163   0.817  -0.030  2.1634  0.5144  0.8847
13785TIP3   OH262845   2.134   6.327   2.112  0.2861  0.0580 -0.1600
13785TIP3    H162846   2.224   6.313   2.139  0.7702  0.3007 -1.5970
13785TIP3    H262847   2.136   6.406   2.059 -1.0128  0.8496  0.8898
13786TIP3   OH262848   5.737   2.329   5.559  0.4086 -0.0875  0.0306
13786TIP3    H162849   5.826   2.316   5.591  0.3526  1.6335  0.9911
13786TIP3    H262850   5.740   2.302   5.467  2.3981  1.6636 -0.4858
13787TIP3   OH262851   0.896   4.979  12.174  0.2711  0.1432  0.3965
13787TIP3    H162852   0.944   4.913  12.123  1.5827  0.9906  0.4737
13787TIP3    H262853   0.874   5.047  12.111  0.8904  0.6580  0.7206
13788TIP3   OH262854   2.067   6.192  12.208 -0.2212 -0.1118  0.3258
13788TIP3    H162855   2.094   6.135  12.279 -2.0483 -0.2653  0.9612
13788TIP3    H262856   2.082   6.281  12.242  0.7242 -0.1937  0.1320
13789TIP3   OH262857   6.374   0.370  13.974  0.4588  0.1794 -0.0850
13789TIP3    H162858   6.434   0.413  13.914  0.8649 -1.4158 -0.8633
13789TIP3    H262859   6.430   0.337  14.045 -0.0265  2.1600  1.3164
13790TIP3   OH262860   2.847   1.912   4.731 -0.5844 -0.2307  0.5762
13790TIP3    H162861   2.923   1.899   4.788 -0.4906  0.1477  0.5360
13790TIP3    H262862   2.825   2.004   4.741  0.3632  0.2379 -1.1520
13791TIP3   OH262863   0.869   0.694  17.062 -0.1004  0.1636  0.0139
13791TIP3    H162864   0.897   0.715  17.151 -1.3838  0.7408  0.2996
13791TIP3    H262865   0.775   0.713  17.061  0.1765  1.7906 -1.9343
13792TIP3   OH262866   5.424   5.792  12.555  0.1549 -0.3593  0.3300
13792TIP3    H162867   5.351   5.731  12.544  0.0701 -0.5131  1.5692
13792TIP3    H262868   5.466   5.796  12.469 -0.9628 -0.7176 -0.2473
13793TIP3   OH262869   0.859   6.223   1.043 -0.0938  0.1070 -0.7227
13793TIP3    H162870   0.790   6.157   1.034  0.4031 -0.5212  0.0383
13793TIP3    H262871   0.907   6.219   0.960  0.1270 -0.7099 -0.5585
13794TIP3   OH262872   5.076   3.539  16.599  0.2428  0.0534 -0.4130
13794TIP3    H162873   5.127   3.619  16.588 -0.0126  0.4492  1.0712
13794TIP3    H262874   5.042   3.544  16.689 -2.8015  0.0344 -1.4631
13795TIP3   OH262875   4.893   5.267  13.644 -0.5038 -0.2986  0.1280
13795TIP3    H162876   4.952   5.192  13.638  1.1877  0.8273  1.6762
13795TIP3    H262877   4.935   5.335  13.591 -1.0125  0.1571  0.2917
13796TIP3   OH262878   0.663   2.304   3.300  0.5185  0.0019  0.0927
13796TIP3    H162879   0.704   2.277   3.217 -1.8455 -2.0697 -0.5387
13796TIP3    H262880   0.732   2.294   3.365  1.9059 -0.2162 -1.3581
13797TIP3   OH262881   4.534   1.096  15.501 -0.0986  0.7373  0.1465
13797TIP3    H162882   4.540   1.188  15.528 -1.6386  1.0552 -0.5080
13797TIP3    H262883   4.584   1.048  15.568  0.6063  2.0215  0.5728
13798TIP3   OH262884   0.465   3.515  12.569  0.5268  0.5727 -0.8126
13798TIP3    H162885   0.505   3.453  12.508  0.5087  0.5667 -0.8185
13798TIP3    H262886   0.532   3.528  12.636 -0.1136 -0.8075  0.1391
13799TIP3   OH262887   3.392   6.361   2.319  0.7446 -0.0343 -0.1790
13799TIP3    H162888   3.374   6.369   2.225  0.0224  1.5319  0.0499
13799TIP3    H262889   3.351   6.279   2.344  1.0512 -0.5334 -1.2564
13800TIP3   OH262890   3.858   5.100  11.953 -0.2250 -0.1013 -0.5608
13800TIP3    H162891   3.773   5.057  11.962 -0.6766  1.0371  1.1867
13800TIP3    H262892   3.921   5.036  11.986 -0.7059 -0.0260  0.5449
13801TIP3   OH262893   6.763   0.501  11.307  0.5574  0.5127 -0.6405
13801TIP3    H162894   6.842   0.455  11.279  0.1766 -0.4158 -0.2431
13801TIP3    H262895   6.692   0.460  11.258 -0.2865 -1.9611  2.3108
13802TIP3   OH262896   4.017   4.286  16.092 -0.7377 -0.0340  0.5042
13802TIP3    H162897   3.931   4.316  16.122  0.1593  2.6047  0.7097
13802TIP3    H262898   4.011   4.289  15.996 -1.3148 -1.3362  0.4828
13803TIP3   OH262899   1.021   4.772  16.162 -0.0527  0.0658  0.3683
13803TIP3    H162900   1.105   4.744  16.128  0.7784  0.2296  2.1837
13803TIP3    H262901   0.989   4.697  16.212 -0.2207  0.5607  1.0113
13804TIP3   OH262902   1.693   3.877  14.368 -0.3561 -0.1909  0.4139
13804TIP3    H162903   1.634   3.943  14.332 -0.4651 -1.9931 -3.1313
13804TIP3    H262904   1.674   3.798  14.318  2.9278 -1.7144  1.2805
13805TIP3   OH262905   6.625   1.291   2.473 -0.3905 -0.2195 -0.2291
13805TIP3    H162906   6.532   1.276   2.455 -0.1056 -0.9747 -1.1955
13805TIP3    H262907   6.626   1.340   2.554 -1.6324 -0.3817 -0.0889
13806TIP3   OH262908   2.670   5.855   5.642  0.2112 -0.0985 -0.2462
13806TIP3    H162909   2.664   5.766   5.678 -1.3042  1.3846  3.7592
13806TIP3    H262910   2.607   5.856   5.570 -2.9417 -1.3182  2.2573
13807TIP3   OH262911   3.447   2.802  14.243  0.1777  0.2231 -0.3552
13807TIP3    H162912   3.460   2.787  14.150  0.1493  0.5367 -0.4112
13807TIP3    H262913   3.518   2.861  14.268  1.9414 -2.0936  0.4461
13808TIP3   OH262914   4.786   2.275   4.358  0.1862 -0.7758 -0.1118
13808TIP3    H162915   4.697   2.257   4.387  0.2342 -1.9046 -0.6393
13808TIP3    H262916   4.779   2.291   4.264  0.4659 -0.2508 -0.0537
13809TIP3   OH262917   4.309   0.065  16.965  0.0114  0.2168 -0.3857
13809TIP3    H162918   4.401   0.086  16.955  1.1532 -1.4543  4.2556
13809TIP3    H262919   4.272   0.142  17.009 -0.0075 -0.3412  0.5994
13810TIP3   OH262920   0.930   1.449   5.914 -0.2202 -0.0427 -0.3128
13810TIP3    H162921   0.994   1.433   5.984 -1.1446  0.0390  0.5764
13810TIP3    H262922   0.906   1.361   5.884 -0.2723 -0.1017 -0.1032
13811TIP3   OH262923   3.757   6.282  10.942 -0.6086  0.0714  0.1005
13811TIP3    H162924   3.772   6.373  10.917  0.7432  0.1579  1.1245
13811TIP3    H262925   3.831   6.234  10.904 -0.8057 -0.4590  0.3698
13812TIP3   OH262926   4.071   2.431  15.414 -0.3999 -0.0299 -0.0946
13812TIP3    H162927   3.995   2.449  15.359 -1.1014  1.5198  1.2932
13812TIP3    H262928   4.035   2.415  15.501  0.7834 -0.6881  0.2970
13813TIP3   OH262929   5.251   4.764  14.752 -0.4351  0.1791  0.1501
13813TIP3    H162930   5.190   4.833  14.725 -0.6873  0.4545  1.3886
13813TIP3    H262931   5.335   4.810  14.765 -0.4610  0.1462  0.4196
13814TIP3   OH262932   0.256   0.103  16.534  0.4665 -0.0552 -0.2445
13814TIP3    H162933   0.314   0.122  16.607  0.5136  0.0316 -0.3051
13814TIP3    H262934   0.194   0.038  16.568  1.9013 -1.7635 -0.7721
13815TIP3   OH262935   4.820   5.958  13.070 -0.1466  0.7122 -0.1690
13815TIP3    H162936   4.853   6.047  13.057  1.4825  0.0332 -0.9060
13815TIP3    H262937   4.897   5.902  13.065 -1.0009 -0.6778  1.3349
13816TIP3   OH262938   5.194   1.528  13.545  0.2139  0.3953  0.4741
13816TIP3    H162939   5.176   1.453  13.602 -0.4186  0.5653  0.5073
13816TIP3    H262940   5.115   1.538  13.492 -0.1429  1.6786  1.2033
13817TIP3   OH262941   1.747   4.371   3.042  0.1727  0.0787 -0.0732
13817TIP3    H162942   1.802   4.315   2.988 -0.7882 -1.3098  0.3128
13817TIP3    H262943   1.721   4.443   2.984  1.7751  0.3751 -0.4557
13818TIP3   OH262944   6.288   4.895   2.606 -0.0130 -0.0970  0.3416
13818TIP3    H162945   6.210   4.850   2.574  0.7653 -1.8464  0.7781
13818TIP3    H262946   6.358   4.867   2.548  0.5652  0.2705  0.8456
13819TIP3   OH262947   0.504   0.746  16.826  0.4757 -0.0808  0.3024
13819TIP3    H162948   0.583   0.703  16.796 -1.2750 -2.7332 -0.8611
13819TIP3    H262949   0.510   0.835  16.791  2.9008 -0.1939  0.3048
13820TIP3   OH262950   3.980   0.694  13.163  0.1283 -0.6350  0.2642
13820TIP3    H162951   3.990   0.678  13.069 -1.3201  1.7803 -0.4046
13820TIP3    H262952   3.890   0.666  13.182 -0.7996  1.9960  0.0820
13821TIP3   OH262953   2.466   4.360   2.315 -0.4377  0.0969 -0.3260
13821TIP3    H162954   2.546   4.310   2.301 -0.9923 -0.4977 -1.5360
13821TIP3    H262955   2.470   4.430   2.250 -0.2933  0.8437  0.4770
13822TIP3   OH262956   3.182   5.642   2.701  0.1429  0.4038  0.2501
13822TIP3    H162957   3.149   5.650   2.791  0.6082 -0.4561  0.5100
13822TIP3    H262958   3.276   5.627   2.712 -0.0336 -1.3394 -0.2943
13823TIP3   OH262959   3.474   3.374   1.027  0.1233  0.2675 -0.9157
13823TIP3    H162960   3.445   3.453   1.074  2.0694  0.1526  0.6114
13823TIP3    H262961   3.431   3.302   1.073 -2.2993  0.3779 -2.8089
13824TIP3   OH262962   0.224   0.103   1.436  0.3950  0.1736  0.0731
13824TIP3    H162963   0.313   0.072   1.419  0.4047  0.2784 -0.0697
13824TIP3    H262964   0.187   0.119   1.350  0.3825  0.5374  0.1423
13825TIP3   OH262965   1.491   3.735  15.885  0.1931  0.7192  0.1539
13825TIP3    H162966   1.529   3.802  15.828  1.2095  0.2587  0.2648
13825TIP3    H262967   1.546   3.658  15.871 -1.9306 -0.6760 -1.2511
13826TIP3   OH262968   5.620   2.441  14.269  0.7228 -0.4201 -0.2572
13826TIP3    H162969   5.662   2.379  14.328 -1.2561 -0.4875  1.1503
13826TIP3    H262970   5.641   2.527  14.306 -0.9429 -0.4760  0.9369
13827TIP3   OH262971   6.566   0.901  16.148  0.3574 -0.3128  0.3354
13827TIP3    H162972   6.500   0.912  16.080  0.4417 -2.5372 -0.1829
13827TIP3    H262973   6.650   0.911  16.102  0.3974 -0.2965  0.4122
13828TIP3   OH262974   1.868   4.814  11.201 -0.6654  0.4219  0.4164
13828TIP3    H162975   1.792   4.830  11.145 -1.9200 -1.2402  1.5455
13828TIP3    H262976   1.878   4.719  11.201  1.1675  0.5825  0.6413
13829TIP3   OH262977   6.021   2.857  17.048  0.1260  0.2429 -0.2664
13829TIP3    H162978   6.103   2.855  17.097 -0.9600 -2.4248  1.7002
13829TIP3    H262979   6.009   2.949  17.026  3.6986  0.7288 -0.8797
13830TIP3   OH262980   0.249   1.996  13.278 -0.2280  0.4867  0.4353
13830TIP3    H162981   0.209   2.006  13.365 -0.7920 -1.3169  0.4127
13830TIP3    H262982   0.343   1.991  13.296 -0.3692 -0.3594  1.0133
13831TIP3   OH262983   6.302   4.592   5.921  0.3214 -0.1237 -0.1634
13831TIP3    H162984   6.316   4.677   5.880  1.8726 -0.8134 -1.1269
13831TIP3    H262985   6.291   4.612   6.014  5.7266  0.8503  0.5576
13832TIP3   OH262986   0.042   4.134   5.085 -0.2705  0.4141 -0.3313
13832TIP3    H162987  -0.030   4.081   5.049 -0.2632  0.2237 -0.0671
13832TIP3    H262988   0.098   4.152   5.010 -1.0254  1.2578 -0.7013
13833TIP3   OH262989   5.597   1.418  15.502 -0.1356  0.3598  0.2886
13833TIP3    H162990   5.691   1.436  15.507 -0.0743  1.1904 -2.3778
13833TIP3    H262991   5.588   1.354  15.432 -1.3978 -1.7256  2.2353
13834TIP3   OH262992   0.089   4.517   0.469 -0.2198  0.0763  0.4130
13834TIP3    H162993   0.018   4.581   0.462 -0.3923  0.0158  1.3640
13834TIP3    H262994   0.150   4.556   0.532  0.3690 -0.0750 -0.0588
13835TIP3   OH262995   5.667   3.592   4.666  0.3031  0.1265  0.1537
13835TIP3    H162996   5.586   3.551   4.636  0.1393  0.2912  0.3661
13835TIP3    H262997   5.638   3.663   4.723  0.6051 -0.3780  0.9575
13836TIP3   OH262998   2.784   5.881  11.436 -0.9564  0.1580  0.2134
13836TIP3    H162999   2.708   5.824  11.425  0.1504 -1.1832 -1.0042
13836TIP3    H263000   2.832   5.842  11.510 -0.3118 -0.3758 -0.4766
13837TIP3   OH263001   1.316   0.579   2.404 -0.2281 -0.1817 -0.1886
13837TIP3    H163002   1.332   0.548   2.315 -1.7079 -1.5660 -0.0341
13837TIP3    H263003   1.403   0.599   2.439  0.3128  1.2990 -2.2169
13838TIP3   OH263004   6.776   2.693  13.919 -0.2476  0.5696  0.0471
13838TIP3    H163005   6.728   2.656  13.994 -0.0468  2.2566  1.0619
13838TIP3    H263006   6.722   2.671  13.843  0.3557 -2.6182  0.3951
13839TIP3   OH263007   3.540   0.069   4.843 -0.3721 -0.0477 -0.0651
13839TIP3    H163008   3.583  -0.016   4.844  2.2543  1.1457 -1.9735
13839TIP3    H263009   3.584   0.118   4.774 -1.4513  3.0471  1.2676
13840TIP3   OH263010   0.500   2.723   5.016 -0.1329  1.0614 -0.8020
13840TIP3    H163011   0.530   2.813   5.000  0.9666  0.8644  0.0903
13840TIP3    H263012   0.553   2.670   4.958 -0.9079  0.9805 -1.4607
13841TIP3   OH263013   2.956   2.508  11.994  0.1275  0.7870  0.2593
13841TIP3    H163014   2.934   2.422  11.957  1.0260  1.4484 -2.0012
13841TIP3    H263015   2.875   2.559  11.987  0.3426  0.9779 -1.1421
13842TIP3   OH263016   0.998   0.313  16.408 -0.0096 -0.3147  0.3427
13842TIP3    H163017   1.075   0.293  16.355  0.9423  2.7612  0.3744
13842TIP3    H263018   0.924   0.294  16.350  0.7121 -2.6891  0.0798
13843TIP3   OH263019   3.253   3.238   4.278  0.0668  0.4072  0.1904
13843TIP3    H163020   3.157   3.245   4.272  0.1983  0.8719 -2.7128
13843TIP3    H263021   3.284   3.329   4.270  0.7757  0.0529 -1.4848
13844TIP3   OH263022   5.394   4.948   2.113  0.3908  0.0209 -0.5371
13844TIP3    H163023   5.307   4.921   2.141  0.2448 -1.7708 -2.5355
13844TIP3    H263024   5.414   5.024   2.169 -2.3582  0.4126  0.0718
13845TIP3   OH263025   3.107   4.517   3.722 -0.3664  0.4773 -0.1468
13845TIP3    H163026   3.045   4.465   3.772  0.5903  0.6607  1.2874
13845TIP3    H263027   3.137   4.584   3.783  1.1452  0.4592 -0.8120
13846TIP3   OH263028   0.934   6.043   1.441 -0.4456  0.2303  0.3811
13846TIP3    H163029   0.891   5.968   1.400  0.1004  0.0320  0.1760
13846TIP3    H263030   1.010   6.061   1.386  0.2168  0.0559  1.2175
13847TIP3   OH263031   0.407   2.177   0.486 -0.0961 -0.8546  0.3051
13847TIP3    H163032   0.382   2.210   0.572 -0.7636 -2.6484  0.8477
13847TIP3    H263033   0.326   2.144   0.448 -0.0811  1.0413 -1.6130
13848TIP3   OH263034   5.190   0.260  10.934  0.1579 -0.2271  0.1968
13848TIP3    H163035   5.107   0.260  10.886  0.1016  0.5075  0.2844
13848TIP3    H263036   5.166   0.280  11.024  0.1510 -2.6011  0.7634
13849TIP3   OH263037   3.382   6.637   0.217  0.1057 -1.1389 -0.3581
13849TIP3    H163038   3.381   6.592   0.133 -0.3853 -2.7525  0.4752
13849TIP3    H263039   3.468   6.617   0.254  0.0553 -1.0080 -0.1661
13850TIP3   OH263040   4.203   1.008   3.898 -0.8251  0.0051 -0.4024
13850TIP3    H163041   4.113   0.996   3.927 -1.3576  0.0863 -1.9394
13850TIP3    H263042   4.200   1.085   3.841  0.7881  1.9203  1.8668
13851TIP3   OH263043   1.399   3.700  11.637 -0.3760  0.6201 -0.3386
13851TIP3    H163044   1.446   3.647  11.702  0.6401  0.1725 -1.4001
13851TIP3    H263045   1.327   3.645  11.608 -0.8552  0.8360  0.4262
13852TIP3   OH263046   2.104   5.600  10.681 -0.7071 -0.1200 -0.5139
13852TIP3    H163047   2.127   5.585  10.773 -2.4163  0.8940  0.1329
13852TIP3    H263048   2.160   5.540  10.632 -0.1341 -1.0811  1.2241
13853TIP3   OH263049   0.924   2.341  11.070 -0.1365 -0.0243  0.4736
13853TIP3    H163050   0.831   2.315  11.071 -0.1069 -0.1258  0.6181
13853TIP3    H263051   0.928   2.411  11.005  0.0037 -1.1746 -0.8008
13854TIP3   OH263052   1.354   0.662   0.108  0.0020  0.2010 -0.3421
13854TIP3    H163053   1.420   0.654   0.176  2.0916 -1.0983 -2.3847
13854TIP3    H263054   1.372   0.590   0.048 -2.1249  0.9087 -1.9672
13855TIP3   OH263055   5.254   0.153   4.850 -0.0198 -0.0616  0.0821
13855TIP3    H163056   5.259   0.120   4.760 -2.0883 -1.8721  0.5797
13855TIP3    H263057   5.316   0.099   4.899  1.4939  1.2606 -0.2686
13856TIP3   OH263058   6.376   4.830   5.101 -0.2375  0.1627  0.0872
13856TIP3    H163059   6.306   4.876   5.148  0.4760 -0.7633  2.1916
13856TIP3    H263060   6.361   4.738   5.120  2.0514 -0.0033  1.4189
13857TIP3   OH263061   3.058   2.799  16.640 -0.4080  0.0364  0.0340
13857TIP3    H163062   3.005   2.725  16.669  0.2792 -0.4743  0.0157
13857TIP3    H263063   3.074   2.850  16.719  0.1305 -0.4986  0.2827
13858TIP3   OH263064   1.994   0.473  15.843 -0.1891  0.0643  0.4807
13858TIP3    H163065   1.905   0.487  15.812  0.1368  1.0636 -0.0540
13858TIP3    H263066   2.032   0.412  15.779 -0.8593 -1.4094  1.4306
13859TIP3   OH263067   4.767   0.240  11.195  0.1039 -0.4011 -0.3479
13859TIP3    H163068   4.767   0.176  11.124  0.3405  0.7144 -1.3925
13859TIP3    H263069   4.850   0.226  11.240  0.4324 -0.4463 -0.9520
13860TIP3   OH263070   2.093   6.516   6.092 -0.8240 -0.1700  0.2206
13860TIP3    H163071   2.032   6.580   6.128  0.4358  1.0449  0.2997
13860TIP3    H263072   2.075   6.516   5.998 -0.7616  0.3995  0.2044
13861TIP3   OH263073   0.197   4.565  11.413 -0.2846  0.1045 -0.6220
13861TIP3    H163074   0.292   4.575  11.409  0.0126 -1.7028  0.9206
13861TIP3    H263075   0.180   4.479  11.375 -1.3499  0.5153 -1.1243
13862TIP3   OH263076   5.471   6.263   2.073  0.1904 -0.4638 -0.3050
13862TIP3    H163077   5.432   6.188   2.028 -0.7085  1.0235 -2.1458
13862TIP3    H263078   5.398   6.300   2.124  0.3571 -0.2404 -0.2299
13863TIP3   OH263079   3.518   0.924   0.317  0.1981  0.0948 -0.2742
13863TIP3    H163080   3.444   0.888   0.269  0.5362 -0.7354 -0.1871
13863TIP3    H263081   3.551   0.850   0.369  1.3928  0.3153 -0.6922
13864TIP3   OH263082   1.711   2.001  11.111 -0.0948 -0.1111  0.2409
13864TIP3    H163083   1.640   1.943  11.084  1.2560 -2.2711  1.0298
13864TIP3    H263084   1.704   2.077  11.053 -1.5221 -1.3843 -1.3600
13865TIP3   OH263085   2.077   6.726  10.837  0.8529  0.0781 -0.1406
13865TIP3    H163086   2.056   6.798  10.778 -1.6676 -1.3931 -1.2058
13865TIP3    H263087   2.151   6.682  10.796  0.3218  0.1799 -1.2380
13866TIP3   OH263088   1.921   0.928  15.056  0.1860  0.4583  0.2817
13866TIP3    H163089   1.895   1.020  15.051  2.2290  1.1867  1.4928
13866TIP3    H263090   1.854   0.887  15.110 -1.9040  0.6942 -1.9825
13867TIP3   OH263091   5.432   4.120  12.960 -0.7356 -0.0518  0.6430
13867TIP3    H163092   5.377   4.051  12.999  1.5152 -1.3011  1.8195
13867TIP3    H263093   5.449   4.180  13.032 -1.9349  1.2887 -0.1574
13868TIP3   OH263094   4.253   4.405  14.849 -0.1049 -0.5507 -0.0599
13868TIP3    H163095   4.212   4.419  14.763 -3.0105 -1.8711  0.9814
13868TIP3    H263096   4.182   4.418  14.912  1.3666 -1.8325  1.9944
13869TIP3   OH263097   5.982   3.278   4.700 -0.5118 -0.5036  0.0114
13869TIP3    H163098   6.025   3.329   4.769 -1.6970 -1.0761  1.2208
13869TIP3    H263099   5.953   3.343   4.637  0.2695  0.0704  0.2267
13870TIP3   OH263100   3.361   4.168  15.509 -0.3218 -0.0715  0.4713
13870TIP3    H163101   3.428   4.101  15.492  1.6900  1.7876  0.6433
13870TIP3    H263102   3.305   4.166  15.430  1.8611  0.4666 -1.1850
13871TIP3   OH263103   1.040   4.828   3.033 -0.6036  0.3338  0.7184
13871TIP3    H163104   1.118   4.780   3.058  0.4847  1.6737  0.0126
13871TIP3    H263105   1.005   4.780   2.958  0.0542  0.2199  0.4812
13872TIP3   OH263106   6.695   3.954  11.141  0.4184 -0.4437  0.1295
13872TIP3    H163107   6.667   3.909  11.221 -2.0297 -0.7711 -0.8464
13872TIP3    H263108   6.665   3.898  11.070  0.6218  0.9016 -1.0611
13873TIP3   OH263109   3.980   5.250  14.118  0.4706 -0.2895  0.2818
13873TIP3    H163110   4.040   5.197  14.171  0.6034  0.3089  0.7318
13873TIP3    H263111   4.010   5.340  14.129 -0.0818 -0.0602 -0.0521
13874TIP3   OH263112   1.915   1.396   1.162  0.7473  0.2754 -0.0110
13874TIP3    H163113   1.957   1.354   1.087  0.6763  1.7417 -0.9174
13874TIP3    H263114   1.894   1.485   1.131 -0.6911  0.4167  1.2387
13875TIP3   OH263115   5.981   2.349   0.883 -0.3526 -0.0109 -0.2952
13875TIP3    H163116   5.977   2.314   0.972 -2.0619 -1.2760 -0.8169
13875TIP3    H263117   6.070   2.332   0.854  0.0587 -0.1042  0.9556
13876TIP3   OH263118   5.668   2.091   2.816 -0.2690 -0.9951  0.3519
13876TIP3    H163119   5.752   2.047   2.807 -0.3010 -1.1976  0.9571
13876TIP3    H263120   5.659   2.106   2.911 -1.4770 -2.0876  0.4314
13877TIP3   OH263121   5.139   2.496   1.032 -0.1755  0.1225  0.3540
13877TIP3    H163122   5.083   2.571   1.055 -1.6561 -0.6490 -0.5936
13877TIP3    H263123   5.199   2.488   1.106  1.3191  3.3787 -0.3190
13878TIP3   OH263124   6.681   2.789  16.736 -0.0006  0.8463 -0.3122
13878TIP3    H163125   6.749   2.729  16.768  0.2496  2.0667  1.5585
13878TIP3    H263126   6.648   2.746  16.657 -1.2921 -2.8471  1.9935
13879TIP3   OH263127   4.125   1.437   3.544  0.3583 -0.3065  0.2241
13879TIP3    H163128   4.047   1.450   3.598  0.5775 -1.5570  0.8725
13879TIP3    H263129   4.133   1.342   3.536  1.3464 -0.1738 -0.5310
13880TIP3   OH263130   6.032   4.742   4.772  0.3298 -0.3068  0.1826
13880TIP3    H163131   6.001   4.652   4.779 -1.1804  0.0834 -0.8731
13880TIP3    H263132   6.124   4.734   4.746  0.3204 -1.5289  0.4834
13881TIP3   OH263133   3.486   1.345  15.460 -0.7544  0.5730  0.4177
13881TIP3    H163134   3.447   1.421  15.503  0.8568  1.8519 -0.2528
13881TIP3    H263135   3.577   1.345  15.490 -0.6421 -0.9167  0.1508
13882TIP3   OH263136   4.170   0.894  11.336 -0.1499 -0.2953  0.2856
13882TIP3    H163137   4.188   0.982  11.371  0.8586 -0.0741 -0.7462
13882TIP3    H263138   4.235   0.882  11.267 -0.4607 -1.7553  0.2252
13883TIP3   OH263139   3.779   3.979  12.858  0.1722  0.1634 -0.1846
13883TIP3    H163140   3.719   3.906  12.843  0.9016 -0.2049 -1.4498
13883TIP3    H263141   3.824   3.990  12.774  0.5221  1.6612  0.1772
13884TIP3   OH263142   0.185   3.450  10.744 -0.2117 -0.2917 -0.7522
13884TIP3    H163143   0.145   3.410  10.821  1.6472 -1.0663 -0.1315
13884TIP3    H263144   0.249   3.385  10.714  0.9604  1.0949 -1.3688
13885TIP3   OH263145   0.078   4.848  17.223 -0.5618  0.6526  0.2861
13885TIP3    H163146   0.029   4.766  17.219 -0.6793  0.7574 -0.8107
13885TIP3    H263147   0.048   4.890  17.304 -1.4682  0.2066  0.1956
13886TIP3   OH263148   1.125   0.008  14.455  0.3093  0.2342 -0.1120
13886TIP3    H163149   1.110  -0.068  14.511 -0.7426  1.9876  2.1234
13886TIP3    H263150   1.221   0.016  14.453  0.4957 -1.5422 -1.0594
13887TIP3   OH263151   2.933   5.163   1.424  0.0583  0.0382  0.1359
13887TIP3    H163152   2.989   5.200   1.356  0.5366  1.3461  1.1981
13887TIP3    H263153   2.995   5.130   1.490 -0.3635 -2.2863 -0.5494
13888TIP3   OH263154   6.725   3.398   3.456  0.2669  0.4204  0.1010
13888TIP3    H163155   6.732   3.419   3.363 -1.2769 -0.7936 -0.3260
13888TIP3    H263156   6.633   3.375   3.469  0.1527  1.7328  2.2010
13889TIP3   OH263157   2.970   6.700  15.276 -0.6797  0.0853  0.2869
13889TIP3    H163158   2.919   6.757  15.333 -1.7887 -0.4226 -0.1692
13889TIP3    H263159   3.022   6.646  15.337 -0.9261  0.3848  0.7721
13890TIP3   OH263160   2.117   6.582  15.451  0.4862  0.1172  0.2858
13890TIP3    H163161   2.109   6.496  15.491  0.3569  0.3486  0.7583
13890TIP3    H263162   2.097   6.567  15.358  2.2627 -0.6976 -0.0071
13891TIP3   OH263163   0.255   2.626  16.752 -0.5774  0.4742  0.1040
13891TIP3    H163164   0.171   2.633  16.797 -0.3197 -0.0991  0.6972
13891TIP3    H263165   0.317   2.672  16.810 -0.2731 -0.1162  0.2500
13892TIP3   OH263166   1.098   1.100  11.850 -0.2341 -0.3477 -0.2953
13892TIP3    H163167   1.139   1.119  11.766 -0.7224  2.2947 -0.0205
13892TIP3    H263168   1.098   1.183  11.897 -4.2573 -0.5184  0.4224
13893TIP3   OH263169   1.618   4.080  12.305  0.0748  0.0010  0.5969
13893TIP3    H163170   1.625   4.058  12.212  1.5443  0.0657  0.6755
13893TIP3    H263171   1.527   4.060  12.327 -0.0105 -1.0587 -0.5887
13894TIP3   OH263172   5.450   5.852   6.700 -0.3436 -0.2191  0.3175
13894TIP3    H163173   5.373   5.796   6.709 -1.2375  0.7834 -0.7303
13894TIP3    H263174   5.415   5.941   6.695  0.8961  0.2828  0.0938
13895TIP3   OH263175   5.962   3.585   2.161  0.4349 -0.3550 -0.3243
13895TIP3    H163176   6.057   3.586   2.159  0.5005  0.0538  1.3503
13895TIP3    H263177   5.939   3.519   2.226 -0.2730  1.7101  1.6960
13896TIP3   OH263178   4.175   6.697   5.424 -0.0979 -0.3916 -0.2830
13896TIP3    H163179   4.097   6.739   5.387 -0.3436  0.6389  1.3074
13896TIP3    H263180   4.242   6.707   5.356 -0.8692  0.2466 -0.9744
13897TIP3   OH263181   1.649   0.588   0.671  0.3920  0.3190  0.3254
13897TIP3    H163182   1.684   0.672   0.700 -0.7236  0.7438  0.4911
13897TIP3    H263183   1.560   0.585   0.707 -0.2902 -0.0572 -1.3107
13898TIP3   OH263184   4.722   1.025  13.098  0.3086 -0.0255 -0.6421
13898TIP3    H163185   4.667   1.102  13.082  0.3437 -0.0983 -1.1282
13898TIP3    H263186   4.800   1.039  13.045  1.7551  1.0737  1.6223
13899TIP3   OH263187   5.952   2.524  11.527  0.1647  0.1707  0.4267
13899TIP3    H163188   5.924   2.599  11.580  0.1776 -0.9996  2.1512
13899TIP3    H263189   5.888   2.521  11.455 -0.6543  1.0232  1.0856
13900TIP3   OH263190   3.678   0.692   0.649  0.1016  0.1469  0.2901
13900TIP3    H163191   3.656   0.600   0.661  0.7732 -0.0079  0.4094
13900TIP3    H263192   3.758   0.704   0.701  0.1581  0.7362  0.0741
13901TIP3   OH263193   4.566   0.861  10.959 -0.4332  0.4777  0.1617
13901TIP3    H163194   4.623   0.822  10.893 -1.7031  0.8566 -1.2218
13901TIP3    H263195   4.613   0.938  10.990  0.7795 -0.4635  0.7366
13902TIP3   OH263196   4.119   6.399   4.048  0.1050 -0.2442  0.5039
13902TIP3    H163197   4.170   6.348   3.985  0.1582  0.5360 -0.0921
13902TIP3    H263198   4.103   6.338   4.120  0.5207 -0.9775 -0.0102
13903TIP3   OH263199   2.316   6.395   5.844  0.3681  0.1003 -0.1233
13903TIP3    H163200   2.283   6.338   5.913 -0.4651  0.3038 -0.3360
13903TIP3    H263201   2.266   6.369   5.766  2.4315 -1.2607 -1.0734
13904TIP3   OH263202   5.438   5.990   5.630  0.1155 -0.1470  0.1414
13904TIP3    H163203   5.346   5.983   5.654  0.3889  0.4144  1.4608
13904TIP3    H263204   5.451   5.922   5.565 -1.4512  0.3858 -0.7836
13905TIP3   OH263205   5.555   4.193  11.882  0.2623 -0.5378 -0.0604
13905TIP3    H163206   5.636   4.244  11.882  0.3285 -0.6111  1.0442
13905TIP3    H263207   5.525   4.197  11.973 -1.0593 -0.3907 -0.4897
13906TIP3   OH263208   3.922   5.379  13.582 -0.4338 -0.0661  0.7272
13906TIP3    H163209   3.914   5.393  13.676  0.8494  0.4822  0.7781
13906TIP3    H263210   3.881   5.457  13.543  0.3222  0.4157  0.8736
13907TIP3   OH263211   2.683   4.406  13.000 -0.4857  0.0024  0.9667
13907TIP3    H163212   2.762   4.446  12.963 -0.0888  1.7814  3.4946
13907TIP3    H263213   2.715   4.336  13.056 -1.0668 -2.4595 -1.5552
13908TIP3   OH263214   6.193   5.635   1.872  0.1561  0.2680  0.2992
13908TIP3    H163215   6.182   5.561   1.813  0.1016 -0.0948  0.7511
13908TIP3    H263216   6.200   5.594   1.959 -0.3342  0.8194  0.6004
13909TIP3   OH263217   3.617   3.247  15.999  0.0005 -0.2069  0.0430
13909TIP3    H163218   3.526   3.278  16.007  0.6456  2.4262 -1.4523
13909TIP3    H263219   3.661   3.283  16.076 -0.0598 -0.9500  0.4365
13910TIP3   OH263220   5.675   4.397  13.229 -0.4627 -0.2629  0.0551
13910TIP3    H163221   5.683   4.302  13.230  1.5655 -0.2519 -2.7831
13910TIP3    H263222   5.749   4.428  13.281 -1.6016 -0.1788  1.6878
13911TIP3   OH263223   4.377   1.252   3.832 -0.4763  0.3957  0.1206
13911TIP3    H163224   4.447   1.196   3.865 -2.2537 -1.3468  1.1471
13911TIP3    H263225   4.395   1.261   3.738  1.2593  0.2659  0.4134
13912TIP3   OH263226   2.209   0.360  14.914  0.1190 -0.1062  0.1445
13912TIP3    H163227   2.280   0.363  14.850  0.5091 -0.8144  0.5276
13912TIP3    H263228   2.132   0.391  14.867  0.3263 -0.9266 -0.7756
13913TIP3   OH263229   6.567   0.672  13.920 -0.2444 -0.0290  0.1423
13913TIP3    H163230   6.615   0.606  13.870 -0.4877  0.2322 -0.4370
13913TIP3    H263231   6.596   0.756  13.884 -1.4660  0.1241 -0.5238
13914TIP3   OH263232   0.568   0.918   0.920  0.1084  0.3133  0.1071
13914TIP3    H163233   0.636   0.855   0.944  0.2182  0.1625 -0.5680
13914TIP3    H263234   0.594   0.948   0.832 -0.9158 -0.0582 -0.3379
13915TIP3   OH263235   0.515   5.545   1.878 -0.4137 -0.1427 -0.3351
13915TIP3    H163236   0.598   5.572   1.839 -0.0568 -0.9319 -0.1371
13915TIP3    H263237   0.531   5.545   1.972 -0.8852  0.4883 -0.2513
13916TIP3   OH263238   0.653   4.517  14.756 -0.2364  0.0744  0.3722
13916TIP3    H163239   0.676   4.440  14.705  2.7736  1.5966 -0.8571
13916TIP3    H263240   0.575   4.552  14.713  0.2936 -0.5217 -1.1440
13917TIP3   OH263241   1.674   5.619  11.920  0.3249  0.4104 -0.6638
13917TIP3    H163242   1.641   5.531  11.941  0.1135  0.6759  0.1296
13917TIP3    H263243   1.726   5.644  11.995  2.2289  0.0869 -1.8120
13918TIP3   OH263244   3.051   4.700   6.242  0.0161 -0.3753 -0.1925
13918TIP3    H163245   3.118   4.668   6.181  0.5405 -0.7197  0.5356
13918TIP3    H263246   3.066   4.794   6.247  0.0666 -0.3671 -0.4888
13919TIP3   OH263247   2.306   2.271   1.402 -0.0619  0.3588  0.0833
13919TIP3    H163248   2.366   2.314   1.341  0.9132  0.4948  1.0924
13919TIP3    H263249   2.220   2.279   1.361  0.6593 -0.2451 -1.6223
13920TIP3   OH263250   3.356   5.253   2.233  0.1129 -0.0941  0.0845
13920TIP3    H163251   3.446   5.264   2.204  0.0906 -1.6596 -0.7051
13920TIP3    H263252   3.302   5.285   2.161 -0.0268  1.9916  1.0352
13921TIP3   OH263253   2.594   0.402  14.988 -0.3013  0.3679 -0.6603
13921TIP3    H163254   2.555   0.478  15.032  0.6734 -0.2396  1.3599
13921TIP3    H263255   2.687   0.423  14.982 -0.2711  0.0172 -1.6038
13922TIP3   OH263256   5.055   0.016   0.663 -0.4724  0.1809 -0.4475
13922TIP3    H163257   5.016  -0.028   0.587 -1.8066 -0.3223  0.4932
13922TIP3    H263258   5.144  -0.017   0.667 -0.3235  0.3264 -1.8734
13923TIP3   OH263259   6.059   0.800  16.734 -0.4092  0.5010  0.2083
13923TIP3    H163260   6.037   0.757  16.651  1.4279  1.5942 -0.9401
13923TIP3    H263261   6.120   0.869  16.708  0.5783  0.5765  2.5403
13924TIP3   OH263262   3.423   6.642  11.334 -0.2737 -0.0761 -0.0427
13924TIP3    H163263   3.506   6.624  11.290  0.7947 -2.2762  2.5750
13924TIP3    H263264   3.448   6.684  11.416 -2.0640  2.1456 -0.5227
13925TIP3   OH263265   3.228   3.285  16.954 -0.1465  0.9774 -0.4932
13925TIP3    H163266   3.285   3.290  16.878 -0.2911  1.3270 -0.5790
13925TIP3    H263267   3.227   3.374  16.990 -0.4085  0.9095 -0.3250
13926TIP3   OH263268   4.737   0.848  15.483 -0.1891 -0.2644 -0.5209
13926TIP3    H163269   4.740   0.905  15.405 -1.8154  1.0847  0.3265
13926TIP3    H263270   4.677   0.777  15.458 -1.8221  0.9003 -0.1209
13927TIP3   OH263271   5.381   2.826  13.110 -0.7867  0.1332  0.1754
13927TIP3    H163272   5.365   2.801  13.201 -0.8515  0.5425  0.2762
13927TIP3    H263273   5.460   2.778  13.086 -0.8201 -0.0464  0.4188
13928TIP3   OH263274   5.141   5.096   0.283  0.0563 -0.1138  0.4573
13928TIP3    H163275   5.111   5.006   0.295  0.7808 -0.5709 -0.8474
13928TIP3    H263276   5.229   5.097   0.322 -0.5580  0.4821  1.8783
13929TIP3   OH263277   3.379   3.487   5.769  0.1957  0.1992 -0.3265
13929TIP3    H163278   3.471   3.507   5.787  0.6528 -1.4289 -0.6770
13929TIP3    H263279   3.330   3.542   5.830  1.4503  0.0350  0.8793
13930TIP3   OH263280   4.257   0.797  16.555  0.4771 -0.2917  0.6895
13930TIP3    H163281   4.267   0.775  16.462  0.3283  0.8040  0.3930
13930TIP3    H263282   4.180   0.748  16.583  0.8081 -1.0137  0.3684
13931TIP3   OH263283   5.639   4.423   5.779  0.1510 -0.0846 -0.8202
13931TIP3    H163284   5.675   4.508   5.805  2.0228 -0.5057 -1.8313
13931TIP3    H263285   5.711   4.362   5.794 -1.1312 -1.5071 -0.2085
13932TIP3   OH263286   1.523   4.453  12.160  0.0896 -0.0639 -0.5972
13932TIP3    H163287   1.480   4.522  12.212 -1.4094 -1.3039 -0.1436
13932TIP3    H263288   1.582   4.411  12.222  3.2563  2.5355 -1.5439
13933TIP3   OH263289   5.819   2.589  12.265 -0.1318 -0.3249  0.6324
13933TIP3    H163290   5.809   2.523  12.197 -0.1363 -1.5874  1.8020
13933TIP3    H263291   5.901   2.633  12.245 -1.0471  0.6404 -1.2241
13934TIP3   OH263292   4.759   3.058  11.049  0.0305  0.6655  0.4017
13934TIP3    H163293   4.788   3.117  11.119  0.6317 -0.1709  0.8796
13934TIP3    H263294   4.691   3.005  11.090 -0.2602  0.7882  0.0771
13935TIP3   OH263295   4.793   6.201   4.195  0.0724 -0.4916  0.2237
13935TIP3    H163296   4.709   6.220   4.152  0.2902 -2.2804 -1.1387
13935TIP3    H263297   4.850   6.275   4.170 -0.5679 -0.1980 -0.4153
13936TIP3   OH263298   1.241   0.274   4.733  0.2267  0.0459 -0.3158
13936TIP3    H163299   1.196   0.191   4.719  0.8628 -0.1122 -1.5574
13936TIP3    H263300   1.334   0.252   4.728  0.4481  0.5087  1.3545
13937TIP3   OH263301   6.061   2.840  13.855  0.0093  0.3160 -0.2119
13937TIP3    H163302   6.053   2.745  13.857  1.0340  0.2062 -0.6894
13937TIP3    H263303   6.029   2.868  13.941  0.3915 -0.5171  0.2128
13938TIP3   OH263304   1.838   3.515   3.702  0.4261  0.3857  0.3496
13938TIP3    H163305   1.859   3.481   3.789  2.7310  0.4229 -0.1400
13938TIP3    H263306   1.815   3.437   3.652  0.0822  0.2415  0.7261
13939TIP3   OH263307   6.325   4.316   0.071  0.1667  0.0792 -0.4570
13939TIP3    H163308   6.272   4.285   0.144 -2.6183  0.5289 -2.1365
13939TIP3    H263309   6.409   4.272   0.082 -0.4972 -0.6788  2.3826
13940TIP3   OH263310   2.590   2.210   5.780 -0.4785 -0.0533 -0.1746
13940TIP3    H163311   2.669   2.173   5.740  0.5059  0.9194  0.7825
13940TIP3    H263312   2.593   2.179   5.871 -1.8092 -0.8982 -0.3932
13941TIP3   OH263313   3.455   3.800  12.544  0.0664  0.2909  0.0040
13941TIP3    H163314   3.372   3.847  12.555 -0.6020 -1.0270  0.8097
13941TIP3    H263315   3.431   3.717  12.502  0.8640 -0.3918  0.8473
13942TIP3   OH263316   0.695   0.341   2.946  0.5786 -0.6165  0.2678
13942TIP3    H163317   0.605   0.319   2.970 -0.6010  1.9640 -1.3193
13942TIP3    H263318   0.695   0.342   2.850  2.9557 -2.7472  0.1502
13943TIP3   OH263319   3.293   1.687   1.033  0.1755  0.0995 -0.0669
13943TIP3    H163320   3.250   1.649   0.957  3.0910 -1.3899 -1.1290
13943TIP3    H263321   3.368   1.735   0.998  1.0927  0.1225  1.7865
13944TIP3   OH263322   6.088   5.264  15.280  0.6670 -0.2301 -0.1989
13944TIP3    H163323   6.106   5.318  15.203 -1.9745  1.1198  0.0072
13944TIP3    H263324   6.170   5.216  15.296  1.2089 -0.9155 -4.0601
13945TIP3   OH263325   1.705   4.639   5.643  0.1165  0.5737 -0.7083
13945TIP3    H163326   1.622   4.597   5.620 -0.1092  0.3441  0.4829
13945TIP3    H263327   1.696   4.729   5.612 -1.4347  1.1553  1.2862
13946TIP3   OH263328   4.105   0.385  15.295  0.6141  0.1805  0.3811
13946TIP3    H163329   4.073   0.428  15.216 -1.2269  1.0307  1.5406
13946TIP3    H263330   4.164   0.316  15.262 -0.3826  0.2611 -1.7400
13947TIP3   OH263331   3.356   0.854   3.144  0.0314  0.2521  0.2006
13947TIP3    H163332   3.424   0.820   3.202  1.0094  0.4999 -0.7665
13947TIP3    H263333   3.341   0.783   3.081 -0.6116  0.1980  0.4106
13948TIP3   OH263334   0.947   4.324  15.538  0.5013  0.6568 -0.1869
13948TIP3    H163335   0.898   4.294  15.614  0.1859  0.4958 -0.4502
13948TIP3    H263336   1.003   4.251  15.515  2.1146  1.4119  1.1188
13949TIP3   OH263337   1.792   1.551   3.162  0.0773  0.2611  0.1162
13949TIP3    H163338   1.814   1.550   3.255  0.7725  1.8224 -0.0033
13949TIP3    H263339   1.799   1.643   3.137  1.3218 -0.2999 -1.8061
13950TIP3   OH263340   5.094   5.915   3.138 -0.0706  0.2449  0.1576
13950TIP3    H163341   5.050   5.830   3.137  0.9684 -0.3275 -1.2576
13950TIP3    H263342   5.166   5.904   3.200  1.6076 -0.8121 -1.8585
13951TIP3   OH263343   0.452   1.697  16.390  0.3126  0.5206  0.3517
13951TIP3    H163344   0.371   1.648  16.379  0.9788 -0.9419  1.5912
13951TIP3    H263345   0.521   1.630  16.391  1.5295  1.7042 -0.4534
13952TIP3   OH263346   3.671   1.822  12.898  0.7389 -0.0684 -0.3422
13952TIP3    H163347   3.743   1.783  12.849  0.6339 -1.6794  0.7235
13952TIP3    H263348   3.611   1.854  12.831  1.7688  0.0244 -1.2402
13953TIP3   OH263349   4.922   1.484  13.840  0.0042 -0.3080 -0.1649
13953TIP3    H163350   4.896   1.465  13.750 -1.2453 -0.5263  0.2113
13953TIP3    H263351   4.951   1.575  13.838  2.0213 -0.9093 -1.1683
13954TIP3   OH263352   1.196   3.717   5.717 -0.3603  0.1617  0.3280
13954TIP3    H163353   1.212   3.715   5.811 -1.4657 -0.5092  0.5140
13954TIP3    H263354   1.244   3.794   5.686 -0.3487  0.6443  1.5048
13955TIP3   OH263355   5.860   3.375  11.026 -0.3150 -0.1726  0.3608
13955TIP3    H163356   5.776   3.414  11.050 -1.1082 -1.5563 -0.0615
13955TIP3    H263357   5.878   3.407  10.938 -1.8893 -2.1330 -0.7506
13956TIP3   OH263358   0.157   6.036   5.687 -0.5600  0.0073  0.3706
13956TIP3    H163359   0.179   6.091   5.612 -1.0141  1.3571  1.1742
13956TIP3    H263360   0.204   5.954   5.673 -0.5456  0.2837 -1.3032
13957TIP3   OH263361   1.712   5.671  13.956  1.0299 -0.5555 -0.0214
13957TIP3    H163362   1.705   5.767  13.952  3.6925 -0.2902 -0.0747
13957TIP3    H263363   1.626   5.640  13.931 -0.4489  1.8358  1.6325
13958TIP3   OH263364   4.956   2.022   2.469  0.5263  0.4105  0.8461
13958TIP3    H163365   4.956   2.117   2.454  1.2521  0.4032  0.7795
13958TIP3    H263366   4.902   2.010   2.546  1.4815  1.0070  1.6276
13959TIP3   OH263367   2.994   1.044  16.006 -0.0418  0.2562  0.0876
13959TIP3    H163368   3.034   0.993  15.936  3.3399  2.1232  0.4351
13959TIP3    H263369   2.905   1.010  16.013  0.5657 -2.3398 -2.7281
13960TIP3   OH263370   5.937   5.369  14.254 -0.3480 -0.1148  0.0309
13960TIP3    H163371   5.974   5.456  14.237  0.0966 -0.2865  0.0952
13960TIP3    H263372   5.885   5.350  14.176 -1.6700  0.8291  0.6375
13961TIP3   OH263373   4.001   0.607   4.894  0.5787 -0.2971  0.3085
13961TIP3    H163374   3.951   0.575   4.819 -1.7125  1.7339  0.8125
13961TIP3    H263375   4.091   0.582   4.876 -0.1007 -1.1022 -2.4207
13962TIP3   OH263376   1.779   3.144  16.084 -0.1843 -0.0837 -0.4198
13962TIP3    H163377   1.805   3.236  16.071 -0.5085  0.3057  1.3468
13962TIP3    H263378   1.687   3.149  16.107 -0.0252 -0.7691  0.4093
13963TIP3   OH263379   6.490   3.361  12.493 -0.2596 -0.1794  0.3612
13963TIP3    H163380   6.494   3.420  12.417  1.5677  0.6034  0.9971
13963TIP3    H263381   6.557   3.295  12.475  2.5465  1.8262  2.6230
13964TIP3   OH263382   4.320   0.786   3.731 -0.0412 -0.6068  0.3889
13964TIP3    H163383   4.357   0.777   3.643  0.9845 -1.8066  0.9040
13964TIP3    H263384   4.343   0.875   3.758  1.5747 -0.9529  0.2677
13965TIP3   OH263385   0.389   6.049  15.212  0.2544  0.5906  0.5552
13965TIP3    H163386   0.364   5.994  15.286 -0.3187 -0.8503 -0.6548
13965TIP3    H263387   0.453   5.996  15.163 -2.0518 -0.1306 -1.9346
13966TIP3   OH263388   0.325   4.344  15.545  0.4384 -0.3891 -0.2811
13966TIP3    H163389   0.233   4.345  15.571  0.3021  0.5478 -0.7788
13966TIP3    H263390   0.372   4.324  15.626 -0.0564  1.3635  0.4868
13967TIP3   OH263391   1.982   3.105   2.371 -0.0286  0.0662  0.5320
13967TIP3    H163392   1.990   3.174   2.305 -0.0610 -0.5030 -0.0654
13967TIP3    H263393   2.070   3.070   2.380  0.2627  1.0500  1.7915
13968TIP3   OH263394   4.268   2.025   5.548 -0.1769 -0.6946  0.0065
13968TIP3    H163395   4.175   2.004   5.550 -0.7676  1.6413  1.2943
13968TIP3    H263396   4.311   1.951   5.591 -1.2053 -2.4614 -1.8459
13969TIP3   OH263397   4.029   2.311  14.330 -0.1649  0.2879  0.9132
13969TIP3    H163398   4.083   2.275  14.260 -0.4128 -1.1228  1.4165
13969TIP3    H263399   4.005   2.398  14.300  1.3788  0.4802  0.1399
13970TIP3   OH263400   6.089   6.351   4.541 -0.2473  0.1146 -0.0880
13970TIP3    H163401   6.110   6.367   4.449 -1.1952  1.0363 -0.1594
13970TIP3    H263402   6.173   6.355   4.586  0.0529  1.0683 -0.7198
13971TIP3   OH263403   6.384   2.054   1.343 -0.4784  0.3297 -0.0767
13971TIP3    H163404   6.297   2.016   1.328  0.1387 -0.5099 -1.7364
13971TIP3    H263405   6.442   1.978   1.351 -0.0290  0.8290  2.3702
13972TIP3   OH263406   2.183   0.719  13.397  0.2266 -0.2811 -0.3817
13972TIP3    H163407   2.125   0.703  13.471  1.5804 -2.6714  0.2469
13972TIP3    H263408   2.218   0.807  13.412 -1.7148  0.4393  0.2252
13973TIP3   OH263409   2.699   1.449   6.070  0.2830  0.1045  0.5840
13973TIP3    H163410   2.692   1.357   6.095  0.2229  0.1604  0.7777
13973TIP3    H263411   2.736   1.492   6.147 -3.8209  1.0282  2.2950
13974TIP3   OH263412   0.995   5.301  15.935  0.5859 -0.0812  0.1569
13974TIP3    H163413   0.958   5.212  15.941  1.6615 -0.6130 -0.6962
13974TIP3    H263414   0.951   5.350  16.004 -2.8056 -0.2839 -1.6252
13975TIP3   OH263415   5.877   1.110  11.222  0.0242  0.1700  0.1288
13975TIP3    H163416   5.874   1.015  11.215  0.9367  0.1763 -0.4201
13975TIP3    H263417   5.785   1.136  11.233 -0.0066 -1.0254  4.2922
13976TIP3   OH263418   4.969   0.669   1.557  0.4322  0.3276 -0.4723
13976TIP3    H163419   4.932   0.619   1.485 -0.8677 -2.2639  1.8168
13976TIP3    H263420   5.057   0.632   1.569 -0.3980 -1.2853  0.9938
13977TIP3   OH263421   2.467   2.317   5.335  0.2284  0.5581 -0.1109
13977TIP3    H163422   2.441   2.278   5.419 -0.9582 -0.0939 -0.7662
13977TIP3    H263423   2.519   2.249   5.292 -0.2789  0.3863 -0.4613
13978TIP3   OH263424   0.780   4.407   0.934  0.0432 -1.1387 -0.2117
13978TIP3    H163425   0.859   4.391   0.881  0.0829 -0.6807 -0.3013
13978TIP3    H263426   0.802   4.486   0.984 -0.6609 -0.5176 -0.8524
13979TIP3   OH263427   5.962   2.007  13.939  0.1601 -0.3445 -0.4234
13979TIP3    H163428   6.027   2.036  14.002 -0.2867 -0.5572  0.1445
13979TIP3    H263429   5.878   2.036  13.975 -0.1165 -0.6141 -0.8345
13980TIP3   OH263430   6.215   1.746   4.783 -0.1374 -0.1499  0.1232
13980TIP3    H163431   6.305   1.716   4.798 -0.6576 -1.2000  1.3170
13980TIP3    H263432   6.169   1.726   4.865 -1.7795 -0.8556 -0.9255
13981TIP3   OH263433   3.835   4.412   2.376 -0.0810 -0.2122  0.0537
13981TIP3    H163434   3.834   4.372   2.463 -0.8336  0.5455  0.4087
13981TIP3    H263435   3.867   4.501   2.391 -0.4816  0.0143 -0.3975
13982TIP3   OH263436   4.107   0.057  13.004 -0.2508 -0.3150 -0.0132
13982TIP3    H163437   4.094  -0.037  13.017  0.5606 -0.6842 -1.5699
13982TIP3    H263438   4.021   0.090  12.976 -0.2120 -0.8621 -0.7966
13983TIP3   OH263439   6.000   1.133   6.024 -0.3742 -0.3231 -0.0097
13983TIP3    H163440   5.967   1.069   5.961  0.7191  0.6599 -1.6516
13983TIP3    H263441   5.965   1.217   5.995  0.4894  0.2150  0.4281
13984TIP3   OH263442   5.203   0.184  14.782  0.4010  0.2008 -0.5535
13984TIP3    H163443   5.153   0.199  14.702 -0.9029  1.0612  0.3786
13984TIP3    H263444   5.140   0.144  14.842  1.2071  0.0775  0.2180
13985TIP3   OH263445   5.540   3.957   2.193  0.0948 -0.6551 -0.5653
13985TIP3    H163446   5.582   4.015   2.129 -1.2365  0.3857 -0.5478
13985TIP3    H263447   5.612   3.919   2.242  1.0555  0.2629 -1.2139
13986TIP3   OH263448   0.280   0.235  14.606  0.0904  0.0656 -0.1697
13986TIP3    H163449   0.215   0.289  14.562  0.2994  0.1593 -0.3638
13986TIP3    H263450   0.245   0.146  14.599 -0.4887  0.2253  0.5660
13987TIP3   OH263451   1.214   1.900  14.923 -0.3758 -0.5698  0.0532
13987TIP3    H163452   1.146   1.925  14.985  0.5440  0.8039  0.5530
13987TIP3    H263453   1.225   1.805  14.936 -2.3251 -0.8704 -0.2249
13988TIP3   OH263454   1.917   4.043  15.511  0.4427  0.3027 -0.0347
13988TIP3    H163455   1.881   4.004  15.591  0.0633  0.4021 -0.1543
13988TIP3    H263456   1.947   3.969  15.459  2.0009  0.2919  0.7983
13989TIP3   OH263457   5.138   3.261   3.177 -0.2375  0.0852 -0.4782
13989TIP3    H163458   5.152   3.187   3.118  3.3954  1.1661 -1.2205
13989TIP3    H263459   5.103   3.331   3.121 -0.7728 -0.1191 -0.4096
13990TIP3   OH263460   2.141   4.032  16.589 -0.0324  0.2498 -0.2228
13990TIP3    H163461   2.118   4.101  16.527  1.4265 -1.4012 -2.7272
13990TIP3    H263462   2.169   3.959  16.535 -0.3692 -1.9428  2.3651
13991TIP3   OH263463   4.291   3.567  12.660  0.5474 -0.4588  0.1916
13991TIP3    H163464   4.312   3.505  12.730 -0.4358 -1.4722 -0.3751
13991TIP3    H263465   4.239   3.634  12.704  0.8594 -0.5050  0.6408
13992TIP3   OH263466   0.833   1.768  12.296  0.2150 -0.2305 -0.2442
13992TIP3    H163467   0.790   1.789  12.213  0.0077 -1.4923 -0.4748
13992TIP3    H263468   0.766   1.786  12.363 -1.1920 -3.1952 -0.6646
13993TIP3   OH263469   3.085   3.993   2.810 -0.2129 -0.1475  0.1080
13993TIP3    H163470   3.162   3.941   2.834  0.4228  1.1061  0.8879
13993TIP3    H263471   3.101   4.020   2.720  0.7120  0.8257  0.5408
13994TIP3   OH263472   6.065   5.932  16.480 -0.1414  0.8751 -0.5300
13994TIP3    H163473   5.977   5.927  16.442 -2.0221  2.3140  3.0868
13994TIP3    H263474   6.073   5.852  16.532  0.2407  1.2335 -0.0335
13995TIP3   OH263475   3.943   3.941  11.883 -0.2199  0.2577 -0.1947
13995TIP3    H163476   4.020   3.929  11.828  0.1052  0.1986  0.2676
13995TIP3    H263477   3.946   3.869  11.946  0.5516  1.4529  1.2057
13996TIP3   OH263478   2.443   6.631  15.609 -0.3110  0.1663  0.8272
13996TIP3    H163479   2.394   6.658  15.687  0.9194  0.4727  1.5151
13996TIP3    H263480   2.388   6.658  15.536 -2.1203 -1.3027  1.5690
13997TIP3   OH263481   5.708   0.297   0.564  0.1754 -0.8533  0.0948
13997TIP3    H163482   5.648   0.352   0.614  1.9573 -1.5361  3.2068
13997TIP3    H263483   5.784   0.353   0.548 -0.2654 -0.7205 -1.7942
13998TIP3   OH263484   1.577   1.775   4.041  0.1531 -0.8372  0.0318
13998TIP3    H163485   1.649   1.723   4.076  0.0906 -1.0199 -0.1108
13998TIP3    H263486   1.513   1.779   4.112 -0.6050 -2.3988 -0.5175
13999TIP3   OH263487   0.113   2.534   3.490 -0.1391 -0.1272  0.6209
13999TIP3    H163488   0.150   2.453   3.527  2.5588  0.7579  0.0926
13999TIP3    H263489   0.143   2.535   3.400 -1.2029  0.8838  0.2577
14000TIP3   OH263490   2.604   5.846  12.702 -0.2777 -0.7883  0.2370
14000TIP3    H163491   2.528   5.823  12.755 -0.8136  0.1867 -0.0863
14000TIP3    H263492   2.584   5.932  12.666  0.7411 -0.7545 -0.3107
14001TIP3   OH263493   0.109   6.590  14.395  0.2097 -0.5856 -0.2367
14001TIP3    H163494   0.163   6.634  14.330  0.8607 -2.0770 -0.7277
14001TIP3    H263495   0.034   6.649  14.408  0.8858  0.4944 -1.1050
14002TIP3   OH263496   1.375   0.783  14.519  0.1779 -0.0312  0.1037
14002TIP3    H163497   1.315   0.720  14.559  0.0488 -0.0229 -0.0803
14002TIP3    H263498   1.457   0.734  14.508 -0.0708 -0.3166 -0.4996
14003TIP3   OH263499   1.090   2.647  11.847  0.6685 -0.2955  0.0896
14003TIP3    H163500   1.062   2.725  11.895  1.4174 -0.5563  0.9778
14003TIP3    H263501   1.034   2.645  11.769 -0.8490 -0.0711  1.1348
14004TIP3   OH263502   6.389   6.340   5.783  0.0104 -0.1950 -0.0030
14004TIP3    H163503   6.448   6.391   5.727  1.1400 -1.4403  0.0149
14004TIP3    H263504   6.399   6.380   5.870  0.5022 -0.1321 -0.0863
14005TIP3   OH263505   4.330   0.831  11.067 -0.2950  0.1366 -0.5544
14005TIP3    H163506   4.340   0.915  11.113 -2.5459 -0.4541  1.1990
14005TIP3    H263507   4.410   0.823  11.015  0.0915  3.2812 -0.6830
14006TIP3   OH263508   1.443   3.716  13.876 -0.1885  0.4768 -0.4793
14006TIP3    H163509   1.479   3.780  13.937 -1.3024  1.0119 -0.3631
14006TIP3    H263510   1.371   3.674  13.925 -0.0496 -0.2313 -0.8653
14007TIP3   OH263511   5.048   0.864  14.861  0.0757 -0.7772  0.2945
14007TIP3    H163512   5.061   0.949  14.903 -1.4091 -0.1446 -0.4332
14007TIP3    H263513   5.134   0.841  14.826  0.2574  1.0201 -0.5388
14008TIP3   OH263514   1.772   2.993   3.679 -0.3453  0.1552 -0.5202
14008TIP3    H163515   1.799   2.919   3.734 -2.1106 -1.1391 -1.3005
14008TIP3    H263516   1.705   2.957   3.621  1.2600  1.4933 -3.4384
14009TIP3   OH263517   3.505   3.607  11.699  0.1795  0.2662 -0.2125
14009TIP3    H163518   3.586   3.558  11.709  0.5112  1.1749  2.0993
14009TIP3    H263519   3.527   3.678  11.638  1.3274  0.8329  0.8179
14010TIP3   OH263520   0.474   1.635  13.076  0.1487 -0.2785  0.0541
14010TIP3    H163521   0.478   1.683  13.159 -0.7503  1.5548 -0.9173
14010TIP3    H263522   0.512   1.549  13.097  2.5633  1.0750  1.6647
14011TIP3   OH263523   2.099   1.150  15.502 -0.1140 -0.0270 -0.0865
14011TIP3    H163524   2.166   1.117  15.561  1.8500  1.5955 -1.2902
14011TIP3    H263525   2.061   1.072  15.462  2.0180 -0.9780 -0.3518
14012TIP3   OH263526   6.687   3.281   0.458 -0.2305 -0.4123 -0.5387
14012TIP3    H163527   6.779   3.286   0.485 -0.7272  1.9229  0.9739
14012TIP3    H263528   6.651   3.207   0.507  0.2956  0.1560  0.7367
14013TIP3   OH263529   2.595   0.032  11.684  0.4739  0.6092 -0.4072
14013TIP3    H163530   2.679  -0.011  11.670  0.9467  1.4087 -0.1268
14013TIP3    H263531   2.530  -0.031  11.653  1.1450 -0.2160 -0.1735
14014TIP3   OH263532   5.124   4.906   2.194  0.0514  0.0638  0.3326
14014TIP3    H163533   5.082   4.891   2.278 -0.9955 -2.1548 -0.5010
14014TIP3    H263534   5.074   4.852   2.132  0.1951  2.3186 -1.9161
14015TIP3   OH263535   0.792   6.215  13.231  0.0450 -0.1586  0.0962
14015TIP3    H163536   0.848   6.191  13.157 -0.3491 -1.9827  0.3486
14015TIP3    H263537   0.850   6.264  13.289  0.7428  0.0490 -0.7489
14016TIP3   OH263538   1.075   6.098  11.404 -0.3859  0.0724  0.2943
14016TIP3    H163539   1.046   6.165  11.466  2.7644 -0.0075  2.0472
14016TIP3    H263540   0.995   6.050  11.383 -2.0029  1.5638  2.4866
14017TIP3   OH263541   4.577   5.075   2.615  0.3330  0.4955 -0.1486
14017TIP3    H163542   4.626   5.032   2.685 -0.5736 -0.2453  0.0525
14017TIP3    H263543   4.485   5.064   2.640  0.0193  0.8504 -1.0962
14018TIP3   OH263544   0.056   3.980   0.058  0.0700  1.0488 -0.4367
14018TIP3    H163545   0.082   4.057   0.108  1.0028  1.0263 -0.8794
14018TIP3    H263546   0.113   3.910   0.089  0.4089  0.9491 -1.2719
14019TIP3   OH263547   1.176   6.301  15.514 -0.1376 -0.0152  0.1227
14019TIP3    H163548   1.082   6.319  15.508 -0.3193 -0.5426  1.1108
14019TIP3    H263549   1.216   6.386  15.531 -0.5070  0.1241  0.3082
14020TIP3   OH263550   6.375   1.542   5.658 -0.3635 -0.9006  0.0935
14020TIP3    H163551   6.402   1.451   5.649  1.6133 -0.2256 -1.8408
14020TIP3    H263552   6.313   1.556   5.587  0.6551 -0.3700 -0.7360
14021TIP3   OH263553   0.590   1.733   5.112  0.0230 -0.0590  0.0282
14021TIP3    H163554   0.619   1.654   5.158  3.0005  0.7043 -0.3164
14021TIP3    H263555   0.586   1.800   5.181 -2.9784 -0.5109  0.4130
14022TIP3   OH263556   5.041   0.260   0.562  0.4965  0.1345  0.2553
14022TIP3    H163557   5.075   0.321   0.627  1.2835  0.5373 -0.5122
14022TIP3    H263558   5.029   0.178   0.610  2.8283 -0.1208  0.5494
14023TIP3   OH263559   1.545   0.853   4.349 -0.1418  0.3744 -0.0401
14023TIP3    H163560   1.532   0.800   4.270 -0.4585 -2.3281  1.6830
14023TIP3    H263561   1.479   0.821   4.410  2.4961 -0.4436  2.6231
14024TIP3   OH263562   6.785   2.837  12.985 -0.5690  0.3050 -0.0580
14024TIP3    H163563   6.719   2.801  13.044 -1.7187  0.9224 -0.9391
14024TIP3    H263564   6.769   2.792  12.902  1.7665 -1.4234  0.3077
14025TIP3   OH263565   1.904   0.069  11.380 -0.1205  0.0258  0.3440
14025TIP3    H163566   1.852  -0.004  11.413 -0.0552  0.0692  0.5437
14025TIP3    H263567   1.954   0.032  11.307 -1.3360  0.2664 -0.6456
14026TIP3   OH263568   0.149   5.164   1.783  0.4922  0.4816  0.3877
14026TIP3    H163569   0.137   5.087   1.839  1.3789 -0.1066 -0.2116
14026TIP3    H263570   0.226   5.208   1.820  0.6765  0.4515  0.0413
14027TIP3   OH263571   3.391   1.186  12.622 -0.4471  0.8422 -0.0317
14027TIP3    H163572   3.445   1.141  12.557  1.4026  0.0089  1.9705
14027TIP3    H263573   3.417   1.277  12.616  1.3910  0.4358  0.9985
14028TIP3   OH263574   5.525   0.911  16.036 -0.0563  0.0418 -0.6294
14028TIP3    H163575   5.557   0.853  15.968 -0.1816  0.6698 -1.2371
14028TIP3    H263576   5.486   0.985  15.989 -2.9961 -0.9483  0.0460
14029TIP3   OH263577   5.495   2.694   6.326  0.2789 -0.1560  0.4299
14029TIP3    H163578   5.424   2.752   6.297 -0.2697 -0.0651  1.8689
14029TIP3    H263579   5.567   2.753   6.346  0.3544 -0.1389  0.1083
14030TIP3   OH263580   1.007   6.057   5.005  0.3655 -0.2122 -0.1585
14030TIP3    H163581   0.939   6.044   4.938  0.9750 -1.8768 -0.5000
14030TIP3    H263582   1.045   6.142   4.985 -1.5361  0.7452 -0.0047
14031TIP3   OH263583   0.267   4.870  11.272 -0.0866  0.1871  0.5153
14031TIP3    H163584   0.287   4.863  11.365 -1.5692  1.5984  0.9936
14031TIP3    H263585   0.222   4.788  11.251  1.5793 -0.7947  0.6316
14032TIP3   OH263586   0.399   6.507  14.656 -0.1546  0.5785 -0.6923
14032TIP3    H163587   0.489   6.539  14.650 -0.0939  0.5663  0.0224
14032TIP3    H263588   0.391   6.444  14.585  0.6962 -0.1125 -0.1920
14033TIP3   OH263589   1.518   1.118   5.647 -0.2062  0.2590  0.0521
14033TIP3    H163590   1.597   1.080   5.686  0.0102 -0.0628 -0.6880
14033TIP3    H263591   1.539   1.211   5.636 -0.6128  0.5578  1.5533
14034TIP3   OH263592   3.219   2.974   5.610  0.3790 -0.2735  0.2547
14034TIP3    H163593   3.270   2.895   5.624  0.6640  0.0490  1.0414
14034TIP3    H263594   3.262   3.041   5.662  0.1088  0.3965 -0.3640
14035TIP3   OH263595   3.419   2.213  12.639 -0.5377 -0.5434  0.1555
14035TIP3    H163596   3.500   2.164  12.650  0.4064  0.5179 -1.6143
14035TIP3    H263597   3.408   2.261  12.721  1.0675 -0.1225  0.1577
14036TIP3   OH263598   1.167   5.319  15.410 -0.3597 -0.1184 -0.4876
14036TIP3    H163599   1.174   5.393  15.471  1.8273  0.6563 -1.5834
14036TIP3    H263600   1.146   5.244  15.467 -0.1260  0.8699  0.9730
14037TIP3   OH263601   2.916   6.373   4.630 -0.0065 -0.0512  0.3262
14037TIP3    H163602   2.919   6.461   4.594  0.4680 -0.1001  0.2303
14037TIP3    H263603   3.005   6.358   4.662  0.3700 -1.0897 -1.0942
14038TIP3   OH263604   1.187   2.725   1.172  0.2561  0.0404  0.2196
14038TIP3    H163605   1.242   2.647   1.164  0.7593  0.2294  1.5863
14038TIP3    H263606   1.132   2.724   1.093  1.7631 -0.4907 -0.8759
14039TIP3   OH263607   1.562   3.922   0.307  0.3308 -0.0792  0.2899
14039TIP3    H163608   1.521   3.982   0.244 -0.8419  0.7081  1.7326
14039TIP3    H263609   1.501   3.849   0.314  0.4382 -0.1470  0.5316
14040TIP3   OH263610   3.053   6.581   2.640  0.1660  0.6352  0.0515
14040TIP3    H163611   2.989   6.547   2.577  0.6455 -1.4394  0.5795
14040TIP3    H263612   3.135   6.540   2.615  0.8721  1.6814  0.5983
14041TIP3   OH263613   2.835   3.454  11.783  0.3179 -0.0365 -0.1634
14041TIP3    H163614   2.827   3.516  11.711 -1.1826 -1.9965 -1.8167
14041TIP3    H263615   2.747   3.448  11.819  0.8999  0.3390  1.3624
14042TIP3   OH263616   6.549   4.504   5.828 -0.7633 -0.4953 -0.8408
14042TIP3    H163617   6.499   4.443   5.772 -2.7416 -0.0631  0.3540
14042TIP3    H263618   6.492   4.518   5.903  1.3268 -0.1326  0.7387
14043TIP3   OH263619   6.669   5.807  13.561  0.1939  0.1414 -0.0174
14043TIP3    H163620   6.730   5.881  13.562 -0.5503  0.7986 -1.3011
14043TIP3    H263621   6.716   5.737  13.515  1.1467 -0.4536  1.7612
14044TIP3   OH263622   6.426   0.069   5.794 -0.3647  0.3671  0.2051
14044TIP3    H163623   6.392  -0.015   5.765  1.0988  0.1972 -1.1627
14044TIP3    H263624   6.520   0.055   5.803 -0.1107  1.8097  0.0443
14045TIP3   OH263625   4.038   4.083  10.618  0.3676  0.3890 -0.3578
14045TIP3    H163626   3.989   4.055  10.541 -0.2770  0.5007  0.0014
14045TIP3    H263627   4.003   4.029  10.689 -1.7701  2.8664  0.6030
14046TIP3   OH263628   5.569   2.988  16.818 -0.2869  0.1265  0.0017
14046TIP3    H163629   5.477   2.962  16.816 -0.0110 -0.8824 -0.2821
14046TIP3    H263630   5.616   2.909  16.792  0.9589 -0.9403  4.5507
14047TIP3   OH263631   5.213   0.273   5.996 -0.1784 -0.3606  0.6927
14047TIP3    H163632   5.290   0.285   6.052 -1.3612 -0.4774  2.4349
14047TIP3    H263633   5.164   0.355   6.004 -0.3807 -0.3831 -0.1885
14048TIP3   OH263634   6.140   3.415   5.342  0.5521  0.0146  0.0644
14048TIP3    H163635   6.210   3.462   5.386  1.0917  2.1770 -2.8018
14048TIP3    H263636   6.145   3.445   5.251 -1.7412 -2.5967 -1.0516
14049TIP3   OH263637   6.047   1.964  10.725 -0.4329  0.1130 -0.4974
14049TIP3    H163638   6.084   2.019  10.656  0.0625 -0.6653 -0.8604
14049TIP3    H263639   5.954   1.986  10.726 -0.2104  1.0989 -0.5004
14050TIP3   OH263640   5.866   5.246  15.582 -0.5668  0.0798  0.1172
14050TIP3    H163641   5.835   5.193  15.655  1.1762 -1.2061 -0.0151
14050TIP3    H263642   5.786   5.281  15.542 -1.6308 -0.4184  1.7012
14051TIP3   OH263643   3.206   4.972   5.853  0.1121  0.2863  0.1256
14051TIP3    H163644   3.279   4.957   5.913 -0.5215 -0.1088  0.8166
14051TIP3    H263645   3.184   4.885   5.821 -0.2499  0.3699  0.1492
14052TIP3   OH263646   3.702   2.413   2.935 -0.5496  0.8763  0.3655
14052TIP3    H163647   3.620   2.398   2.983 -0.3614 -0.3450  0.3317
14052TIP3    H263648   3.753   2.334   2.949 -0.0430  0.9424 -0.9802
14053TIP3   OH263649   4.382   3.406   1.558 -0.0493  0.4151  0.5983
14053TIP3    H163650   4.410   3.335   1.500  0.5617  1.9013 -0.9937
14053TIP3    H263651   4.463   3.441   1.594 -0.3402  0.4822  1.2120
14054TIP3   OH263652   4.864   5.173   3.631 -0.2949  0.0469 -0.5024
14054TIP3    H163653   4.856   5.222   3.712 -1.3468  1.9183 -1.6832
14054TIP3    H263654   4.954   5.188   3.603 -0.1861  0.0985 -0.1356
14055TIP3   OH263655   1.747   4.902   5.636 -0.8252  0.8634  0.3171
14055TIP3    H163656   1.726   4.922   5.727  0.9020 -1.1201  1.2157
14055TIP3    H263657   1.819   4.960   5.614 -2.4328  2.6878 -0.4925
14056TIP3   OH263658   0.633   0.485   4.120 -0.1285  0.4968  0.4102
14056TIP3    H163659   0.567   0.418   4.139  0.0220  0.4674  0.8288
14056TIP3    H263660   0.582   0.566   4.108 -0.4087  0.1296 -1.1055
14057TIP3   OH263661   6.342   3.989  15.080 -0.9729  0.2228 -0.4827
14057TIP3    H163662   6.427   3.946  15.086 -0.5828  0.7554 -1.8492
14057TIP3    H263663   6.314   4.000  15.171  0.3173 -0.1366 -0.0217
14058TIP3   OH263664   2.848   3.869   2.742 -0.8072  0.0314  0.1065
14058TIP3    H163665   2.811   3.948   2.703  1.0211  0.0988 -1.6548
14058TIP3    H263666   2.929   3.898   2.783  1.6246 -1.2714 -3.3390
14059TIP3   OH263667   3.855   3.858  14.051  0.0321 -0.2675  0.1591
14059TIP3    H163668   3.783   3.917  14.074 -0.8184 -1.1048 -0.2978
14059TIP3    H263669   3.842   3.841  13.957  0.8659 -0.3787  0.0619
14060TIP3   OH263670   3.496   4.652   3.613  0.1710 -0.3270  0.3604
14060TIP3    H163671   3.405   4.622   3.612 -0.1867  0.6944 -0.2974
14060TIP3    H263672   3.530   4.629   3.526  0.7311 -1.2250  0.8090
14061TIP3   OH263673   3.369   1.721  14.947 -0.2181  0.0975  0.0461
14061TIP3    H163674   3.454   1.687  14.976 -0.0648 -0.3731 -0.8780
14061TIP3    H263675   3.386   1.753  14.858 -0.6890  1.3375  0.3910
14062TIP3   OH263676   2.648   2.072  13.684 -0.2018 -0.4041 -0.5677
14062TIP3    H163677   2.687   2.000  13.734 -1.4878 -0.9963 -0.3706
14062TIP3    H263678   2.570   2.033  13.643 -0.0240  0.4630 -1.7941
14063TIP3   OH263679   1.038   5.083  11.809 -0.1505 -0.4737  0.2524
14063TIP3    H163680   1.098   5.081  11.883 -0.0511  1.0662  0.2493
14063TIP3    H263681   1.074   5.151  11.751 -0.7001 -1.0522 -0.7889
14064TIP3   OH263682   5.858   1.366  14.685 -0.2528 -1.2713 -0.2734
14064TIP3    H163683   5.913   1.414  14.623 -0.3547 -1.1161 -0.2458
14064TIP3    H263684   5.892   1.390  14.771 -0.1863 -1.3932 -0.2664
14065TIP3   OH263685   4.873   0.908  11.840  0.7538  0.1160  0.3559
14065TIP3    H163686   4.803   0.860  11.798 -0.0136  0.4719  1.1942
14065TIP3    H263687   4.829   0.964  11.904  1.7935  0.3891  0.8579
14066TIP3   OH263688   2.128   4.102   0.802  0.3258 -0.0098  0.2791
14066TIP3    H163689   2.176   4.032   0.846  0.2596  0.3106  0.8628
14066TIP3    H263690   2.114   4.069   0.713 -1.2458 -1.5082  1.0254
14067TIP3   OH263691   0.089   1.116   4.823 -0.0859  0.2573 -0.0299
14067TIP3    H163692   0.056   1.101   4.911  0.9049 -1.5166  0.0968
14067TIP3    H263693   0.070   1.208   4.805 -0.4511  0.6159  1.9602
14068TIP3   OH263694   3.995   2.103  12.915  0.1663 -0.4738 -0.1993
14068TIP3    H163695   4.072   2.161  12.910  0.2522 -0.6513 -1.5207
14068TIP3    H263696   4.004   2.047  12.837 -0.9462 -0.9542  0.0117
14069TIP3   OH263697   4.628   3.863   2.307  0.7086 -0.3415  0.2238
14069TIP3    H163698   4.543   3.890   2.343  0.2770 -1.3935  0.0324
14069TIP3    H263699   4.652   3.933   2.246  0.2641  0.2553  0.7328
14070TIP3   OH263700   0.641   0.338  10.550  0.6226  0.3116  0.2746
14070TIP3    H163701   0.592   0.296  10.478 -1.5271  0.7551  1.3895
14070TIP3    H263702   0.619   0.285  10.627  1.0847  1.1473  0.9930
14071TIP3   OH263703   2.229   5.734  16.184 -0.5852 -0.1887 -0.1987
14071TIP3    H163704   2.161   5.727  16.116  1.0862  1.2243 -2.1555
14071TIP3    H263705   2.246   5.828  16.191  0.0996 -0.4000  1.3940
14072TIP3   OH263706   5.513   4.213   5.603 -0.8094  0.0487  0.1809
14072TIP3    H163707   5.595   4.178   5.569 -1.2611 -0.5233 -0.3315
14072TIP3    H263708   5.446   4.176   5.547 -1.4639  0.1464  0.8878
14073TIP3   OH263709   0.505   5.271  13.930 -0.3457  0.1738  0.1210
14073TIP3    H163710   0.554   5.241  13.854 -0.5216 -0.3336  0.2084
14073TIP3    H263711   0.414   5.276  13.901 -0.4949 -0.5259  0.4374
14074TIP3   OH263712   1.458   1.235  16.842 -0.6652 -0.3474 -0.3500
14074TIP3    H163713   1.491   1.325  16.845  0.8934 -0.8476 -1.2289
14074TIP3    H263714   1.394   1.235  16.771  0.7724 -0.3327 -1.7096
14075TIP3   OH263715   0.305   0.447   2.709 -0.2552 -0.1900 -0.5564
14075TIP3    H163716   0.211   0.445   2.696 -0.3225  0.9254 -0.3819
14075TIP3    H263717   0.317   0.486   2.796  0.3665 -0.1835 -0.6369
14076TIP3   OH263718   1.053   2.156  12.447  0.1952 -0.1503  0.2965
14076TIP3    H163719   1.052   2.070  12.407 -1.2245 -1.2144  2.4341
14076TIP3    H263720   1.007   2.145  12.530 -1.2314  2.9594  0.0600
14077TIP3   OH263721   1.914   3.521   4.561 -0.3932  0.3861 -0.1385
14077TIP3    H163722   1.982   3.526   4.627 -0.3513 -0.1253 -0.1349
14077TIP3    H263723   1.959   3.492   4.482 -0.4881  0.7357 -0.3224
14078TIP3   OH263724   0.447   1.581   2.083 -0.4056  0.5038  0.6312
14078TIP3    H163725   0.493   1.584   1.999  0.8703  0.5915  1.3090
14078TIP3    H263726   0.425   1.489   2.095  0.3943  0.3137  0.6998
14079TIP3   OH263727   6.327   0.285  11.540  0.0418 -0.0315 -0.1233
14079TIP3    H163728   6.305   0.249  11.626  0.1247 -3.4947 -1.3692
14079TIP3    H263729   6.275   0.232  11.478  1.0609  1.3489 -2.2862
14080TIP3   OH263730   6.271   4.357  14.528  0.6835  0.4092  0.2952
14080TIP3    H163731   6.283   4.381  14.436  0.2763  0.3931  0.2399
14080TIP3    H263732   6.325   4.420  14.575  3.2882 -1.3531 -0.1076
14081TIP3   OH263733   0.657   5.578   0.016  0.9137 -0.0903  0.6371
14081TIP3    H163734   0.641   5.549   0.106  1.0024 -0.8073  0.4251
14081TIP3    H263735   0.610   5.661   0.010  2.3833  0.8866  1.8767
14082TIP3   OH263736   5.024   4.737  11.652  0.4192 -0.5384  0.6180
14082TIP3    H163737   4.941   4.769  11.687 -1.4529 -2.6283 -1.6224
14082TIP3    H263738   5.040   4.654  11.698  0.4184 -0.9469 -0.1161
14083TIP3   OH263739   5.664   5.846   2.376 -0.0992 -0.1551  0.2479
14083TIP3    H163740   5.755   5.870   2.392 -0.1169 -0.5207  0.9187
14083TIP3    H263741   5.631   5.915   2.319  0.0219  1.1155  1.6476
14084TIP3   OH263742   6.070   4.726  16.157  0.0785  0.2877 -0.3227
14084TIP3    H163743   6.005   4.751  16.092  0.2330  0.5498 -0.3774
14084TIP3    H263744   6.134   4.674  16.108 -0.2706 -0.2673 -0.1965
14085TIP3   OH263745   3.059   5.438  11.620 -0.1159  0.0317 -0.2141
14085TIP3    H163746   3.131   5.403  11.567  0.3663  0.3152  0.2367
14085TIP3    H263747   3.022   5.362  11.664  1.9311  0.1897  1.9885
14086TIP3   OH263748   2.840   3.695  14.210 -0.7607 -0.7260 -0.0867
14086TIP3    H163749   2.795   3.720  14.291 -1.0979  0.4904 -0.6329
14086TIP3    H263750   2.926   3.736  14.217 -0.3223 -1.6594  0.1994
14087TIP3   OH263751   3.033   4.904  15.180 -0.4033  0.1787 -0.0487
14087TIP3    H163752   3.020   4.999  15.182  0.6048  0.5026 -2.9467
14087TIP3    H263753   3.019   4.881  15.088  0.0363 -2.3922  0.4667
14088TIP3   OH263754   6.820   0.902   0.588 -0.4093 -0.1013  0.0416
14088TIP3    H163755   6.779   0.867   0.667 -0.7465 -1.0408 -0.5416
14088TIP3    H263756   6.752   0.896   0.521  0.8516 -2.4293 -1.1447
14089TIP3   OH263757   3.544   1.924  13.312 -0.1327  0.4036  0.2621
14089TIP3    H163758   3.540   1.876  13.394 -0.2015  0.8516  0.5285
14089TIP3    H263759   3.630   1.904  13.276 -0.6634 -0.9672 -0.2964
14090TIP3   OH263760   3.290   4.809   2.555  0.6179 -0.1526 -0.6736
14090TIP3    H163761   3.227   4.837   2.488  1.9698 -0.1431 -1.9883
14090TIP3    H263762   3.267   4.861   2.632 -2.7745 -2.1547 -0.1623
14091TIP3   OH263763   5.168   3.606  13.562  0.0709 -0.7347  0.6095
14091TIP3    H163764   5.217   3.669  13.615  1.7405  1.1505 -2.7833
14091TIP3    H263765   5.080   3.642  13.556  0.0539 -0.6138  1.5308
14092TIP3   OH263766   0.395   3.302  14.049  0.4108  0.2377  0.0964
14092TIP3    H163767   0.461   3.313  14.118  1.1445 -2.1039 -0.1782
14092TIP3    H263768   0.443   3.314  13.967 -0.3032  2.2089 -0.0954
14093TIP3   OH263769   5.831   5.602  14.009  0.0203 -0.5162 -0.3751
14093TIP3    H163770   5.876   5.618  13.926  1.5707  3.2628  0.9676
14093TIP3    H263771   5.895   5.627  14.076 -1.8702 -1.4883  1.9434
14094TIP3   OH263772   6.127   0.640  10.932  0.1454  0.2115 -0.2881
14094TIP3    H163773   6.162   0.678  11.012 -0.7986 -2.0401  1.2726
14094TIP3    H263774   6.205   0.616  10.881  0.7981 -0.1615  0.8581
14095TIP3   OH263775   0.284   1.581  13.635  0.2679 -0.3464  0.1508
14095TIP3    H163776   0.287   1.591  13.540 -1.1975  1.6879  0.2624
14095TIP3    H263777   0.238   1.498  13.648 -0.4687 -0.1306 -0.9192
14096TIP3   OH263778   0.251   6.792  13.634  0.3172 -0.1215  0.2670
14096TIP3    H163779   0.236   6.884  13.656  2.4521  0.2218  0.4366
14096TIP3    H263780   0.208   6.743  13.704 -1.9840  0.6545 -0.5092
14097TIP3   OH263781   0.271   4.694   3.396  0.1032  0.4168 -0.3485
14097TIP3    H163782   0.349   4.749   3.391  0.1448  0.3457 -0.4965
14097TIP3    H263783   0.236   4.710   3.483  0.7096 -0.1329  0.0054
14098TIP3   OH263784   3.980   6.016   5.096 -0.7965  0.3864 -0.0291
14098TIP3    H163785   4.034   5.958   5.043 -0.7505  0.8027 -0.4444
14098TIP3    H263786   3.951   5.962   5.170 -2.0594 -0.6482 -1.2292
14099TIP3   OH263787   1.171   5.519  13.897 -0.4334  0.0609  0.1097
14099TIP3    H163788   1.230   5.457  13.854  0.3942  0.1192  1.1175
14099TIP3    H263789   1.195   5.604  13.858 -0.1485  0.0225  0.1957
14100TIP3   OH263790   6.222   5.039  15.407  0.6152  0.2960  0.7252
14100TIP3    H163791   6.294   5.000  15.358 -1.0246  1.0820 -2.6239
14100TIP3    H263792   6.152   4.973  15.403 -0.3782  1.3681 -0.2807
14101TIP3   OH263793   1.852   2.575   1.290 -0.3523  0.4126  0.6053
14101TIP3    H163794   1.899   2.633   1.229 -0.6703 -0.0749 -0.1207
14101TIP3    H263795   1.847   2.625   1.372  0.0909  1.0818  0.2356
14102TIP3   OH263796   1.868   6.655  14.282  0.1177  0.1823  0.1975
14102TIP3    H163797   1.944   6.706  14.309  0.5354 -0.6777  0.6950
14102TIP3    H263798   1.810   6.718  14.240  1.3276  0.7610 -0.6652
14103TIP3   OH263799   1.729   2.057  15.456 -0.0250  0.4701 -0.2139
14103TIP3    H163800   1.701   2.004  15.530  0.7583 -1.3256 -1.1443
14103TIP3    H263801   1.819   2.029  15.439 -0.5390 -0.0117 -2.5266
14104TIP3   OH263802   0.327   0.805  11.568  0.5532 -0.4180 -0.0243
14104TIP3    H163803   0.364   0.814  11.656 -1.2379  2.5759  0.5570
14104TIP3    H263804   0.241   0.766  11.582 -0.7944  2.2890  0.0056
14105TIP3   OH263805   5.726   0.948  13.197 -0.0942  0.0168 -0.1795
14105TIP3    H163806   5.667   0.909  13.133 -0.0029 -0.9563  0.3091
14105TIP3    H263807   5.805   0.895  13.193  0.3954  0.7180 -0.1373
14106TIP3   OH263808   4.986   0.262  11.673  0.5354 -0.1269 -0.1123
14106TIP3    H163809   5.020   0.337  11.624 -1.4766  1.8527  1.3412
14106TIP3    H263810   5.047   0.250  11.745  1.1566 -0.2819 -0.6480
14107TIP3   OH263811   1.498   5.278   0.203  0.9046  0.6004 -0.3720
14107TIP3    H163812   1.452   5.361   0.212  0.9455  0.7464 -1.3557
14107TIP3    H263813   1.515   5.270   0.109  3.0348  0.6509 -0.0487
14108TIP3   OH263814   0.870   2.534   5.829 -0.8715 -0.0367 -0.1851
14108TIP3    H163815   0.965   2.523   5.834 -0.7991  0.5002 -0.3282
14108TIP3    H263816   0.836   2.444   5.825 -0.3343 -0.2151 -0.8343
14109TIP3   OH263817   5.994   4.751   2.874 -0.5366 -0.2898 -0.1692
14109TIP3    H163818   5.936   4.808   2.925 -0.5906  0.4434 -1.0173
14109TIP3    H263819   6.061   4.724   2.936 -0.4263  0.8428  0.2387
14110TIP3   OH263820   1.207   0.771  11.546  0.0380  0.0772  0.6372
14110TIP3    H163821   1.225   0.800  11.636 -0.4100 -0.9609  1.0852
14110TIP3    H263822   1.259   0.691  11.537 -0.4256 -0.1791  0.2060
14111TIP3   OH263823   2.131   4.808   2.550  0.4498 -0.1007  0.2081
14111TIP3    H163824   2.091   4.741   2.495  1.9004 -0.4116 -0.5040
14111TIP3    H263825   2.168   4.760   2.623 -0.5182  0.2008  0.9228
14112TIP3   OH263826   3.485   1.881  11.096 -0.1893 -0.1500 -0.2947
14112TIP3    H163827   3.454   1.840  11.015 -0.3975  1.0200 -0.8209
14112TIP3    H263828   3.537   1.956  11.067 -0.4255  0.3982  0.6558
14113TIP3   OH263829   6.591   3.003  15.488 -0.4557 -0.0332  0.1866
14113TIP3    H163830   6.496   3.008  15.478 -0.3046 -0.3254 -1.6206
14113TIP3    H263831   6.614   2.918  15.452  0.5156  0.0909  0.4981
14114TIP3   OH263832   6.107   6.608  12.621  0.2278  0.1512 -0.3872
14114TIP3    H163833   6.050   6.662  12.566  1.6322  0.2012 -1.8782
14114TIP3    H263834   6.058   6.527  12.633 -0.7465  0.7192 -0.4258
14115TIP3   OH263835   5.827   1.665   3.754  0.5782  0.1193  0.1178
14115TIP3    H163836   5.855   1.692   3.667 -0.1095 -0.4608 -0.2886
14115TIP3    H263837   5.798   1.745   3.797  0.7421  0.3756 -0.2510
14116TIP3   OH263838   3.709   6.522  15.785 -0.7377  0.5706  0.1269
14116TIP3    H163839   3.644   6.587  15.758 -0.5579  1.5900  1.9772
14116TIP3    H263840   3.714   6.461  15.711 -2.3271  1.5739 -0.8770
14117TIP3   OH263841   0.229   3.409   1.539 -0.2960 -0.1059  0.3103
14117TIP3    H163842   0.296   3.471   1.511  1.0669 -1.4893  0.3419
14117TIP3    H263843   0.151   3.432   1.488  0.8779  0.0812 -1.4750
14118TIP3   OH263844   6.154   3.548  11.094 -0.6132  0.0478 -0.4356
14118TIP3    H163845   6.187   3.520  11.008  1.0105 -2.6877  0.9377
14118TIP3    H263846   6.102   3.473  11.125 -0.3558  0.5640  1.3553
14119TIP3   OH263847   3.176   3.357   6.654  0.3140  0.5272  0.1908
14119TIP3    H163848   3.119   3.336   6.580 -1.5297 -0.0665  1.7133
14119TIP3    H263849   3.191   3.451   6.647  0.6720  0.3928 -1.2433
14120TIP3   OH263850   6.690   1.764   5.294 -0.2490 -0.3950 -0.9917
14120TIP3    H163851   6.619   1.757   5.358  2.0996  0.7210  1.9515
14120TIP3    H263852   6.723   1.853   5.305  0.9507 -0.5412 -3.0321
14121TIP3   OH263853   5.010   5.732   1.100 -0.3154 -0.1620 -0.2678
14121TIP3    H163854   4.999   5.827   1.092 -1.4507 -0.3916 -1.9368
14121TIP3    H263855   5.085   5.712   1.045  0.8144 -0.1046  1.1935
14122TIP3   OH263856   3.007   2.752   4.036 -0.0792  0.1488 -0.3973
14122TIP3    H163857   3.009   2.760   4.131  3.1178  0.7720 -0.4174
14122TIP3    H263858   3.063   2.676   4.016  0.4598  0.8751 -1.8141
14123TIP3   OH263859   5.308   3.571  15.283  0.0314 -0.0251 -0.0248
14123TIP3    H163860   5.382   3.562  15.343  0.4592  0.4257 -0.4814
14123TIP3    H263861   5.315   3.494  15.226  0.0281 -0.0864  0.0563
14124TIP3   OH263862   5.118   1.358  12.351 -0.3144  0.3154 -0.3742
14124TIP3    H163863   5.092   1.315  12.270 -0.7694  0.8553 -0.5124
14124TIP3    H263864   5.136   1.449  12.326  2.0703 -0.0790 -0.3765
14125TIP3   OH263865   3.598   2.663  11.158 -0.2881 -0.1312 -0.1614
14125TIP3    H163866   3.581   2.623  11.073  0.3010  3.0389 -1.9547
14125TIP3    H263867   3.521   2.718  11.174 -0.0673 -0.1492  1.0234
14126TIP3   OH263868   5.694   5.503  17.178  0.7284 -0.0321 -0.0309
14126TIP3    H163869   5.637   5.435  17.142  0.6221 -0.8861  1.6417
14126TIP3    H263870   5.660   5.518  17.266  1.5783  1.2574  0.1045
14127TIP3   OH263871   6.810   6.393   2.608  0.2056 -0.5527  0.0847
14127TIP3    H163872   6.786   6.457   2.540 -0.0930 -2.4196 -1.6769
14127TIP3    H263873   6.875   6.439   2.662 -0.8497  1.6141 -0.3748
14128TIP3   OH263874   0.665   5.782  12.054  0.2958  0.0442 -0.1104
14128TIP3    H163875   0.661   5.878  12.047  1.1598  0.0665 -0.4638
14128TIP3    H263876   0.757   5.763  12.071  0.0605 -0.7074  0.3817
14129TIP3   OH263877   3.696   5.330  12.355  0.1312 -0.1867  0.4427
14129TIP3    H163878   3.670   5.239  12.364  0.9688 -0.6704 -1.5792
14129TIP3    H263879   3.614   5.378  12.347 -0.2735 -0.9387  0.0077
14130TIP3   OH263880   0.383   2.058   5.797  0.0469 -0.6563 -0.0580
14130TIP3    H163881   0.453   2.103   5.843  0.2064 -0.7173 -0.2414
14130TIP3    H263882   0.427   2.001   5.734 -0.1482 -1.2671  0.3512
14131TIP3   OH263883   3.037   5.975   1.946 -0.6906  0.2119  0.8251
14131TIP3    H163884   3.129   5.992   1.968 -0.7975  1.2319  0.5323
14131TIP3    H263885   3.003   5.927   2.021  0.4696 -1.5759  0.2696
14132TIP3   OH263886   2.210   5.145   5.604 -0.3688  0.8351 -0.0740
14132TIP3    H163887   2.294   5.183   5.630 -0.3247  1.0175 -0.4675
14132TIP3    H263888   2.233   5.075   5.543 -0.5221  1.2675 -0.6393
14133TIP3   OH263889   2.120   0.566  15.359 -0.3128 -0.0468 -0.2312
14133TIP3    H163890   2.177   0.518  15.298 -1.4353 -1.6441 -0.0723
14133TIP3    H263891   2.171   0.569  15.440  0.9005  1.4828 -0.9835
14134TIP3   OH263892   5.578   0.040  12.269  0.5981 -0.3640  0.0218
14134TIP3    H163893   5.505   0.066  12.212 -0.1432 -0.4636  0.9079
14134TIP3    H263894   5.618  -0.035  12.224  0.0637 -0.4078 -0.3962
14135TIP3   OH263895   0.484   3.838   2.175 -0.5712 -0.4777 -0.4324
14135TIP3    H163896   0.567   3.843   2.128 -0.9706  0.0090 -1.0992
14135TIP3    H263897   0.434   3.915   2.145 -0.7426 -0.0222  0.9600
14136TIP3   OH263898   0.061   0.574   2.450 -0.5528  0.4569  0.2822
14136TIP3    H163899   0.079   0.480   2.458 -0.2922  0.6163  1.9888
14136TIP3    H263900   0.141   0.611   2.415 -1.0025 -0.0611 -1.3737
14137TIP3   OH263901   1.737   0.551   0.962  0.0356  0.2362  0.0796
14137TIP3    H163902   1.787   0.471   0.973 -1.6539 -0.6615  1.7900
14137TIP3    H263903   1.682   0.535   0.886  0.1145 -0.0032  0.0726
14138TIP3   OH263904   6.507   1.662   0.187  0.4529  0.2989  0.5141
14138TIP3    H163905   6.413   1.661   0.165  0.5532 -2.0992 -0.1221
14138TIP3    H263906   6.545   1.723   0.124 -0.3484 -0.6766 -0.9851
14139TIP3   OH263907   4.514   1.237  14.617  0.0821 -0.1002 -0.6650
14139TIP3    H163908   4.490   1.299  14.548 -2.3998 -0.8953 -0.6101
14139TIP3    H263909   4.507   1.151  14.576  2.1030 -0.4535 -0.3484
14140TIP3   OH263910   1.093   2.828   0.300 -0.4602  0.0156 -0.2427
14140TIP3    H163911   1.091   2.923   0.312  0.9855  0.0879 -0.3966
14140TIP3    H263912   1.146   2.815   0.221 -0.0612 -0.9436  0.1641
14141TIP3   OH263913   0.407   4.802  12.599 -0.7591 -0.2696 -0.4373
14141TIP3    H163914   0.357   4.735  12.647  0.5718  0.4971  2.2311
14141TIP3    H263915   0.498   4.772  12.605 -0.3060  1.0483 -0.4640
14142TIP3   OH263916   3.717   4.248  15.414 -0.3732  0.9529  0.1361
14142TIP3    H163917   3.786   4.218  15.355 -0.7372 -1.4563  0.8374
14142TIP3    H263918   3.651   4.287  15.356 -0.5137 -0.9353 -1.0482
14143TIP3   OH263919   5.939   0.065   1.883 -0.5751 -0.1750  0.1724
14143TIP3    H163920   5.978   0.009   1.816 -0.8832 -1.0090  0.6675
14143TIP3    H263921   5.887   0.005   1.937  0.9812  0.1488  2.1683
14144TIP3   OH263922   5.794   2.888   4.177 -0.1769  0.3422  0.0762
14144TIP3    H163923   5.709   2.917   4.144 -1.2885 -1.7866  0.8253
14144TIP3    H263924   5.806   2.802   4.137  2.0274  0.9090 -0.6062
14145TIP3   OH263925   3.599   5.913   2.192 -0.5412 -0.0495  0.2647
14145TIP3    H163926   3.633   5.963   2.267  1.3128 -1.4808  0.4372
14145TIP3    H263927   3.609   5.972   2.117  0.2931  0.3803  0.6971
14146TIP3   OH263928   0.040   4.394  12.968  0.3545 -0.0265  0.4054
14146TIP3    H163929   0.035   4.352  12.882  0.9123 -1.1925  0.9209
14146TIP3    H263930   0.085   4.477  12.953 -1.0940  0.6100 -0.6962
14147TIP3   OH263931   1.283   2.998   0.115 -0.5526 -0.0811 -0.6113
14147TIP3    H163932   1.286   3.093   0.126  1.5296  0.2042 -2.7786
14147TIP3    H263933   1.209   2.983   0.056  0.9711  0.6227 -2.8292
14148TIP3   OH263934   1.980   3.611  16.424 -0.2437 -0.0728 -0.0580
14148TIP3    H163935   2.021   3.535  16.463  0.3353 -0.4428 -1.3357
14148TIP3    H263936   1.911   3.635  16.486 -0.5379 -1.7127  0.2981
14149TIP3   OH263937   6.378   0.583  16.702 -0.0998 -0.2767  0.1296
14149TIP3    H163938   6.384   0.490  16.723 -1.3884  0.2308  3.2123
14149TIP3    H263939   6.287   0.596  16.676 -0.2612  0.3058  0.9461
14150TIP3   OH263940   0.240   1.598  12.711 -0.5672  0.6570  0.5712
14150TIP3    H163941   0.299   1.620  12.639  0.6831  0.2137  1.4437
14150TIP3    H263942   0.204   1.512  12.687  1.4164 -0.4623  1.3998
14151TIP3   OH263943   1.740   6.037   3.977  0.0035  0.3080 -0.0965
14151TIP3    H163944   1.770   6.069   3.892  0.3239  1.0256  0.2783
14151TIP3    H263945   1.667   6.095   4.000  0.1765  0.3705  0.3010
14152TIP3   OH263946   1.093   6.390   1.262  0.6406 -0.5666  0.9049
14152TIP3    H163947   1.132   6.342   1.188  1.1253  1.1255  0.0166
14152TIP3    H263948   1.007   6.349   1.273  0.7293 -1.1464 -0.3176
14153TIP3   OH263949   1.981   4.119   2.315 -0.0223  0.0171 -0.5425
14153TIP3    H163950   1.920   4.182   2.276 -0.2804  0.1123  0.0127
14153TIP3    H263951   2.067   4.147   2.283  0.0003  1.3669  0.6109
14154TIP3   OH263952   5.147   5.408   3.183 -0.5257  0.1582  0.2506
14154TIP3    H163953   5.208   5.351   3.137  0.3377  0.1544  1.3737
14154TIP3    H263954   5.067   5.405   3.130 -0.3015 -1.6061 -0.0428
14155TIP3   OH263955   0.123   2.313   5.168 -0.2120 -0.0671  0.8082
14155TIP3    H163956   0.142   2.222   5.144  1.0798 -0.5782  3.4235
14155TIP3    H263957   0.139   2.362   5.087  0.2701 -2.0124 -0.3479
14156TIP3   OH263958   2.130   4.042   4.359 -0.4154  0.5460 -0.0931
14156TIP3    H163959   2.050   3.990   4.367 -0.2379  0.3981  0.7747
14156TIP3    H263960   2.149   4.042   4.265  0.6024 -2.5137 -0.0094
14157TIP3   OH263961   3.203   2.098   1.164 -0.5214  0.3345  0.0523
14157TIP3    H163962   3.238   2.176   1.209 -2.2375  0.1703  1.8414
14157TIP3    H263963   3.215   2.027   1.227 -2.6935  0.0130  0.2076
14158TIP3   OH263964   2.141   1.190  11.055  1.1088  0.5165 -0.0813
14158TIP3    H163965   2.100   1.208  10.970  0.3186  1.6152  0.5176
14158TIP3    H263966   2.097   1.249  11.116  1.5148 -0.4057  1.1457
14159TIP3   OH263967   0.085   2.946   1.573 -0.0748 -0.1809  0.0499
14159TIP3    H163968   0.033   2.971   1.649  1.2757 -0.7894  1.2062
14159TIP3    H263969   0.158   3.008   1.571  0.0630 -0.3485 -0.5799
14160TIP3   OH263970   1.674   1.319  16.440  0.0937 -0.0567 -0.0035
14160TIP3    H163971   1.766   1.337  16.423 -0.1055 -0.0003 -1.1031
14160TIP3    H263972   1.675   1.254  16.511  1.0252 -1.0541 -0.8792
14161TIP3   OH263973   3.881   3.478  15.135 -0.5499 -0.5907 -0.9833
14161TIP3    H163974   3.936   3.465  15.212  0.4803  3.6739 -0.7183
14161TIP3    H263975   3.799   3.513  15.169 -0.3178  0.7582 -1.7333
14162TIP3   OH263976   3.222   0.468  16.321  0.0917  0.1725 -0.3045
14162TIP3    H163977   3.226   0.389  16.375  1.7970  0.2334 -0.2891
14162TIP3    H263978   3.274   0.447  16.243  0.6973  1.3070 -0.2330
14163TIP3   OH263979   3.262   2.862   3.008 -0.2426 -0.2070  0.6958
14163TIP3    H163980   3.214   2.788   3.046 -0.9960  0.4552  1.0718
14163TIP3    H263981   3.250   2.851   2.913  0.7734 -1.2897  0.6679
14164TIP3   OH263982   3.620   0.551   3.679 -0.2851 -0.1894 -0.5625
14164TIP3    H163983   3.574   0.546   3.762  0.2045  0.3172 -0.2555
14164TIP3    H263984   3.559   0.512   3.615 -0.4736 -1.0057  0.0966
14165TIP3   OH263985   6.808   0.992  12.359  0.3087 -0.0418 -0.0441
14165TIP3    H163986   6.865   0.996  12.435 -1.0707 -0.6560  1.0656
14165TIP3    H263987   6.774   1.081  12.349 -0.2094 -0.1633  0.6241
14166TIP3   OH263988   4.802   2.352   2.852 -0.3605 -0.5811  0.3852
14166TIP3    H163989   4.848   2.422   2.805 -0.3471 -1.2295 -0.5861
14166TIP3    H263990   4.710   2.378   2.851 -0.2640 -0.2076  0.7035
14167TIP3   OH263991   4.855   1.116   3.334 -0.1383 -0.3802 -0.1629
14167TIP3    H163992   4.788   1.051   3.314 -0.9195  0.3402  0.0895
14167TIP3    H263993   4.854   1.175   3.258 -0.4929  0.2004  0.2861
14168TIP3   OH263994   6.419   0.839  13.257 -0.5491  0.1720 -0.4470
14168TIP3    H163995   6.344   0.797  13.215 -0.1134 -1.1857  0.0816
14168TIP3    H263996   6.478   0.860  13.185 -0.4996 -0.7226 -0.6834
14169TIP3   OH263997   5.898   3.346  15.214  0.3799 -0.2258  0.3540
14169TIP3    H163998   5.856   3.308  15.137 -0.3758 -0.3381  0.8120
14169TIP3    H263999   5.885   3.440  15.204  1.6621 -0.1103 -0.4381
14170TIP3   OH264000   0.331   0.555  13.945 -0.1719 -0.6545  0.5539
14170TIP3    H164001   0.336   0.472  13.898  2.1187 -0.6539  0.7082
14170TIP3    H264002   0.353   0.621  13.879  0.2264 -0.3923  0.9410
14171TIP3   OH264003   1.990   6.581  12.828 -0.1689  0.1572  0.4128
14171TIP3    H164004   1.984   6.647  12.897  0.7067 -1.3489  2.0085
14171TIP3    H264005   1.957   6.501  12.868 -0.9918 -0.4676 -1.3948
14172TIP3   OH264006   5.512   5.099  13.228  0.2951  0.5469 -0.1715
14172TIP3    H164007   5.600   5.062  13.218  0.2775  0.9584 -2.3450
14172TIP3    H264008   5.525   5.179  13.279  1.0696  0.2457  0.1109
14173TIP3   OH264009   5.654   0.017  11.160 -0.3492  0.0429  0.1660
14173TIP3    H164010   5.730   0.057  11.117  0.3208 -0.8281  0.4993
14173TIP3    H264011   5.659  -0.075  11.135 -0.9355 -0.1431  0.7291
14174TIP3   OH264012   3.179   2.082   4.691  0.2761  0.0091  0.0214
14174TIP3    H164013   3.165   1.987   4.685 -0.4501  0.1267 -0.2962
14174TIP3    H264014   3.225   2.094   4.775  1.6203 -0.7367 -0.5828
14175TIP3   OH264015   2.106   5.871   6.282  0.2192 -0.3680  0.4285
14175TIP3    H164016   2.016   5.893   6.306 -0.0994 -1.2175  0.0401
14175TIP3    H264017   2.150   5.955   6.274 -1.2235  0.2483 -2.1158
14176TIP3   OH264018   0.697   6.375   2.384  0.3288 -0.1053 -0.3959
14176TIP3    H164019   0.743   6.430   2.321  0.4293  0.4205  0.1264
14176TIP3    H264020   0.604   6.392   2.367  0.3629  0.9590  0.3758
14177TIP3   OH264021   2.594   4.962  15.097  0.3785  0.5763  0.0247
14177TIP3    H164022   2.572   5.043  15.052  2.3879  0.9499 -0.3337
14177TIP3    H264023   2.592   4.985  15.190 -0.4990  0.6361  0.0016
14178TIP3   OH264024   2.744   2.069   3.885  0.5055  0.4457 -0.5130
14178TIP3    H164025   2.715   2.014   3.958  1.3114  1.1028  0.3358
14178TIP3    H264026   2.831   2.035   3.864 -0.7586 -1.5170 -3.0318
14179TIP3   OH264027   4.210   5.489   3.947  0.3370 -0.3899  0.0296
14179TIP3    H164028   4.115   5.490   3.938  0.4783 -0.6233 -1.7189
14179TIP3    H264029   4.243   5.480   3.858  1.9542 -2.5006  0.7409
14180TIP3   OH264030   0.271   4.255   5.434  0.3166 -0.3036 -0.0809
14180TIP3    H164031   0.362   4.237   5.411  0.5201  0.5705 -0.0006
14180TIP3    H264032   0.271   4.257   5.530  0.6950  1.8845 -0.0744
14181TIP3   OH264033   5.786   6.698   4.083 -0.0042 -0.4690  0.5498
14181TIP3    H164034   5.806   6.605   4.091  0.6417 -0.2314  2.2226
14181TIP3    H264035   5.782   6.714   3.989 -1.8030 -2.5049  0.2032
14182TIP3   OH264036   4.398   1.229  16.536  0.0287  1.2702  0.3863
14182TIP3    H164037   4.360   1.174  16.605 -0.5248  0.4411 -0.5447
14182TIP3    H264038   4.492   1.222  16.549 -0.0681  1.0167  0.9845
14183TIP3   OH264039   5.723   0.703   4.082 -0.3220 -0.1288  0.2799
14183TIP3    H164040   5.705   0.636   4.016  0.1554  0.7086 -0.7288
14183TIP3    H264041   5.817   0.696   4.099 -0.4418 -0.3407  0.8837
14184TIP3   OH264042   4.886   0.044  13.087 -0.2893  0.0729  0.3769
14184TIP3    H164043   4.959   0.069  13.029  0.6175 -0.8527  1.0852
14184TIP3    H264044   4.902  -0.048  13.106 -0.9769  0.1867  1.5328
14185TIP3   OH264045   3.249   3.292  15.093  0.2092  0.4720  0.0493
14185TIP3    H164046   3.342   3.269  15.092 -0.3808 -2.3388  0.3395
14185TIP3    H264047   3.211   3.239  15.023 -1.4448  0.0033  1.2383
14186TIP3   OH264048   1.017   2.319  16.514  0.4979 -0.1448  0.0847
14186TIP3    H164049   0.995   2.270  16.593  0.4744  1.1465  0.9111
14186TIP3    H264050   1.112   2.326  16.516  0.4552  0.5280  0.4344
14187TIP3   OH264051   5.129   6.188  12.353  0.4630 -0.3221 -0.2290
14187TIP3    H164052   5.058   6.223  12.407  1.7621  1.7970  0.2051
14187TIP3    H264053   5.152   6.105  12.394 -2.0470 -1.3259 -0.6758
14188TIP3   OH264054   1.055   3.991  13.731  0.1088 -0.0831 -0.3852
14188TIP3    H164055   1.009   4.011  13.649 -0.5088 -0.5482 -0.1582
14188TIP3    H264056   1.031   4.063  13.790  1.6095  0.9798 -0.9932
14189TIP3   OH264057   2.230   5.302  16.628  0.0562 -0.2263 -0.0089
14189TIP3    H164058   2.216   5.361  16.703  0.3586  0.4786 -0.4955
14189TIP3    H264059   2.265   5.359  16.560 -1.4091 -0.6143 -1.1237
14190TIP3   OH264060   4.201   3.592   3.942  0.1093 -0.3576 -0.1028
14190TIP3    H164061   4.110   3.566   3.929  0.8352 -2.4501 -1.5861
14190TIP3    H264062   4.248   3.510   3.958  1.5036  0.8334  2.6435
14191TIP3   OH264063   0.281   1.675  12.260 -0.1858 -0.1116 -0.0800
14191TIP3    H164064   0.324   1.655  12.342 -1.2271 -0.3230  0.4264
14191TIP3    H264065   0.188   1.668  12.279 -0.4360 -0.7238 -1.4199
14192TIP3   OH264066   3.691   6.452   3.594  0.0239  0.3464 -0.6893
14192TIP3    H164067   3.663   6.538   3.625  1.5671  1.0256 -1.0673
14192TIP3    H264068   3.784   6.464   3.573  0.5293 -1.6817  0.2069
14193TIP3   OH264069   2.253   2.610  15.400  0.1701  0.4788 -0.6739
14193TIP3    H164070   2.324   2.673  15.387 -0.0608  1.2208  1.3305
14193TIP3    H264071   2.225   2.624  15.490 -0.9472 -1.4333 -0.6716
14194TIP3   OH264072   1.158   5.353   1.371  0.1766 -0.2679 -0.2286
14194TIP3    H164073   1.211   5.371   1.448  0.1962  1.4891 -0.6294
14194TIP3    H264074   1.169   5.259   1.356  0.6005 -0.5382  1.5733
14195TIP3   OH264075   6.823   2.904  15.717  0.1444  0.4740 -0.2860
14195TIP3    H164076   6.890   2.855  15.766  0.2955  0.1732 -0.7918
14195TIP3    H264077   6.859   2.912  15.629 -0.4884  0.3224 -0.5597
14196TIP3   OH264078   0.253   3.096   2.231  0.4096  0.2252 -0.0341
14196TIP3    H164079   0.193   3.145   2.174  0.8408 -0.4016 -1.0492
14196TIP3    H264080   0.294   3.163   2.286  0.5299  0.9394 -0.9688
14197TIP3   OH264081   2.932   2.153  15.785  0.4737 -0.2608  0.4038
14197TIP3    H164082   2.901   2.064  15.765  1.0656 -0.1597 -1.1581
14197TIP3    H264083   2.967   2.148  15.874  0.4012 -1.5688  0.3749
14198TIP3   OH264084   1.101   6.791   4.363 -0.2166 -0.1657  0.1986
14198TIP3    H164085   1.196   6.799   4.361 -0.1805 -0.4417 -2.0090
14198TIP3    H264086   1.072   6.829   4.280 -1.9274 -1.2550  0.2440
14199TIP3   OH264087   1.331   4.934  11.268  0.1732 -0.8408  0.1239
14199TIP3    H164088   1.386   4.864  11.232 -0.5392 -1.8475  0.9203
14199TIP3    H264089   1.328   4.916  11.362 -2.4402 -1.5287 -0.0239
14200TIP3   OH264090   4.687   0.719  15.040 -0.2763 -0.2242  0.4576
14200TIP3    H164091   4.774   0.677  15.040  0.9949  2.0781 -1.9818
14200TIP3    H264092   4.636   0.668  14.977 -0.4268 -1.0536  1.2357
14201TIP3   OH264093   0.362   6.096   0.257  0.4648  0.2587 -0.1600
14201TIP3    H164094   0.338   6.035   0.326 -0.0209  0.1477 -0.4159
14201TIP3    H264095   0.449   6.068   0.229  0.0854 -0.5758 -0.5501
14202TIP3   OH264096   2.719   2.678  11.931  0.6850  0.3690 -0.1913
14202TIP3    H164097   2.672   2.760  11.921 -0.2554 -0.1065  0.2651
14202TIP3    H264098   2.652   2.610  11.927  1.5392 -0.4475 -1.4595
14203TIP3   OH264099   2.174   4.721   4.295 -0.3213 -0.3673  0.0106
14203TIP3    H164100   2.145   4.637   4.260  0.8172 -0.8756  0.2221
14203TIP3    H264101   2.196   4.703   4.386  0.1382  0.0954 -0.0022
14204TIP3   OH264102   5.010   0.060  12.818  0.2453 -0.3291 -0.2041
14204TIP3    H164103   4.916   0.068  12.801  0.3602  1.1722 -0.2676
14204TIP3    H264104   5.046   0.146  12.797  1.6294 -0.8434 -0.0783
14205TIP3   OH264105   0.270   1.950   1.391 -0.1626 -0.5007  0.1656
14205TIP3    H164106   0.262   1.870   1.340 -1.0968 -0.8971  0.8893
14205TIP3    H264107   0.180   1.969   1.420  0.0209  0.8688 -0.0877
14206TIP3   OH264108   2.680   4.445  11.950 -0.6730 -0.1879 -0.0334
14206TIP3    H164109   2.587   4.445  11.930 -0.3020 -0.5233 -1.9380
14206TIP3    H264110   2.689   4.506  12.024 -2.1818  1.1342 -0.8883
14207TIP3   OH264111   5.906   5.710   5.712  0.3222 -0.1841 -0.6550
14207TIP3    H164112   5.994   5.737   5.737  0.1743  0.7581 -1.1134
14207TIP3    H264113   5.914   5.680   5.621  0.2903 -0.7452 -0.4794
14208TIP3   OH264114   2.297   3.480  11.700 -0.4314 -0.6110 -0.2477
14208TIP3    H164115   2.238   3.549  11.729  1.3161  0.0087  2.0682
14208TIP3    H264116   2.239   3.405  11.684 -2.3585  1.2207 -2.7665
14209TIP3   OH264117   0.965   4.457   3.895 -0.2438  0.4810 -0.0731
14209TIP3    H164118   1.054   4.481   3.923 -0.2613  0.5161 -0.0466
14209TIP3    H264119   0.964   4.474   3.801 -0.3342  0.8315 -0.0112
14210TIP3   OH264120   1.300   1.136  15.309 -0.8162 -0.6918  0.0843
14210TIP3    H164121   1.284   1.225  15.276  1.9487 -0.7497 -1.6722
14210TIP3    H264122   1.338   1.089  15.235  0.4098 -2.5319  1.7823
14211TIP3   OH264123   6.113   3.306   5.623  0.6279 -0.3126  0.1009
14211TIP3    H164124   6.082   3.364   5.554  0.6600 -0.2570  0.1336
14211TIP3    H264125   6.064   3.225   5.610  0.1995 -0.1040  0.3780
14212TIP3   OH264126   2.497   4.369   1.319 -0.0381 -0.3220 -0.1070
14212TIP3    H164127   2.427   4.310   1.291  0.0920 -0.3747 -0.3275
14212TIP3    H264128   2.471   4.399   1.406 -0.0547 -0.7782  0.0425
14213TIP3   OH264129   2.939   1.631  16.690 -0.0930  0.3294  0.2340
14213TIP3    H164130   2.996   1.645  16.765 -0.5339  2.7191  0.2103
14213TIP3    H264131   2.869   1.575  16.723  1.6615 -1.8275  0.5167
14214TIP3   OH264132   1.912   6.520   5.451 -0.2522  0.2367 -0.0496
14214TIP3    H164133   2.002   6.553   5.448 -0.8913  2.0181 -0.9646
14214TIP3    H264134   1.858   6.598   5.455 -1.8362 -0.7557 -0.9711
14215TIP3   OH264135   3.165   2.361  13.106 -0.2518 -0.0563  0.0151
14215TIP3    H164136   3.139   2.443  13.065 -2.4863 -1.6339 -2.0087
14215TIP3    H264137   3.141   2.372  13.198  0.9079  2.0512  0.1129
14216TIP3   OH264138   2.556   0.996  16.431 -0.2403 -0.1735 -0.5344
14216TIP3    H164139   2.650   0.984  16.417 -0.4593 -2.7277 -0.2888
14216TIP3    H264140   2.519   0.998  16.343 -0.1417 -1.5149 -0.6380
14217TIP3   OH264141   6.039   0.130  16.456  0.2201 -0.2594  0.0553
14217TIP3    H164142   6.108   0.172  16.406  1.2035  0.5565  2.0082
14217TIP3    H264143   6.079   0.109  16.541 -0.9517 -2.8873  0.0734
14218TIP3   OH264144   6.825   6.659  11.525  0.4974  0.1407  0.1155
14218TIP3    H164145   6.816   6.742  11.573  1.7201  0.2756  0.1292
14218TIP3    H264146   6.914   6.630  11.543  0.3162 -0.8216 -0.4803
14219TIP3   OH264147   3.414   4.663   1.996  0.1343  0.3162  0.3166
14219TIP3    H164148   3.493   4.638   2.043  0.8769  0.1915 -0.9371
14219TIP3    H264149   3.393   4.751   2.026  1.6995  1.0014 -0.4960
14220TIP3   OH264150   5.749   2.485  11.307  0.3978  0.0383 -0.4098
14220TIP3    H164151   5.813   2.436  11.256 -0.0097  0.8009 -1.7016
14220TIP3    H264152   5.672   2.489  11.251 -0.0881  0.8338  0.2968
14221TIP3   OH264153   5.195   2.721  14.613 -0.2901  0.1261 -0.1262
14221TIP3    H164154   5.217   2.773  14.536  0.3099 -1.7803 -1.3078
14221TIP3    H264155   5.104   2.696  14.599  0.2069 -1.3511 -0.9660
14222TIP3   OH264156   6.706   2.443  15.413 -0.4036 -0.0514  0.7400
14222TIP3    H164157   6.692   2.491  15.332 -0.4341 -0.6664  0.3759
14222TIP3    H264158   6.789   2.397  15.400 -0.5070 -0.3110  0.9713
14223TIP3   OH264159   6.404   0.394  14.433  0.0810 -0.0565  0.8369
14223TIP3    H164160   6.426   0.326  14.369  0.5027  0.2955  0.6116
14223TIP3    H264161   6.452   0.369  14.512  1.7610  0.9898  0.2002
14224TIP3   OH264162   3.448   4.513  12.255  0.0195 -0.1150 -0.3124
14224TIP3    H164163   3.500   4.460  12.195  0.7157  0.5284 -0.2878
14224TIP3    H264164   3.510   4.576  12.291 -0.8688  0.9697 -0.6355
14225TIP3   OH264165   1.598   3.741  13.062 -0.6330 -0.4619 -0.3103
14225TIP3    H164166   1.660   3.814  13.065 -0.6870 -0.4340  0.2124
14225TIP3    H264167   1.563   3.736  13.151 -1.9152 -0.0186 -0.7667
14226TIP3   OH264168   2.853   3.340  15.444 -0.2498  0.2821 -0.2348
14226TIP3    H164169   2.874   3.412  15.384 -2.3746  0.0663 -1.3287
14226TIP3    H264170   2.807   3.383  15.517  0.1322  0.2346  0.0400
14227TIP3   OH264171   2.032   2.790   4.706  0.0751 -0.0997  0.0929
14227TIP3    H164172   2.101   2.724   4.697 -0.7524 -1.1003  0.7806
14227TIP3    H264173   1.989   2.768   4.788  0.9225  2.4604  1.3184
14228TIP3   OH264174   5.001   2.730   2.240  0.1261  0.4771  0.1680
14228TIP3    H164175   4.938   2.743   2.170  0.5964  0.5183 -0.2520
14228TIP3    H264176   5.087   2.735   2.197  0.4008 -0.6202  0.5378
14229TIP3   OH264177   3.249   4.833   0.060 -0.1743 -0.0377 -0.4779
14229TIP3    H164178   3.188   4.786   0.116  0.9484 -0.1918  0.6657
14229TIP3    H264179   3.336   4.801   0.086  0.3767 -1.2625 -3.3472
14230TIP3   OH264180   5.691   5.207   4.915 -0.0233 -0.6251  0.1064
14230TIP3    H164181   5.646   5.168   4.840  1.3240 -2.1604  0.0512
14230TIP3    H264182   5.673   5.301   4.907 -0.5147 -0.8305 -1.7288
14231TIP3   OH264183   3.341   2.671  14.451  0.0387  0.1663  0.5877
14231TIP3    H164184   3.260   2.716  14.473 -0.4499 -0.6050  0.3964
14231TIP3    H264185   3.381   2.725  14.383 -0.0839  0.7811  0.9891
14232TIP3   OH264186   4.335   1.296   5.873  0.1905 -0.3658 -0.0833
14232TIP3    H164187   4.421   1.256   5.886 -0.0232 -0.7813  0.0432
14232TIP3    H264188   4.283   1.267   5.947 -0.6698 -1.7697 -1.1970
14233TIP3   OH264189   4.664   4.152  13.802  0.0697  0.1264 -0.0969
14233TIP3    H164190   4.712   4.234  13.798 -1.4307  1.1362  1.3312
14233TIP3    H264191   4.575   4.177  13.828 -0.5075 -1.9202  0.0976
14234TIP3   OH264192   6.292   3.133   0.332 -0.0979 -0.5881  0.1392
14234TIP3    H164193   6.208   3.106   0.367  0.0044  0.1137  0.9504
14234TIP3    H264194   6.351   3.060   0.352  0.4857  0.6127  3.4627
14235TIP3   OH264195   1.748   3.102   1.929  0.2059  1.2881  0.1269
14235TIP3    H164196   1.658   3.069   1.931  0.7163 -0.6373 -2.4907
14235TIP3    H264197   1.754   3.162   2.003 -2.3190 -0.8152  2.2016
14236TIP3   OH264198   4.536   1.270  14.939  0.1989 -0.4434 -0.5716
14236TIP3    H164199   4.444   1.292  14.952  0.5545  0.6872  0.0976
14236TIP3    H264200   4.544   1.258  14.844 -0.5254 -0.0600 -0.6877
14237TIP3   OH264201   3.924   2.301  16.260  0.0385  0.7848 -0.3390
14237TIP3    H164202   3.986   2.372  16.246  0.5434  0.4572  0.2187
14237TIP3    H264203   3.977   2.221  16.250  0.5753  0.4649  3.6735
14238TIP3   OH264204   1.194   2.397  14.720 -0.2799  0.2459 -0.0496
14238TIP3    H164205   1.247   2.469  14.755  0.6507  1.3115 -3.2524
14238TIP3    H264206   1.256   2.325  14.711 -0.3263  0.2140 -0.1144
14239TIP3   OH264207   0.605   5.643  16.083 -0.3247 -0.3686 -0.3459
14239TIP3    H164208   0.640   5.566  16.128  0.2607 -0.4667 -0.9527
14239TIP3    H264209   0.601   5.711  16.150  2.3004  0.0488 -0.5261
14240TIP3   OH264210   3.108   2.316   5.850  0.0103  0.0199  0.4657
14240TIP3    H164211   3.118   2.403   5.811  0.6408  0.0802  0.7471
14240TIP3    H264212   3.014   2.301   5.853 -0.1265 -1.0827 -3.4807
14241TIP3   OH264213   1.693   2.176   0.058  0.7514 -0.5153 -0.1573
14241TIP3    H164214   1.603   2.183   0.090  1.2779  1.1639  1.1058
14241TIP3    H264215   1.730   2.102   0.106  0.3794 -0.4798  0.1879
14242TIP3   OH264216   0.087   0.072   5.589 -0.1983 -0.0937  0.5583
14242TIP3    H164217   0.026   0.096   5.519  2.6818  1.0522 -1.7947
14242TIP3    H264218   0.173   0.096   5.555  1.4482  0.4086  4.5185
14243TIP3   OH264219   2.217   1.714   3.814  0.0709  0.4765  0.0115
14243TIP3    H164220   2.159   1.782   3.848 -1.3679 -1.1571  0.9989
14243TIP3    H264221   2.296   1.720   3.867 -0.9938 -0.1166  1.7683
14244TIP3   OH264222   5.109   1.337  13.148 -0.3916 -0.0324 -0.1890
14244TIP3    H164223   5.194   1.321  13.107 -0.1632  1.2458 -0.2571
14244TIP3    H264224   5.118   1.302  13.237  1.5574  3.3713  1.1173
14245TIP3   OH264225   4.772   1.608   1.838  0.4737  0.3924  0.1301
14245TIP3    H164226   4.809   1.556   1.909  1.1773 -0.0597 -0.5389
14245TIP3    H264227   4.769   1.697   1.872  0.1746  0.0749  0.9524
14246TIP3   OH264228   5.319   4.955   1.844 -0.0445  0.1059 -0.1719
14246TIP3    H164229   5.231   4.925   1.822 -0.7223  1.4884  0.5426
14246TIP3    H264230   5.330   4.933   1.936 -0.1409  1.0384  0.0749
14247TIP3   OH264231   3.581   5.610  14.596 -0.2457  0.3866  0.8359
14247TIP3    H164232   3.605   5.551  14.667 -1.1832 -0.8076  0.2080
14247TIP3    H264233   3.598   5.697  14.631  2.5534 -0.2471  1.2824
14248TIP3   OH264234   4.302   5.670   1.836  0.1349 -0.1073 -0.2542
14248TIP3    H164235   4.321   5.581   1.865 -0.9841 -0.9513 -2.0141
14248TIP3    H264236   4.224   5.696   1.885 -1.1754 -1.1684 -1.6869
14249TIP3   OH264237   2.269   6.055   0.486  0.1477  0.1558 -0.0700
14249TIP3    H164238   2.191   6.039   0.433 -0.6710  0.0589  1.1061
14249TIP3    H264239   2.317   6.123   0.439 -0.5803  0.1240 -0.8867
14250TIP3   OH264240   4.190   2.458  16.632  0.4200 -0.2124  0.1638
14250TIP3    H164241   4.172   2.522  16.563  0.2403  1.1838  1.4532
14250TIP3    H264242   4.135   2.382  16.609  1.3035 -0.3088 -1.8720
14251TIP3   OH264243   0.653   6.778  11.713  0.0715 -0.1867  0.0434
14251TIP3    H164244   0.676   6.781  11.620  1.8900  0.2890  0.4623
14251TIP3    H264245   0.698   6.854  11.751  0.5233 -1.1543  1.5293
14252TIP3   OH264246   2.528   2.972  16.705  0.6507 -0.2089  0.2303
14252TIP3    H164247   2.617   2.980  16.738  1.0930  0.0952 -0.9927
14252TIP3    H264248   2.530   2.893  16.651  0.4451  0.3396 -0.5946
14253TIP3   OH264249   5.919   0.054  12.013 -0.4236  0.4446 -0.2944
14253TIP3    H164250   5.831   0.040  12.047 -0.2382 -0.5756 -0.2028
14253TIP3    H264251   5.933  -0.017  11.950  0.2004  0.8045 -0.5779
14254TIP3   OH264252   4.605   3.656   3.989 -0.2123 -0.1629  0.2186
14254TIP3    H164253   4.662   3.690   3.920 -0.9787  2.1153  0.5971
14254TIP3    H264254   4.531   3.617   3.943 -0.0093  0.0033 -0.2541
14255TIP3   OH264255   2.193   2.779   1.950  0.1229  0.2285  0.1940
14255TIP3    H164256   2.224   2.799   2.039 -0.0016 -1.0313  0.5376
14255TIP3    H264257   2.236   2.845   1.895  0.3368  0.9251  1.1622
14256TIP3   OH264258   2.080   0.052  14.237  0.3542  0.7055  0.2776
14256TIP3    H164259   2.082   0.051  14.142 -1.8114 -1.1330  0.1501
14256TIP3    H264260   1.998   0.095  14.260  1.1938  1.8025  1.3631
14257TIP3   OH264261   4.762   5.298  13.180  0.2355  0.4597 -0.2414
14257TIP3    H164262   4.777   5.367  13.116  0.6885  2.5965  2.0041
14257TIP3    H264263   4.680   5.323  13.223 -0.2987 -1.1678 -0.2218
14258TIP3   OH264264   2.498   5.647   3.609 -0.4867  0.4406 -0.6618
14258TIP3    H164265   2.429   5.712   3.621 -0.6507  0.4554 -1.6517
14258TIP3    H264266   2.453   5.569   3.578 -0.1148  0.3126 -0.8905
14259TIP3   OH264267   1.105   4.881   1.283  0.5530  0.5249 -0.3743
14259TIP3    H164268   1.142   4.793   1.287 -1.1656 -0.2382 -0.6547
14259TIP3    H264269   1.011   4.869   1.290  0.1982  2.2666 -1.4574
14260TIP3   OH264270   3.465   0.911  16.646 -0.2206 -0.0793  0.4185
14260TIP3    H164271   3.386   0.965  16.637  0.2597  0.7642  1.1077
14260TIP3    H264272   3.508   0.945  16.725  0.5410 -0.9036  0.3672
14261TIP3   OH264273   1.588   0.430  12.348 -0.7258 -0.4540 -0.1029
14261TIP3    H164274   1.499   0.394  12.352 -0.5628 -0.9641 -0.8272
14261TIP3    H264275   1.581   0.504  12.288 -1.0373  0.7080  1.3026
14262TIP3   OH264276   6.231   4.142  16.564  0.6212  0.3841 -0.3679
14262TIP3    H164277   6.147   4.100  16.545  0.4522 -0.6291  2.2016
14262TIP3    H264278   6.213   4.236  16.555 -0.8995  0.1982  0.3867
14263TIP3   OH264279   4.278   6.346  14.256 -0.2252  0.7454  0.0379
14263TIP3    H164280   4.347   6.412  14.248 -1.2431  1.6948 -1.4404
14263TIP3    H264281   4.242   6.338  14.167 -1.6332 -0.1556  0.6540
14264TIP3   OH264282   6.664   2.533   1.783 -0.1992  0.6940 -0.4159
14264TIP3    H164283   6.633   2.570   1.701 -1.7173  1.0468  0.2923
14264TIP3    H264284   6.673   2.608   1.842 -0.8833  0.2446  0.2772
14265TIP3   OH264285   1.328   4.700  15.232 -0.0357 -0.7140 -0.0361
14265TIP3    H164286   1.245   4.683  15.275  0.8107 -1.7135  1.2925
14265TIP3    H264287   1.304   4.737  15.147 -1.7820  0.5294  0.9297
14266TIP3   OH264288   3.649   4.567   2.139  0.3356 -0.1767 -0.3635
14266TIP3    H164289   3.669   4.611   2.222 -0.6801 -1.2186  0.4653
14266TIP3    H264290   3.675   4.476   2.154 -1.9464 -0.8801 -0.3518
14267TIP3   OH264291   0.401   2.538  10.769 -0.5997  0.0773 -0.0074
14267TIP3    H164292   0.493   2.519  10.753 -0.4710  0.1348  0.6584
14267TIP3    H264293   0.353   2.473  10.716 -0.1768 -0.6079  0.4417
14268TIP3   OH264294   5.388   2.512   1.729  0.1988 -0.4172  0.7885
14268TIP3    H164295   5.438   2.483   1.805  1.6899  1.2042  0.4863
14268TIP3    H264296   5.375   2.605   1.743 -0.3898 -0.2935 -0.4741
14269TIP3   OH264297   2.185   2.381  13.947 -0.0540  0.2796  0.6117
14269TIP3    H164298   2.170   2.470  13.977  0.3368  1.3463 -2.0771
14269TIP3    H264299   2.097   2.345  13.933 -0.2064  0.8902 -0.0087
14270TIP3   OH264300   3.010   0.592  15.101 -0.1286  0.0236 -0.0734
14270TIP3    H164301   2.917   0.600  15.122 -0.3554  0.5974 -1.1866
14270TIP3    H264302   3.025   0.659  15.034  1.1214  0.0328  0.1868
14271TIP3   OH264303   3.140   3.358   5.934 -0.7346 -0.0110  0.6652
14271TIP3    H164304   3.106   3.412   6.006  1.8150  0.2228  1.7887
14271TIP3    H264305   3.135   3.268   5.968 -2.2166 -0.2264 -0.0497
14272TIP3   OH264306   1.904   0.809  12.905 -0.2135 -0.3950 -0.2243
14272TIP3    H164307   1.891   0.778  12.995  0.7920  1.2099  0.5224
14272TIP3    H264308   1.923   0.730  12.855  0.8408 -1.1498  1.2949
14273TIP3   OH264309   1.450   5.755  13.578  0.6974 -0.7483 -0.4494
14273TIP3    H164310   1.478   5.783  13.664 -0.7599  0.7761 -0.4206
14273TIP3    H264311   1.531   5.736  13.531  1.5094 -1.7980  1.2802
14274TIP3   OH264312   0.500   3.889  11.689 -0.5722  0.3031  0.0233
14274TIP3    H164313   0.444   3.841  11.751  0.3239 -1.3607 -0.3950
14274TIP3    H264314   0.495   3.837  11.609  1.3505  0.2688 -0.1051
14275TIP3   OH264315   4.497   1.697  11.985  0.6389  0.5802  0.2175
14275TIP3    H164316   4.481   1.604  11.999 -0.2203  0.6614 -0.1937
14275TIP3    H264317   4.492   1.736  12.072  0.4701  0.3194  0.3243
14276TIP3   OH264318   0.805   4.301  13.115  0.4249 -0.5599 -0.2627
14276TIP3    H164319   0.819   4.208  13.133  1.5996 -0.3123  0.1771
14276TIP3    H264320   0.874   4.325  13.053  0.8484  0.2687  0.4977
14277TIP3   OH264321   2.698   3.774  15.822  0.0311 -0.0922  0.0756
14277TIP3    H164322   2.732   3.763  15.733  2.0091 -0.0932  0.7768
14277TIP3    H264323   2.754   3.841  15.861  0.2984 -1.2643  1.8290
14278TIP3   OH264324   2.281   0.302   0.805  0.9107  0.3968  0.1350
14278TIP3    H164325   2.274   0.397   0.818 -0.7865  0.0711  2.2311
14278TIP3    H264326   2.251   0.265   0.888  1.5650 -1.9862 -0.6318
14279TIP3   OH264327   1.219   5.174  15.185 -0.1764 -0.1892  0.1205
14279TIP3    H164328   1.145   5.125  15.151  0.6700 -2.2797  1.1492
14279TIP3    H264329   1.180   5.246  15.235 -1.4434  0.2095 -1.3635
14280TIP3   OH264330   6.600   2.806   4.629 -0.3586 -0.1693 -0.1765
14280TIP3    H164331   6.663   2.803   4.557 -1.8602 -1.7839 -1.4888
14280TIP3    H264332   6.540   2.877   4.606 -0.3526 -0.1217 -0.0502
14281TIP3   OH264333   0.539   0.912  16.238  0.2060 -0.8335 -0.4005
14281TIP3    H164334   0.569   0.879  16.322  1.1620 -1.2254 -0.8801
14281TIP3    H264335   0.563   0.843  16.175  0.7643  0.0596 -1.1875
14282TIP3   OH264336   0.602   4.399   3.310  0.0930  0.4867 -0.3334
14282TIP3    H164337   0.511   4.397   3.337  0.2760  0.6551  0.3002
14282TIP3    H264338   0.622   4.309   3.286 -0.6673  0.7093 -1.9393
14283TIP3   OH264339   2.201   4.608  11.164  0.6223  0.4985 -0.0741
14283TIP3    H164340   2.132   4.547  11.190 -2.7170  3.3506 -1.4336
14283TIP3    H264341   2.219   4.660  11.243 -1.4209  1.9529 -0.4889
14284TIP3   OH264342   3.081   1.197  14.848  0.0677  0.9809 -0.5668
14284TIP3    H164343   3.110   1.247  14.925 -0.7811 -0.0739  0.4794
14284TIP3    H264344   3.055   1.264  14.784  0.7293  1.8833  0.0816
14285TIP3   OH264345   5.059   5.547  13.306 -0.6795  0.0985  0.2227
14285TIP3    H164346   4.974   5.583  13.285 -1.0427 -0.2248  1.1047
14285TIP3    H264347   5.115   5.623  13.321 -0.7267  0.3130 -0.6554
14286TIP3   OH264348   6.522   2.618   5.216  0.3845  0.1057  0.1692
14286TIP3    H164349   6.503   2.554   5.147 -0.4528  1.4694 -0.8987
14286TIP3    H264350   6.477   2.584   5.293 -1.3584  0.1628 -0.7734
14287TIP3   OH264351   2.087   1.948   5.252 -0.5390 -0.2551  0.4535
14287TIP3    H164352   2.095   1.869   5.198 -1.1413  0.5153 -0.8152
14287TIP3    H264353   2.000   1.940   5.293 -1.1212  0.2794 -0.6187
14288TIP3   OH264354   0.042   4.506  12.146  0.2386  0.1230  0.1040
14288TIP3    H164355   0.127   4.490  12.185  0.3780  0.0985 -0.2015
14288TIP3    H264356   0.025   4.599  12.162  2.0435  1.1482 -3.0482
14289TIP3   OH264357   5.603   3.390  14.177 -0.0626 -0.2914  0.1842
14289TIP3    H164358   5.597   3.336  14.098 -3.0260  1.4870 -0.9752
14289TIP3    H264359   5.666   3.344  14.233 -0.0564 -3.2054 -1.9818
14290TIP3   OH264360   5.105   3.056   3.691 -0.6590 -0.1911 -0.1090
14290TIP3    H164361   5.154   3.009   3.759 -0.2816 -0.9712 -0.9030
14290TIP3    H264362   5.113   3.001   3.613 -0.0696  1.2860 -1.1248
14291TIP3   OH264363   2.083   1.279  12.787 -0.0089 -0.4299  0.0982
14291TIP3    H164364   2.121   1.349  12.840  0.1537 -0.2853 -0.2075
14291TIP3    H264365   2.078   1.316  12.699 -1.3972 -0.2302  0.2369
14292TIP3   OH264366   2.208   6.675  15.720  0.4046  0.4557  0.0197
14292TIP3    H164367   2.161   6.653  15.801 -0.5779  1.0717 -0.3682
14292TIP3    H264368   2.163   6.626  15.652 -0.0026  1.4131 -0.4256
14293TIP3   OH264369   0.582   1.465  16.478  0.1818  0.6602 -0.3286
14293TIP3    H164370   0.626   1.403  16.420 -1.0796  1.0810 -1.8111
14293TIP3    H264371   0.652   1.512  16.522  1.1664 -0.7939 -0.2759
14294TIP3   OH264372   4.983   4.414  12.944 -0.0947  0.2339 -0.1453
14294TIP3    H164373   5.000   4.406  12.850 -0.1391 -0.7254 -0.0798
14294TIP3    H264374   4.889   4.433  12.950 -0.7956 -2.6547 -0.2331
14295TIP3   OH264375   6.149   2.558  15.422 -0.1094 -0.0790  0.2382
14295TIP3    H164376   6.057   2.530  15.422  0.1396 -1.3476 -3.1025
14295TIP3    H264377   6.197   2.483  15.458 -0.3419  0.9633  2.9621
14296TIP3   OH264378   5.631   2.953  14.406 -0.0235  0.6390 -0.1686
14296TIP3    H164379   5.596   3.000  14.330  0.0498 -1.7008 -1.7311
14296TIP3    H264380   5.554   2.928  14.456 -0.4483 -1.2489 -1.6381
14297TIP3   OH264381   2.102   2.900   0.979 -0.1892  0.1108  0.0529
14297TIP3    H164382   2.129   2.971   0.920  0.8709  0.5852  1.0618
14297TIP3    H264383   2.171   2.896   1.044 -1.2864 -0.4522  1.2213
14298TIP3   OH264384   3.922   1.333   1.241  0.2699  0.3133 -0.2692
14298TIP3    H164385   4.004   1.293   1.212  0.5188 -0.3329  1.2692
14298TIP3    H264386   3.854   1.289   1.189  0.8917  1.1788 -1.8908
14299TIP3   OH264387   3.583   4.003  15.322 -0.2424  0.4963  0.3572
14299TIP3    H164388   3.658   3.944  15.325 -0.3358  0.2818 -1.0287
14299TIP3    H264389   3.595   4.053  15.241 -1.2881  0.8778  0.4249
14300TIP3   OH264390   4.054   5.840   1.593  0.1074  0.0369  0.0379
14300TIP3    H164391   4.064   5.774   1.524 -1.3285  0.1817 -0.3380
14300TIP3    H264392   3.960   5.847   1.605  0.3015  0.9638  1.1180
14301TIP3   OH264393   2.805   2.814   0.886 -0.3809  0.4563  0.2053
14301TIP3    H164394   2.836   2.724   0.899 -1.5501 -0.3265 -1.9674
14301TIP3    H264395   2.884   2.868   0.895  0.0614 -0.4967  3.3914
14302TIP3   OH264396   3.348   0.902  16.108  0.3539 -0.1013 -0.6138
14302TIP3    H164397   3.269   0.888  16.057 -2.1033 -2.1174  3.2557
14302TIP3    H264398   3.359   0.821  16.158  3.7396  0.8960  0.5448
14303TIP3   OH264399   2.749   6.520  13.515 -0.0688  0.5693 -0.4855
14303TIP3    H164400   2.756   6.589  13.580  1.1968  0.1611 -0.1678
14303TIP3    H264401   2.659   6.528  13.482 -0.0066  2.2518 -0.3540
14304TIP3   OH264402   1.747   3.108  12.077  0.5405 -0.6330 -0.2510
14304TIP3    H164403   1.731   3.056  12.155  0.8482  0.0132  0.2504
14304TIP3    H264404   1.692   3.067  12.009 -3.7852  1.6904  1.4195
14305TIP3   OH264405   2.418   3.960  12.023 -0.4064 -0.2342  0.3769
14305TIP3    H164406   2.413   4.047  12.063 -0.0653 -0.0602  0.0417
14305TIP3    H264407   2.472   3.972  11.945  0.4125 -0.9260  0.8192
14306TIP3   OH264408   3.778   2.545  16.578  0.0147 -0.2209 -0.2582
14306TIP3    H164409   3.781   2.463  16.528  1.1528 -0.1720 -0.2969
14306TIP3    H264410   3.762   2.613  16.512 -1.5992 -0.4569 -0.1452
14307TIP3   OH264411   1.910   4.905  14.446  0.4387  0.2560  0.5805
14307TIP3    H164412   1.823   4.929  14.478  1.6395  4.5918  1.3332
14307TIP3    H264413   1.946   4.849  14.514 -1.0612  0.0290  1.2336
14308TIP3   OH264414   4.669   1.293  16.045  0.1652 -0.3148  0.1509
14308TIP3    H164415   4.577   1.267  16.052  0.8302 -2.9387  0.4008
14308TIP3    H264416   4.716   1.211  16.032  2.4129  1.0411 -0.9741
14309TIP3   OH264417   3.397   2.573  15.393  0.1864  0.3119 -0.0743
14309TIP3    H164418   3.413   2.552  15.300 -1.6598 -0.4594 -0.2757
14309TIP3    H264419   3.376   2.488  15.432  0.3622  0.7264  0.9265
14310TIP3   OH264420   5.897   1.233   0.402 -0.1093 -0.0204 -0.0390
14310TIP3    H164421   5.893   1.324   0.430  0.9315  0.4603 -1.3259
14310TIP3    H264422   5.829   1.189   0.452 -0.0774  1.2907  1.2211
14311TIP3   OH264423   2.923   1.222  10.878 -0.5301 -0.3118  0.7092
14311TIP3    H164424   2.873   1.298  10.907 -0.5479 -0.2321  0.4730
14311TIP3    H264425   3.011   1.256  10.862 -0.4782 -0.3888  0.8264
14312TIP3   OH264426   1.761   3.281   4.206 -0.6313 -0.0635 -0.1144
14312TIP3    H164427   1.774   3.186   4.197 -1.6636 -0.1227 -1.2407
14312TIP3    H264428   1.801   3.303   4.290  2.2912 -1.0068 -1.1017
14313TIP3   OH264429   4.866   5.179  14.560 -0.2945  0.2282 -0.0837
14313TIP3    H164430   4.836   5.140  14.478 -0.7395  2.4636 -1.0316
14313TIP3    H264431   4.787   5.184  14.614 -0.7203  1.7791 -0.8019
14314TIP3   OH264432   3.721   3.393  16.657  0.0118  0.2518 -0.5896
14314TIP3    H164433   3.671   3.457  16.604  0.1566 -0.6447 -1.8523
14314TIP3    H264434   3.670   3.384  16.737 -0.2037  1.6806 -0.5378
14315TIP3   OH264435   5.050   0.262  13.277  0.5153  0.0651 -0.2641
14315TIP3    H164436   5.140   0.272  13.247  0.5536 -1.5144 -0.7600
14315TIP3    H264437   5.000   0.243  13.198 -0.0682 -0.1078  0.1390
14316TIP3   OH264438   1.819   1.996  11.522  0.7277 -0.3228  0.2052
14316TIP3    H164439   1.861   1.963  11.443  0.8586 -1.2131  0.6358
14316TIP3    H264440   1.726   1.973  11.512  0.5977  0.2901 -0.0521
14317TIP3   OH264441   4.678   6.276   6.684 -0.1508  0.3556 -0.0865
14317TIP3    H164442   4.667   6.187   6.717 -1.6768  0.6718  0.3528
14317TIP3    H264443   4.615   6.328   6.734  0.7043  1.6867 -0.3516
14318TIP3   OH264444   3.801   3.865   2.091  0.5681 -0.6017 -0.8286
14318TIP3    H164445   3.725   3.900   2.045  0.5943 -0.7172 -0.9613
14318TIP3    H264446   3.834   3.938   2.144  0.5282 -0.4748 -0.9810
14319TIP3   OH264447   5.700   4.840  12.483 -0.3522  0.7628  0.3726
14319TIP3    H164448   5.690   4.746  12.465  0.6319  0.6049  0.5975
14319TIP3    H264449   5.769   4.844  12.550  0.6227  1.7272 -0.6650
14320TIP3   OH264450   1.763   2.240  16.731 -0.4819 -0.2534 -0.0446
14320TIP3    H164451   1.857   2.228  16.745 -0.1856  0.2466 -1.4083
14320TIP3    H264452   1.725   2.236  16.819  0.6599 -1.5852  0.4277
14321TIP3   OH264453   2.135   3.704   5.242 -0.4060  0.0707  0.5796
14321TIP3    H164454   2.135   3.790   5.199 -0.8615 -0.3747 -0.3229
14321TIP3    H264455   2.212   3.660   5.207 -0.2077  0.0690  1.0002
14322TIP3   OH264456   0.559   1.901   5.333  0.4519 -0.1810  0.4747
14322TIP3    H164457   0.644   1.931   5.366  2.2027 -0.3442 -3.3967
14322TIP3    H264458   0.512   1.982   5.310 -0.0422 -0.1337  1.5750
14323TIP3   OH264459   2.826   5.487  11.974  0.6066  0.2711 -0.5978
14323TIP3    H164460   2.785   5.406  12.004  0.0557  1.3475  1.8075
14323TIP3    H264461   2.918   5.464  11.961 -0.0419 -1.3945 -2.9088
14324TIP3   OH264462   0.432   4.420  15.290 -0.0675  0.2970 -0.1104
14324TIP3    H164463   0.457   4.511  15.305  0.0494  0.1354  0.7009
14324TIP3    H264464   0.408   4.387  15.376 -0.7227 -0.2614 -0.4927
14325TIP3   OH264465   4.634   3.533   1.618 -0.5897 -0.0585 -0.1877
14325TIP3    H164466   4.609   3.577   1.698 -1.0458 -0.1752 -0.2641
14325TIP3    H264467   4.673   3.601   1.564  0.7631 -0.1971  0.5678
14326TIP3   OH264468   4.112   3.715  13.670  0.1035 -0.0329 -0.0274
14326TIP3    H164469   4.092   3.795  13.622  0.9211  0.5036  0.4985
14326TIP3    H264470   4.027   3.676  13.690 -0.3429  1.2315  0.6023
14327TIP3   OH264471   3.179   4.369   0.273 -0.0720 -0.1610  0.2739
14327TIP3    H164472   3.221   4.335   0.352  0.9080 -0.2876 -0.2804
14327TIP3    H264473   3.099   4.318   0.264  0.5392 -1.1631  0.3815
14328TIP3   OH264474   2.416   1.952   1.993  0.4714  0.3325  0.0994
14328TIP3    H164475   2.383   1.962   2.082 -0.9963  0.2206 -0.3910
14328TIP3    H264476   2.373   2.022   1.944 -0.5745 -1.0002 -0.9629
14329TIP3   OH264477   3.060   1.797   4.527 -0.3591  0.3441  0.3290
14329TIP3    H164478   3.068   1.791   4.622  0.7524 -0.5390  0.1956
14329TIP3    H264479   2.970   1.772   4.509 -0.0980 -1.2381  1.0387
14330TIP3   OH264480   5.942   5.349   0.105  0.7824 -0.1475  0.4248
14330TIP3    H164481   5.902   5.283   0.161 -0.4142 -0.1685 -0.4288
14330TIP3    H264482   5.973   5.301   0.028 -1.1594  0.3908 -0.7622
14331TIP3   OH264483   2.076   4.475   6.291  0.5857 -0.5236 -0.5858
14331TIP3    H164484   2.133   4.426   6.350 -0.6752 -0.4838  0.7300
14331TIP3    H264485   1.996   4.423   6.287 -0.9095  1.4561  1.0761
14332TIP3   OH264486   6.129   2.063   0.803  0.1410 -0.0226 -0.6654
14332TIP3    H164487   6.190   2.133   0.827 -1.7904  1.6763 -0.4161
14332TIP3    H264488   6.102   2.025   0.887 -0.4187  0.3687 -0.6689
14333TIP3   OH264489   0.849   5.267   4.717 -0.1539 -0.1065 -0.4986
14333TIP3    H164490   0.772   5.314   4.749 -0.5328 -1.8189  1.3207
14333TIP3    H264491   0.919   5.290   4.779 -0.1913 -1.3799  0.0579
14334TIP3   OH264492   1.419   4.925  11.830 -0.4083 -0.0596 -0.8770
14334TIP3    H164493   1.490   4.866  11.804 -0.0290 -0.5052  0.9677
14334TIP3    H264494   1.375   4.878  11.902  0.0582  1.9705  0.8231
14335TIP3   OH264495   6.051   4.135   3.238  0.0165  0.2410 -0.0467
14335TIP3    H164496   6.105   4.193   3.291  0.2495 -0.0280  0.0085
14335TIP3    H264497   6.047   4.178   3.152  3.1209 -1.3423 -1.1425
14336TIP3   OH264498   3.898   0.837  11.794  0.4492  0.0719  0.5318
14336TIP3    H164499   3.921   0.928  11.812  0.6535  0.1147  0.0444
14336TIP3    H264500   3.970   0.803  11.741 -1.9233  1.1238 -3.8544
14337TIP3   OH264501   0.267   1.894  15.326  0.0560  0.5231  0.1602
14337TIP3    H164502   0.333   1.837  15.366  0.7012 -0.0404 -1.6000
14337TIP3    H264503   0.317   1.970  15.295 -0.4377  0.9911  0.5123
14338TIP3   OH264504   0.999   5.397   0.009  0.5313  0.2280  0.4844
14338TIP3    H164505   0.919   5.354   0.036  1.5410 -0.0435  3.3684
14338TIP3    H264506   0.984   5.490   0.025  1.4235 -0.0069  3.1181
14339TIP3   OH264507   2.540   6.070   4.437 -0.5646  0.0095 -0.0747
14339TIP3    H164508   2.622   6.022   4.433 -0.0524  0.8025  0.5238
14339TIP3    H264509   2.481   6.013   4.487  0.2237  0.2626  1.1703
14340TIP3   OH264510   3.412   1.268  11.346 -0.1639 -0.4500 -0.0038
14340TIP3    H164511   3.334   1.238  11.392  1.1334 -1.0547  1.8924
14340TIP3    H264512   3.379   1.329  11.280 -2.2324 -0.8229  0.6211
14341TIP3   OH264513   6.712   2.620  11.094 -0.0954  0.0973  0.1329
14341TIP3    H164514   6.782   2.603  11.158  1.5802 -0.4416 -1.7136
14341TIP3    H264515   6.733   2.707  11.059  0.8119 -0.7897 -1.7069
14342TIP3   OH264516   3.338   2.572  15.701 -1.0314 -0.2653 -0.0226
14342TIP3    H164517   3.395   2.634  15.746 -1.3026 -0.0050 -0.0302
14342TIP3    H264518   3.395   2.498  15.679 -0.6116  0.1604 -0.3769
14343TIP3   OH264519   3.896   1.001   6.004 -0.1834 -0.5295  0.4719
14343TIP3    H164520   3.921   0.910   5.986  0.0113 -0.0618 -1.8505
14343TIP3    H264521   3.892   1.043   5.918 -0.1736  1.7047  1.4908
14344TIP3   OH264522   5.032   3.611  14.035 -0.6331  0.0116 -0.4883
14344TIP3    H164523   4.956   3.603  14.093  0.2334 -0.9738  0.5458
14344TIP3    H264524   5.002   3.577  13.950 -1.3859 -0.2191 -0.1336
14345TIP3   OH264525   0.592   6.105   2.091 -0.4526 -0.0993 -0.0494
14345TIP3    H164526   0.597   6.181   2.033 -2.7384 -1.4664 -2.2374
14345TIP3    H264527   0.647   6.039   2.049 -0.6585 -0.5286  0.3426
14346TIP3   OH264528   3.651   2.875  14.713  0.5618  0.4153  0.7683
14346TIP3    H164529   3.732   2.926  14.720  1.6391 -1.3384  1.4346
14346TIP3    H264530   3.597   2.927  14.653  2.0686  1.7347  0.4633
14347TIP3   OH264531   5.476   5.317  11.063  0.3253  0.4647 -0.5369
14347TIP3    H164532   5.403   5.277  11.015 -0.7667  1.5961  0.1024
14347TIP3    H264533   5.554   5.282  11.022 -0.5480 -2.0022 -0.2637
14348TIP3   OH264534   0.486   0.562   5.833 -0.2386  0.3371  0.6884
14348TIP3    H164535   0.487   0.506   5.911 -0.4472  1.7340  1.7443
14348TIP3    H264536   0.500   0.650   5.867 -1.0331  1.0733 -0.7893
14349TIP3   OH264537   3.489   2.981  16.640 -0.6520  0.1580  0.3955
14349TIP3    H164538   3.496   2.886  16.645 -0.4404  0.2136  3.1503
14349TIP3    H264539   3.495   3.002  16.547 -1.9427 -2.5804 -0.4041
14350TIP3   OH264540   5.792   4.690  13.166 -0.8309  0.1620 -0.1056
14350TIP3    H164541   5.776   4.702  13.072 -0.4558  1.6975  0.0007
14350TIP3    H264542   5.705   4.683  13.204 -0.9929 -0.2388 -0.5370
14351TIP3   OH264543   1.529   6.636   1.986  0.1984  0.6882 -0.1049
14351TIP3    H164544   1.597   6.690   2.027  1.5336 -0.4240 -0.7592
14351TIP3    H264545   1.553   6.634   1.893 -0.1377 -0.5704 -0.1756
14352TIP3   OH264546   1.867   3.015   4.159  0.3439 -0.1183 -0.0861
14352TIP3    H164547   1.848   2.948   4.225  1.9671 -0.0502  0.5119
14352TIP3    H264548   1.872   2.968   4.076  1.8200 -0.8390  0.3776
14353TIP3   OH264549   1.235   5.869   2.953 -0.4241  0.0019 -0.3227
14353TIP3    H164550   1.201   5.780   2.959  0.3444 -0.2959 -0.3937
14353TIP3    H264551   1.330   5.860   2.961 -0.3377  0.8125 -0.3324
14354TIP3   OH264552   2.186   0.466  16.456 -0.4163  0.0722  0.0246
14354TIP3    H164553   2.188   0.405  16.382 -1.4849  0.1914 -0.1329
14354TIP3    H264554   2.162   0.412  16.531  0.0317  0.0598  0.1585
14355TIP3   OH264555   3.628   6.793  12.577 -0.0479  1.0676 -0.0216
14355TIP3    H164556   3.606   6.712  12.531 -3.1143  2.7808 -1.8673
14355TIP3    H264557   3.582   6.786  12.661  0.3033  0.6314  0.1423
14356TIP3   OH264558   5.372   1.805  14.054 -0.3389  0.1252 -0.8758
14356TIP3    H164559   5.359   1.724  14.103  0.9884  0.4589  0.0636
14356TIP3    H264560   5.457   1.795  14.012 -0.2167  0.9751 -0.8551
14357TIP3   OH264561   4.943   4.973  12.032  0.7706 -0.0890 -0.4066
14357TIP3    H164562   4.900   4.887  12.030  1.2279 -0.3508  0.4206
14357TIP3    H264563   5.036   4.953  12.025  0.7845  0.5072 -2.8070
14358TIP3   OH264564   4.811   0.756   1.788  0.1434  0.2461  0.3075
14358TIP3    H164565   4.895   0.733   1.749  0.2875 -0.1803  0.8595
14358TIP3    H264566   4.750   0.757   1.715  0.4054 -0.5528  0.0710
14359TIP3   OH264567   1.852   2.010   3.326 -0.1747  0.0304 -0.5001
14359TIP3    H164568   1.912   2.081   3.352  0.8218 -0.8777 -0.2201
14359TIP3    H264569   1.765   2.045   3.343  0.3350  0.6780  0.9994
14360TIP3   OH264570   1.935   2.677   6.619 -0.4955  0.2939  0.1232
14360TIP3    H164571   1.999   2.746   6.601  0.2358 -0.4946 -0.3132
14360TIP3    H264572   1.850   2.721   6.609 -0.0395  1.1824  0.0587
14361TIP3   OH264573   1.599   4.882  15.130  0.3640  0.1970 -0.5867
14361TIP3    H164574   1.593   4.789  15.154 -0.4255  0.0671 -1.2317
14361TIP3    H264575   1.509   4.908  15.113  0.6339  0.9508 -0.9127
14362TIP3   OH264576   4.285   6.717   2.162 -0.1448  0.2310 -0.5338
14362TIP3    H164577   4.363   6.746   2.115  0.3187 -2.0333 -1.2513
14362TIP3    H264578   4.299   6.748   2.252  1.0171  0.8638 -0.9094
14363TIP3   OH264579   2.507   1.705  15.079  0.3502 -0.0849 -0.0236
14363TIP3    H164580   2.483   1.653  15.002  1.0614 -0.8846  0.2891
14363TIP3    H264581   2.429   1.706  15.133 -0.0207  0.1289 -0.5514
14364TIP3   OH264582   2.725   0.113  16.412  0.4262 -0.1961 -0.4150
14364TIP3    H164583   2.784   0.148  16.346  0.4036 -0.7401 -0.7329
14364TIP3    H264584   2.740   0.018  16.409 -0.0561 -0.2851 -0.1078
14365TIP3   OH264585   3.465   2.573  12.028 -0.4391 -0.5339 -0.1337
14365TIP3    H164586   3.461   2.652  12.081  1.9669  0.2988 -1.0559
14365TIP3    H264587   3.557   2.546  12.031 -0.9684 -2.6192 -0.8214
14366TIP3   OH264588   0.109   5.834   2.000  0.2203  0.0363  0.1505
14366TIP3    H164589   0.047   5.776   1.956  0.2311  0.7141 -0.7977
14366TIP3    H264590   0.193   5.788   1.994  0.2651  0.2151 -0.7564
14367TIP3   OH264591   4.311   6.242  15.947 -0.0793 -0.2772 -0.3670
14367TIP3    H164592   4.283   6.264  15.859 -2.4256  0.6385  0.5248
14367TIP3    H264593   4.262   6.302  16.004  0.4494 -1.6234  1.6288
14368TIP3   OH264594   4.597   0.103  11.372  0.3320 -0.0099 -0.1474
14368TIP3    H164595   4.675   0.066  11.411 -0.0307 -0.8734 -0.2190
14368TIP3    H264596   4.618   0.112  11.279  0.4659  0.0860 -0.1075
14369TIP3   OH264597   4.532   3.226  11.186  0.9046 -0.0918  0.7048
14369TIP3    H164598   4.598   3.205  11.253  3.1795 -0.7996 -1.5786
14369TIP3    H264599   4.574   3.292  11.131 -0.3978 -0.3681 -0.6782
14370TIP3   OH264600   0.045   4.443   3.449 -0.1643  0.3676  0.3658
14370TIP3    H164601   0.007   4.370   3.399 -2.4582  1.3863  0.4948
14370TIP3    H264602   0.048   4.515   3.386 -0.3865  0.8714  0.9231
14371TIP3   OH264603   1.881   1.607  11.267 -0.0621 -0.2984 -0.0167
14371TIP3    H164604   1.802   1.626  11.318 -0.6364 -0.9957 -0.6121
14371TIP3    H264605   1.921   1.692  11.253 -1.0288  0.1478 -0.1845
14372TIP3   OH264606   2.641   1.599  13.717 -0.1234  0.2951 -0.3415
14372TIP3    H164607   2.652   1.687  13.754 -0.4176 -0.1972  0.9627
14372TIP3    H264608   2.727   1.578  13.681 -0.0803  1.1564 -0.7769
14373TIP3   OH264609   3.694   0.104   1.402  0.8303  0.3291 -0.4926
14373TIP3    H164610   3.730   0.015   1.403  0.8573  0.3434  0.7950
14373TIP3    H264611   3.724   0.144   1.484 -0.3130  1.0601 -0.4065
14374TIP3   OH264612   0.682   1.555  13.849 -0.1570  0.1903  0.3948
14374TIP3    H164613   0.627   1.494  13.898  1.3351 -0.4628  1.3543
14374TIP3    H264614   0.702   1.625  13.912  0.3522  0.2502  0.1735
14375TIP3   OH264615   2.353   1.104  15.595 -0.3513 -0.4099  0.1412
14375TIP3    H164616   2.400   1.112  15.512 -2.0935  1.5382 -0.7630
14375TIP3    H264617   2.400   1.161  15.655  1.1907 -2.1817  0.7021
14376TIP3   OH264618   2.830   6.158  14.526  0.3873 -0.1508 -0.0347
14376TIP3    H164619   2.860   6.186  14.613 -1.1553  0.3199  0.3794
14376TIP3    H264620   2.888   6.085  14.503  0.8612 -0.2486  1.3652
14377TIP3   OH264621   6.145   4.973  12.342  0.3888  0.0837 -0.3141
14377TIP3    H164622   6.217   4.971  12.278  1.8717 -1.5211  1.2842
14377TIP3    H264623   6.102   4.888  12.332 -0.8287  0.7198 -0.6966
14378TIP3   OH264624   2.094   3.951  17.141  0.0273 -0.2449 -0.4736
14378TIP3    H164625   2.079   3.907  17.057  0.2480  1.8390 -1.6892
14378TIP3    H264626   2.145   4.029  17.118  2.0210 -0.7292  1.9192
14379TIP3   OH264627   3.534   0.992   5.776 -0.0783  0.8685 -0.0602
14379TIP3    H164628   3.486   0.973   5.696  1.0335  0.3967 -0.6369
14379TIP3    H264629   3.570   1.080   5.763  0.2663  0.7131 -0.1660
14380TIP3   OH264630   4.429   2.358   1.457  0.4638  0.1795 -0.0365
14380TIP3    H164631   4.481   2.315   1.389  0.7728  0.1791  0.1965
14380TIP3    H264632   4.435   2.300   1.533  0.1886  0.2186  0.0144
14381TIP3   OH264633   4.780   0.309  10.606  0.2576  0.5601  0.4177
14381TIP3    H164634   4.772   0.404  10.598  0.1020  0.4159 -1.5431
14381TIP3    H264635   4.693   0.280  10.633  0.4357  0.9961  1.5123
14382TIP3   OH264636   6.248   5.815   5.313  0.2391 -0.1476 -0.2837
14382TIP3    H164637   6.231   5.872   5.388  1.7740 -0.0606  0.0374
14382TIP3    H264638   6.290   5.872   5.248  1.5263 -0.8052 -0.0720
14383TIP3   OH264639   3.575   0.410   2.403 -0.1322 -0.0870  0.2588
14383TIP3    H164640   3.578   0.475   2.332 -0.8701  0.9815  1.1617
14383TIP3    H264641   3.541   0.331   2.362  1.5230 -0.1891 -1.0515
14384TIP3   OH264642   2.804   2.257  10.663 -0.4668 -1.0636 -0.0850
14384TIP3    H164643   2.765   2.173  10.685 -1.7830 -0.8566 -1.4726
14384TIP3    H264644   2.747   2.294  10.595  1.2917 -0.0321 -1.0986
14385TIP3   OH264645   4.756   3.864  14.751  0.2249  0.2275 -0.0104
14385TIP3    H164646   4.774   3.880  14.658 -2.1189 -1.5520 -0.8899
14385TIP3    H264647   4.835   3.821  14.784 -0.0155 -2.0045 -2.0740
14386TIP3   OH264648   0.729   6.761   0.099  0.3072  0.5090 -0.6120
14386TIP3    H164649   0.733   6.832   0.035  1.2789  0.9769 -0.0575
14386TIP3    H264650   0.795   6.785   0.165 -0.6731  0.0563  0.5689
14387TIP3   OH264651   1.431   2.010  13.085 -0.1503  0.4772  0.0416
14387TIP3    H164652   1.355   1.953  13.073  1.0747 -0.7719 -2.2251
14387TIP3    H264653   1.434   2.064  13.006  0.6717  1.3645  0.6466
14388TIP3   OH264654   3.274   0.726   4.527  0.1475 -0.8423 -0.2660
14388TIP3    H164655   3.234   0.686   4.604 -0.0007  0.2249  0.2406
14388TIP3    H264656   3.362   0.749   4.555  0.0417 -0.3079 -0.3532
14389TIP3   OH264657   1.931   5.594  14.203 -0.0606 -0.4691  0.1157
14389TIP3    H164658   1.958   5.576  14.293  0.1558 -1.2133 -0.0855
14389TIP3    H264659   1.847   5.638  14.211 -0.1238 -0.6851  0.6824
14390TIP3   OH264660   3.196   3.500   3.066 -0.2544 -0.0979  0.0798
14390TIP3    H164661   3.291   3.510   3.058 -0.0654 -2.8852 -4.1451
14390TIP3    H264662   3.184   3.448   3.146  1.5954  1.1913  1.2719
14391TIP3   OH264663   3.627   3.376   4.136  0.1380 -0.1100  0.6483
14391TIP3    H164664   3.703   3.347   4.085  0.6858 -1.1905  2.0020
14391TIP3    H264665   3.552   3.352   4.083  0.7197  0.2890 -0.3777
14392TIP3   OH264666   2.606   3.750  16.497  0.0465  0.0517 -0.0032
14392TIP3    H164667   2.533   3.694  16.471 -0.1384 -0.3443  1.3160
14392TIP3    H264668   2.674   3.690  16.526  1.0328  0.4054 -1.4486
14393TIP3   OH264669   5.454   3.060  13.009  0.1576  0.6122  0.7108
14393TIP3    H164670   5.384   3.088  12.951  2.4485  1.3644 -1.9188
14393TIP3    H264671   5.420   2.982  13.052 -1.4187 -0.5459 -2.3596
14394TIP3   OH264672   4.317   0.997  15.709  0.0805  0.1852  0.5550
14394TIP3    H164673   4.268   0.952  15.778  0.2728 -1.8578 -0.5946
14394TIP3    H264674   4.407   0.999  15.740  0.5221 -2.4076 -0.3717
14395TIP3   OH264675   3.065   0.080   3.414 -0.3912 -0.4116  0.2853
14395TIP3    H164676   2.995   0.137   3.381 -2.0159 -1.6802  1.3227
14395TIP3    H264677   3.055  -0.001   3.364  0.6198 -0.4940  0.1932
14396TIP3   OH264678   3.517   0.160  11.336 -0.1621  0.6160 -0.3887
14396TIP3    H164679   3.577   0.101  11.291 -0.9090  0.4378 -1.1717
14396TIP3    H264680   3.489   0.222  11.269 -0.5905  0.9043  0.0489
14397TIP3   OH264681   4.965   2.961   1.613 -0.2552  0.6128 -0.7174
14397TIP3    H164682   4.912   2.956   1.693  2.4911 -0.9568  1.1806
14397TIP3    H264683   4.951   2.876   1.570  0.6131  0.2255 -0.2506
14398TIP3   OH264684   4.995   5.945   0.136  0.3585  0.3254 -0.2146
14398TIP3    H164685   5.053   6.019   0.115  0.7943 -0.3889 -1.7269
14398TIP3    H264686   4.918   5.960   0.081  0.6382 -0.5432 -0.8647
14399TIP3   OH264687   2.005   4.377  16.928  0.0411 -0.3485  0.5054
14399TIP3    H164688   1.916   4.355  16.900  0.6348 -1.0782 -0.9000
14399TIP3    H264689   2.061   4.346  16.857  1.2218  2.7563 -0.0939
14400TIP3   OH264690   3.766   5.458  11.424 -0.1524  0.6221 -0.3832
14400TIP3    H164691   3.789   5.517  11.352 -0.4217  1.0965 -0.0863
14400TIP3    H264692   3.684   5.418  11.396  0.2153  0.1086 -0.7471
14401TIP3   OH264693   5.287   2.125  16.659 -0.0266  0.5861 -0.4361
14401TIP3    H164694   5.272   2.135  16.753 -1.1619  0.5747 -0.5949
14401TIP3    H264695   5.357   2.060  16.652 -1.4760 -1.1550  0.3933
14402TIP3   OH264696   5.129   1.795  16.158 -0.0316  0.1718  0.0120
14402TIP3    H164697   5.200   1.853  16.185  1.4454 -0.5724 -2.0072
14402TIP3    H264698   5.065   1.852  16.116  0.8687  0.5205 -0.9312
14403TIP3   OH264699   4.212   5.473   1.189 -0.8399  0.5370 -0.0585
14403TIP3    H164700   4.161   5.401   1.152  1.8695 -0.5075 -2.0457
14403TIP3    H264701   4.297   5.434   1.209 -0.1524  2.6180  1.3763
14404TIP3   OH264702   2.822   6.279   5.030  0.6545 -0.0172 -0.2763
14404TIP3    H164703   2.912   6.268   5.061  0.2043 -0.9701  0.7618
14404TIP3    H264704   2.793   6.361   5.068  0.3319 -0.8505  1.3592
14405TIP3   OH264705   4.856   3.956   0.250 -0.2722  0.1468 -0.5611
14405TIP3    H164706   4.815   4.043   0.248 -1.9145 -0.5837 -1.4994
14405TIP3    H264707   4.849   3.928   0.342 -0.6367  0.6164 -0.4417
14406TIP3   OH264708   0.055   2.629  11.403  0.7346  0.7343 -0.8058
14406TIP3    H164709   0.058   2.647  11.497  2.0200 -0.4094 -0.6124
14406TIP3    H264710   0.098   2.545  11.392 -0.4149  0.2765 -2.3042
14407TIP3   OH264711   0.360   0.617   4.727 -0.1437 -0.3809  0.0075
14407TIP3    H164712   0.441   0.644   4.769 -1.4564  0.0820  2.4062
14407TIP3    H264713   0.321   0.699   4.695  0.6292 -0.6803 -1.8566
14408TIP3   OH264714   3.255   1.283   0.896  0.0349  0.3066  0.0772
14408TIP3    H164715   3.296   1.365   0.870 -1.0552  0.9806  0.3916
14408TIP3    H264716   3.177   1.310   0.945 -0.2558 -0.9189  0.3243
14409TIP3   OH264717   2.788   4.767   6.197 -0.8139 -0.5692 -0.6047
14409TIP3    H164718   2.867   4.740   6.244 -0.2102 -0.5483 -1.5905
14409TIP3    H264719   2.819   4.799   6.113 -1.6483  1.6199 -0.1573
14410TIP3   OH264720   6.605   6.720  10.671 -0.5998  0.2435  0.4645
14410TIP3    H164721   6.586   6.745  10.761 -0.1837 -2.0365  1.2550
14410TIP3    H264722   6.557   6.639  10.657 -0.4086  0.3818 -1.2864
14411TIP3   OH264723   3.956   6.281  15.044 -0.3874  0.3280  0.1914
14411TIP3    H164724   3.970   6.365  15.000 -1.0213 -0.0958 -0.8423
14411TIP3    H264725   3.949   6.304  15.137  0.6241  1.2711  0.0518
14412TIP3   OH264726   3.540   2.822   0.461  0.4368  0.3909  0.4295
14412TIP3    H164727   3.589   2.740   0.460 -1.5685 -0.8955  0.0367
14412TIP3    H264728   3.536   2.849   0.369 -0.8664 -0.3856  0.2266
14413TIP3   OH264729   0.185   1.722  15.611 -0.0081 -0.3530 -0.1004
14413TIP3    H164730   0.181   1.732  15.516 -0.3145  0.6576  0.0096
14413TIP3    H264731   0.103   1.679  15.635  0.1220 -0.7136 -0.3076
14414TIP3   OH264732   3.783   6.257   1.175  0.5634 -0.0767  0.3152
14414TIP3    H164733   3.720   6.325   1.152  0.5754 -0.6830 -1.7287
14414TIP3    H264734   3.729   6.185   1.209  0.4665  0.5552  1.5475
14415TIP3   OH264735   1.381   5.013  16.424 -0.4613  0.1729 -0.3598
14415TIP3    H164736   1.398   5.104  16.401 -1.8554  0.5360 -0.0850
14415TIP3    H264737   1.467   4.974  16.439  0.1743  1.2903 -1.0615
14416TIP3   OH264738   0.191   3.500  15.425 -0.4901  0.0357  0.1059
14416TIP3    H164739   0.159   3.568  15.366 -0.5534  1.5678  1.8155
14416TIP3    H264740   0.112   3.466  15.468 -0.2250  1.7136  2.1182
14417TIP3   OH264741   0.729   1.833  16.268 -0.5902 -0.3048  0.3934
14417TIP3    H164742   0.675   1.889  16.212  1.2892  0.2014 -1.0296
14417TIP3    H264743   0.721   1.871  16.355 -1.3109  0.6825 -0.0848
14418TIP3   OH264744   4.782   3.410  12.346 -0.5424  0.8582  0.4401
14418TIP3    H164745   4.854   3.458  12.307 -0.5388  0.4317 -0.0975
14418TIP3    H264746   4.711   3.417  12.282 -0.7950  0.8242  0.7169
14419TIP3   OH264747   3.730   0.735  15.423 -0.0714  0.1153 -0.0125
14419TIP3    H164748   3.753   0.821  15.458 -1.2428  0.6335 -0.4792
14419TIP3    H264749   3.751   0.741  15.330  2.5827 -1.0993  0.4229
14420TIP3   OH264750   0.240   6.177  16.741  0.0754 -0.2150  0.1274
14420TIP3    H164751   0.334   6.162  16.732 -0.0058  0.2766 -1.9004
14420TIP3    H264752   0.221   6.151  16.831  1.9459 -1.3237  0.2650
14421TIP3   OH264753   0.658   5.171  14.625 -0.8581  0.2226  0.4125
14421TIP3    H164754   0.746   5.134  14.620 -0.8959  0.2941 -1.1678
14421TIP3    H264755   0.602   5.106  14.582 -1.3947  0.7245  0.3366
14422TIP3   OH264756   0.372   1.225   6.237 -0.3838  0.5111  0.6315
14422TIP3    H164757   0.282   1.208   6.263 -0.5013 -0.8859 -0.5983
14422TIP3    H264758   0.379   1.321   6.236 -1.5171  0.6299  1.7755
14423TIP3   OH264759   4.475   0.750  17.013  0.9764  0.3698 -0.0866
14423TIP3    H164760   4.461   0.695  17.090 -4.4995  0.8483 -0.3603
14423TIP3    H264761   4.496   0.837  17.049  2.0967 -0.1600  0.6156
14424TIP3   OH264762   5.606   0.768   6.098  0.0119  0.4647  0.1770
14424TIP3    H164763   5.590   0.849   6.051  0.0276  0.1089 -0.4487
14424TIP3    H264764   5.589   0.790   6.190  1.9787  1.6897  0.2969
14425TIP3   OH264765   3.093   5.643  16.640 -0.3267 -0.4151 -0.4834
14425TIP3    H164766   3.180   5.619  16.610  0.7776  1.3704  1.0901
14425TIP3    H264767   3.084   5.735  16.615 -4.1462 -1.7071 -5.7942
14426TIP3   OH264768   0.262   3.467  11.408 -0.0179  0.0027  0.5373
14426TIP3    H164769   0.326   3.506  11.468  0.5789  2.0640 -1.2923
14426TIP3    H264770   0.206   3.541  11.382 -0.1417 -0.7471 -1.5224
14427TIP3   OH264771   3.153   0.436  12.140 -0.2581 -0.0032 -0.3875
14427TIP3    H164772   3.191   0.358  12.179 -0.5402 -0.0664 -0.2379
14427TIP3    H264773   3.097   0.403  12.070  0.7094  0.1373 -1.2566
14428TIP3   OH264774   3.788   2.096  13.420 -0.1379 -0.3549 -0.0097
14428TIP3    H164775   3.847   2.024  13.443  0.4182  0.0916 -0.0203
14428TIP3    H264776   3.795   2.103  13.325 -1.5465 -1.4358 -0.2269
14429TIP3   OH264777   4.428   3.571   2.505 -0.3987  0.2282 -0.1296
14429TIP3    H164778   4.386   3.621   2.435 -0.8592  1.7466  1.1429
14429TIP3    H264779   4.355   3.529   2.551 -0.2015  0.0256 -0.0012
14430TIP3   OH264780   3.644   2.744   4.703  0.4308 -0.1191  0.2751
14430TIP3    H164781   3.618   2.699   4.623 -0.1764 -1.6583  1.3121
14430TIP3    H264782   3.562   2.763   4.748  0.5912  2.7228 -0.4321
14431TIP3   OH264783   5.733   3.551   1.306  0.0165  0.4570 -0.1655
14431TIP3    H164784   5.676   3.572   1.380  0.1677  0.2851  0.0024
14431TIP3    H264785   5.693   3.473   1.267 -0.8834  1.3694 -1.1502
14432TIP3   OH264786   3.209   1.758  13.221  0.6028 -0.5623 -0.3767
14432TIP3    H164787   3.190   1.821  13.152 -1.0726  0.6027  1.0828
14432TIP3    H264788   3.297   1.782  13.251 -0.2387  1.5722  0.5815
14433TIP3   OH264789   3.932   1.108   5.352 -0.1243 -0.2868  0.5790
14433TIP3    H164790   4.015   1.080   5.314 -0.3060  0.2763 -0.2468
14433TIP3    H264791   3.957   1.167   5.423  0.1747 -0.0085  0.2433
14434TIP3   OH264792   1.811   3.937  13.045  0.0746 -0.0251 -0.0624
14434TIP3    H164793   1.845   3.861  13.091 -1.5417 -0.9229 -0.2698
14434TIP3    H264794   1.888   3.990  13.024  1.3471 -2.0347 -0.7175
14435TIP3   OH264795   4.504   5.134  11.193  0.2452  0.0060  0.3431
14435TIP3    H164796   4.486   5.077  11.118  0.1570  0.1299  0.2690
14435TIP3    H264797   4.422   5.136  11.242  0.4349 -0.4316  0.6849
14436TIP3   OH264798   6.182   0.306  17.223 -0.2649  0.8642 -0.0706
14436TIP3    H164799   6.264   0.328  17.268 -0.6263  2.8854 -0.3261
14436TIP3    H264800   6.166   0.380  17.164 -1.0741 -0.5908 -1.7674
14437TIP3   OH264801   0.533   2.297   0.101 -0.2965 -0.2250  0.4942
14437TIP3    H164802   0.467   2.313   0.033  0.0510  0.0363  0.2162
14437TIP3    H264803   0.592   2.233   0.062  0.1793  0.2861  0.3608
14438TIP3   OH264804   1.727   0.524   4.551 -0.6559  0.8413  0.6360
14438TIP3    H164805   1.703   0.593   4.488  0.5756  0.8829  0.1911
14438TIP3    H264806   1.693   0.443   4.512  1.2445  0.6672 -0.8134
14439TIP3   OH264807   2.857   2.218   5.675 -0.1024 -0.1275 -0.2934
14439TIP3    H164808   2.850   2.296   5.730 -1.9959 -0.8347  0.5723
14439TIP3    H264809   2.937   2.231   5.624  1.7459  0.6170  2.5631
14440TIP3   OH264810   2.944   1.391   3.650 -0.2555  0.0029 -0.1483
14440TIP3    H164811   2.965   1.298   3.655  0.2966  0.0352 -1.5476
14440TIP3    H264812   2.947   1.412   3.557  0.1994  1.5460  0.1806
14441TIP3   OH264813   4.607   3.533  12.712 -0.2231 -0.0918  0.2767
14441TIP3    H164814   4.561   3.544  12.628  1.4763 -1.0464 -0.8443
14441TIP3    H264815   4.539   3.545  12.778 -1.5448  1.1201 -1.2107
14442TIP3   OH264816   5.420   4.716  12.463 -0.9816 -0.2024 -0.1782
14442TIP3    H164817   5.470   4.635  12.475  0.4845  0.9164  2.0140
14442TIP3    H264818   5.443   4.745  12.375 -1.3578 -2.0230 -0.9153
14443TIP3   OH264819   0.196   5.124   4.627 -0.5404  0.3503 -0.6094
14443TIP3    H164820   0.158   5.103   4.712 -0.1042 -0.6206 -0.6438
14443TIP3    H264821   0.156   5.063   4.566  0.7194 -0.4270 -0.7132
14444TIP3   OH264822   5.534   3.024  12.571 -0.7479 -0.0473 -0.3577
14444TIP3    H164823   5.581   2.984  12.497 -0.9983 -0.4318 -0.3118
14444TIP3    H264824   5.516   2.950  12.630 -2.3972 -0.1059 -0.8954
14445TIP3   OH264825   5.381   6.525  12.855 -0.3290  0.4027 -0.4852
14445TIP3    H164826   5.439   6.559  12.787 -0.9637  0.2832 -1.1027
14445TIP3    H264827   5.439   6.477  12.915  0.1104 -0.3969 -1.5200
14446TIP3   OH264828   4.820   5.092  15.995  0.3939 -0.4457  0.1603
14446TIP3    H164829   4.829   5.037  16.074  2.5564 -0.4222 -0.0013
14446TIP3    H264830   4.880   5.165  16.010 -2.1565  1.8162  0.2148
14447TIP3   OH264831   0.228   6.693  15.142 -0.5891 -0.8487  0.0395
14447TIP3    H164832   0.147   6.650  15.114  0.0098 -1.4354 -0.8310
14447TIP3    H264833   0.298   6.633  15.117  0.0294 -1.3800  2.7135
14448TIP3   OH264834   2.918   5.553  13.984  0.4290 -0.4142 -0.3084
14448TIP3    H164835   2.857   5.501  14.037 -0.2662 -0.2307 -0.9107
14448TIP3    H264836   2.999   5.554  14.035 -0.5937  0.8528  1.3977
14449TIP3   OH264837   3.010   1.320  16.105 -0.2245  0.0258  0.4687
14449TIP3    H164838   3.056   1.247  16.065 -0.5456  1.2279 -2.3224
14449TIP3    H264839   2.926   1.285  16.131  0.7032 -1.2397  1.9119
14450TIP3   OH264840   3.073   1.514  13.305 -0.6192 -0.4677 -0.4348
14450TIP3    H164841   3.059   1.446  13.238 -2.8423  0.4793 -1.0242
14450TIP3    H264842   3.082   1.595  13.255 -2.6820  0.3157  0.3326
14451TIP3   OH264843   5.481   0.524  11.895 -0.1525  0.4612 -0.4394
14451TIP3    H164844   5.416   0.574  11.845  1.7015  1.3756 -2.0580
14451TIP3    H264845   5.563   0.538  11.848  0.9746 -1.8223  0.7125
14452TIP3   OH264846   3.242   4.840   1.322 -0.1848  0.3736 -0.2432
14452TIP3    H164847   3.278   4.754   1.344 -1.8096  0.2789  2.3599
14452TIP3    H264848   3.156   4.821   1.284 -0.2599  0.8277 -0.3091
14453TIP3   OH264849   2.446   5.553  15.347 -0.1179 -0.0051 -0.5993
14453TIP3    H164850   2.496   5.521  15.272  3.1359 -1.9179  2.1011
14453TIP3    H264851   2.382   5.484  15.365 -0.1554 -0.0581 -0.9301
14454TIP3   OH264852   6.126   0.531  14.945  0.2989  0.0125 -0.2505
14454TIP3    H164853   6.033   0.548  14.962  0.6750 -0.3211  2.6114
14454TIP3    H264854   6.159   0.614  14.911 -0.5643  0.9967  1.1562
14455TIP3   OH264855   0.636   4.657  16.229  0.3378 -0.3452 -0.4890
14455TIP3    H164856   0.698   4.718  16.268  2.1550 -1.6420 -1.1676
14455TIP3    H264857   0.591   4.617  16.303 -0.5679  1.4331 -0.0244
14456TIP3   OH264858   1.063   1.491  16.353 -0.4904 -0.1869 -0.4413
14456TIP3    H164859   1.125   1.521  16.287 -1.6727  1.2524 -0.9601
14456TIP3    H264860   0.991   1.452  16.302 -0.2653 -1.4033  0.1290
14457TIP3   OH264861   6.232   2.635   5.188 -0.2279  0.6008  0.2312
14457TIP3    H164862   6.216   2.712   5.133  1.9687  0.5816 -0.5511
14457TIP3    H264863   6.227   2.561   5.127 -1.2160  0.2171  0.7593
14458TIP3   OH264864   1.848   2.422  13.383 -0.3443  0.7916  0.3112
14458TIP3    H164865   1.841   2.350  13.445 -0.8045 -0.2479 -0.8918
14458TIP3    H264866   1.816   2.498  13.431  2.4558  0.7915  2.4387
14459TIP3   OH264867   6.338   1.734  15.628 -0.2355  0.0761 -0.4200
14459TIP3    H164868   6.376   1.820  15.638  0.1314  0.0299 -1.3436
14459TIP3    H264869   6.254   1.739  15.676  0.5282  0.4108  0.9436
14460TIP3   OH264870   2.563   4.174  14.759 -0.0924 -0.3037  0.3420
14460TIP3    H164871   2.470   4.197  14.766  0.2814  1.3567  0.3523
14460TIP3    H264872   2.588   4.146  14.847 -0.0971  1.3783  0.9177
14461TIP3   OH264873   1.643   5.217   1.915  0.2919 -0.5219 -0.2545
14461TIP3    H164874   1.636   5.261   2.000 -0.2278 -0.6950 -0.2053
14461TIP3    H264875   1.667   5.127   1.937 -1.0538 -0.8874 -0.2123
14462TIP3   OH264876   3.265   1.296   4.121 -0.1250  0.0418 -0.1909
14462TIP3    H164877   3.181   1.322   4.084  0.2082  0.7416 -0.4723
14462TIP3    H264878   3.284   1.363   4.187  1.1269  1.0188 -1.4824
14463TIP3   OH264879   2.822   3.473  15.794  0.6217 -0.6945  0.2952
14463TIP3    H164880   2.779   3.484  15.709  0.3648  2.2473  0.6784
14463TIP3    H264881   2.750   3.460  15.856  0.7619 -2.0783  0.1965
14464TIP3   OH264882   1.660   1.092   2.040  0.1313  0.7024 -0.7444
14464TIP3    H164883   1.737   1.086   1.983 -0.2589 -2.0233 -1.1525
14464TIP3    H264884   1.696   1.084   2.128  0.3548 -0.8388 -0.9441
14465TIP3   OH264885   5.215   0.959   2.409 -0.2411 -0.3819  0.3021
14465TIP3    H164886   5.146   0.943   2.474  0.2601  1.6732  1.4488
14465TIP3    H264887   5.215   1.054   2.398  3.0796 -0.1772  1.1571
14466TIP3   OH264888   2.532   5.988  14.894  0.0665  0.5801  0.3899
14466TIP3    H164889   2.468   6.039  14.844 -0.1274  0.9120  0.9646
14466TIP3    H264890   2.593   5.956  14.828 -0.7050  0.2301 -0.1744
14467TIP3   OH264891   5.221   5.490   4.498 -0.0514  0.5347 -0.2717
14467TIP3    H164892   5.178   5.409   4.471 -1.5687  1.0265  0.5466
14467TIP3    H264893   5.290   5.504   4.433  0.6613 -1.7135 -0.0800
14468TIP3   OH264894   2.252   1.213   5.573 -0.2686 -0.4733  0.0833
14468TIP3    H164895   2.183   1.146   5.572 -0.0874 -0.6805  0.7372
14468TIP3    H264896   2.333   1.163   5.579  0.2498 -0.4187 -3.7261
14469TIP3   OH264897   6.199   1.553   5.458  0.4032  0.1237  0.4772
14469TIP3    H164898   6.161   1.501   5.387  0.4545  1.1319 -0.3191
14469TIP3    H264899   6.125   1.599   5.496  0.6782  1.5359 -0.6067
14470TIP3   OH264900   2.019   1.839  11.177 -1.1131  0.4698 -0.0093
14470TIP3    H164901   1.963   1.915  11.191 -3.5920 -0.7663 -2.2642
14470TIP3    H264902   2.094   1.873  11.129 -0.8320  1.8736  1.3552
14471TIP3   OH264903   4.177   2.656  16.436  0.4696 -0.1911  0.1162
14471TIP3    H164904   4.104   2.712  16.462 -0.0545 -0.3195 -1.0447
14471TIP3    H264905   4.255   2.700  16.472 -0.3438 -2.0292  4.8551
14472TIP3   OH264906   5.273   4.664   2.619 -0.0412  0.8642 -0.1486
14472TIP3    H164907   5.306   4.606   2.550 -0.5588  0.6325 -0.2080
14472TIP3    H264908   5.350   4.711   2.650  0.3533  0.2878 -0.2410
14473TIP3   OH264909   3.480   4.562   5.233  0.1814 -0.2770  0.5872
14473TIP3    H164910   3.512   4.510   5.159 -0.0552 -1.3147  1.1834
14473TIP3    H264911   3.386   4.568   5.219  0.2102 -0.0107  0.5169
14474TIP3   OH264912   2.229   0.462  16.025  0.0193 -0.3584 -0.7120
14474TIP3    H164913   2.300   0.477  15.963 -0.3026 -0.6693 -1.1575
14474TIP3    H264914   2.150   0.454  15.971 -0.5275  1.0231 -0.1552
14475TIP3   OH264915   0.901   5.532  13.873  0.2715 -0.0922  0.2946
14475TIP3    H164916   0.893   5.444  13.835  1.0288 -0.4730  0.9846
14475TIP3    H264917   0.994   5.543  13.888  0.3389  1.3810 -0.9987
14476TIP3   OH264918   1.737   4.220   6.488  0.4894  0.1077  0.0733
14476TIP3    H164919   1.779   4.154   6.544 -0.7570 -0.4638  0.3592
14476TIP3    H264920   1.762   4.195   6.399 -0.5619 -1.2065  0.1254
14477TIP3   OH264921   4.206   3.338   6.147  0.1333 -0.1027 -0.0640
14477TIP3    H164922   4.220   3.372   6.235 -0.0086 -1.9506  0.7032
14477TIP3    H264923   4.268   3.266   6.138 -1.5575 -1.5862 -0.5158
14478TIP3   OH264924   5.963   1.730  13.655 -0.1032  0.3597 -0.6676
14478TIP3    H164925   6.053   1.762  13.657  0.2814 -0.4750 -2.4675
14478TIP3    H264926   5.960   1.664  13.724  0.2681  1.3370  0.3031
14479TIP3   OH264927   2.521   3.058  13.343 -0.1594  0.6178 -0.1348
14479TIP3    H164928   2.542   3.134  13.396  0.9333  0.5323 -0.4266
14479TIP3    H264929   2.441   3.022  13.382 -0.6834  1.8920  0.0080
14480TIP3   OH264930   5.840   4.736   3.355  0.0523 -0.4594  0.3261
14480TIP3    H164931   5.840   4.830   3.376 -0.5376 -0.4497  0.2747
14480TIP3    H264932   5.930   4.719   3.326 -0.3648  0.5498 -1.7426
14481TIP3   OH264933   1.690   6.471   1.302 -0.1525  0.2113 -0.5370
14481TIP3    H164934   1.761   6.518   1.344 -0.1696  0.4829 -0.8075
14481TIP3    H264935   1.702   6.380   1.329 -1.6785  0.7095  2.2031
14482TIP3   OH264936   0.962   1.411  13.609 -0.4751 -0.0286  0.5359
14482TIP3    H164937   0.962   1.465  13.688  1.4819 -0.8959  1.1785
14482TIP3    H264938   0.900   1.455  13.551  1.3364  3.2839  0.8150
14483TIP3   OH264939   1.871   4.237  14.744 -0.0950 -0.1083  0.0049
14483TIP3    H164940   1.820   4.286  14.808  1.2928  0.6537  0.5709
14483TIP3    H264941   1.877   4.149  14.779 -2.4815 -0.7251 -0.9429
14484TIP3   OH264942   0.584   1.019  12.315  0.6474 -0.0215 -0.6038
14484TIP3    H164943   0.665   1.009  12.365  0.1812 -0.9802 -0.0114
14484TIP3    H264944   0.571   0.934  12.273  0.2289  0.2973 -1.1350
14485TIP3   OH264945   6.016   5.109   5.887 -0.1559 -0.0553 -0.2222
14485TIP3    H164946   6.088   5.112   5.824 -0.3785  0.9196 -0.4462
14485TIP3    H264947   5.977   5.196   5.883 -0.7652 -0.2787  0.5819
14486TIP3   OH264948   3.472   5.120   1.915 -0.2864 -0.2837 -0.2969
14486TIP3    H164949   3.513   5.165   1.989  0.2622  0.2830 -0.9333
14486TIP3    H264950   3.519   5.038   1.907  1.7932  0.9618 -1.9256
14487TIP3   OH264951   0.217   6.206  13.354 -0.4933 -0.4088 -0.2135
14487TIP3    H164952   0.132   6.181  13.318 -0.9796 -0.8867  1.2203
14487TIP3    H264953   0.267   6.125  13.356  0.0249 -0.1253 -1.0714
14488TIP3   OH264954   0.193   1.505   5.610  0.2585  0.3072  0.6394
14488TIP3    H164955   0.108   1.523   5.571  0.0772  1.2121  1.4197
14488TIP3    H264956   0.231   1.591   5.626  1.2296 -0.0846  0.5114
14489TIP3   OH264957   5.944   0.165   1.221  0.5120 -0.8083  0.1835
14489TIP3    H164958   6.003   0.208   1.282  1.2059 -2.5341  0.7842
14489TIP3    H264959   5.896   0.237   1.179  0.5453  0.4604  2.1890
14490TIP3   OH264960   3.714   4.414   2.633  0.5139 -0.4028 -0.1141
14490TIP3    H164961   3.747   4.356   2.703 -0.7775 -1.7830 -0.5837
14490TIP3    H264962   3.749   4.500   2.655  2.6956 -1.3727  0.5188
14491TIP3   OH264963   0.629   3.060  12.790  0.0905  0.0677 -0.4177
14491TIP3    H164964   0.721   3.072  12.765  1.0806 -0.1583  2.6622
14491TIP3    H264965   0.613   2.967  12.778  0.0104  0.2129 -1.5855
14492TIP3   OH264966   3.686   6.368  12.098  0.1645 -0.2639 -0.0366
14492TIP3    H164967   3.764   6.338  12.146 -1.0807 -0.2122  2.1804
14492TIP3    H264968   3.702   6.460  12.081  1.5952 -0.7945 -1.8087
14493TIP3   OH264969   1.426   2.382  15.583 -0.9376 -0.1517 -0.5902
14493TIP3    H164970   1.355   2.358  15.524 -1.3772 -1.6203  0.4977
14493TIP3    H264971   1.444   2.303  15.633 -0.9581  1.1917  1.6518
14494TIP3   OH264972   4.385   6.805  13.501 -0.4630  0.0215 -0.1124
14494TIP3    H164973   4.338   6.826  13.420 -1.4016 -1.4425  0.0083
14494TIP3    H264974   4.394   6.889  13.546 -1.6585  0.5703 -0.8359
14495TIP3   OH264975   6.274   5.643  15.831  0.3425  0.0047 -0.1283
14495TIP3    H164976   6.362   5.613  15.854  0.6104  0.6217 -0.3440
14495TIP3    H264977   6.288   5.721  15.778 -0.3699  1.1065  1.2548
14496TIP3   OH264978   3.629   2.636   1.449  0.3476 -0.2873 -0.1146
14496TIP3    H164979   3.561   2.570   1.462  0.8106 -1.0229 -1.2481
14496TIP3    H264980   3.677   2.637   1.531  0.5062 -1.5789 -0.1660
14497TIP3   OH264981   1.043   2.551  11.565  0.0913  0.3741 -0.5289
14497TIP3    H164982   0.988   2.516  11.495 -1.5495  0.8798  0.4360
14497TIP3    H264983   1.128   2.510  11.552 -0.9962 -1.8925 -1.0280
14498TIP3   OH264984   6.671   6.132  10.479 -0.5232  0.0522  0.4654
14498TIP3    H164985   6.663   6.062  10.415 -0.2741  2.3498 -2.3126
14498TIP3    H264986   6.586   6.135  10.522 -0.4832 -1.9809  0.7639
14499TIP3   OH264987   5.474   5.773   0.760 -0.5678 -0.3860  0.0906
14499TIP3    H164988   5.568   5.792   0.764 -0.7163  0.5403 -0.4921
14499TIP3    H264989   5.455   5.770   0.666 -1.2789  0.2858  0.2073
14500TIP3   OH264990   1.825   5.356   0.463  0.3790  0.0391 -0.4760
14500TIP3    H164991   1.831   5.329   0.554 -2.3507  0.8189  0.0095
14500TIP3    H264992   1.764   5.293   0.423  0.0527  0.8317 -1.2625
14501TIP3   OH264993   2.480   3.192  11.931  0.1640 -0.3428 -0.5157
14501TIP3    H164994   2.497   3.225  12.019 -0.7659  0.0345 -0.4672
14501TIP3    H264995   2.526   3.252  11.873  2.1223 -1.5071 -0.2381
14502TIP3   OH264996   1.416   6.671   0.850 -0.0266 -0.3450 -0.2659
14502TIP3    H164997   1.336   6.682   0.798  0.1101 -1.4544 -0.7495
14502TIP3    H264998   1.441   6.760   0.875 -0.2572  0.1998 -1.8603
14503TIP3   OH264999   3.443   3.141   1.176  0.1444  0.3223 -0.5998
14503TIP3    H165000   3.399   3.112   1.255  1.9518  0.3983  0.4874
14503TIP3    H265001   3.437   3.066   1.116 -0.4587 -0.0548 -0.0708
14504TIP3   OH265002   6.136   6.575   6.600 -0.1187 -0.1042 -0.3160
14504TIP3    H165003   6.182   6.641   6.653  0.0006  0.0032 -0.5483
14504TIP3    H265004   6.132   6.614   6.512  0.5178 -0.6720 -0.6128
14505TIP3   OH265005   1.495   2.022   2.159  0.2250 -0.1948  0.1129
14505TIP3    H165006   1.524   2.044   2.070  1.2028  0.8048  0.6523
14505TIP3    H265007   1.474   1.929   2.155 -0.5688  0.0060 -1.3680
14506TIP3   OH265008   2.284   2.007   2.232  0.1831 -0.8753 -0.4981
14506TIP3    H165009   2.319   1.946   2.296  0.3667 -0.2246  0.0306
14506TIP3    H265010   2.253   2.081   2.284  3.1424  1.0799 -1.3251
14507TIP3   OH265011   1.553   4.373   6.593 -0.0353  0.1567  0.1825
14507TIP3    H165012   1.641   4.345   6.568  0.8527  2.0999  0.9263
14507TIP3    H265013   1.556   4.468   6.587 -3.3523  0.2911 -3.8554
14508TIP3   OH265014   2.933   6.556   4.975  0.4020 -0.1118  0.8935
14508TIP3    H165015   2.850   6.573   4.929  1.0014  1.2085  0.2286
14508TIP3    H265016   2.911   6.559   5.068 -0.4988 -0.9528  0.7193
14509TIP3   OH265017   4.150   4.830  14.034  0.0787  0.6111 -0.0129
14509TIP3    H165018   4.131   4.845  13.941 -1.1664  1.0094  0.2929
14509TIP3    H265019   4.066   4.808  14.073  0.4744  1.0866  1.1489
14510TIP3   OH265020   0.212   2.467  13.863  0.0418  0.4683  0.1215
14510TIP3    H165021   0.205   2.372  13.872  1.7806  0.2226 -0.6534
14510TIP3    H265022   0.175   2.486  13.777  0.3391  0.3941 -0.0237
14511TIP3   OH265023   4.282   2.010   1.832  0.2748  0.1619  0.5120
14511TIP3    H165024   4.247   1.941   1.888  0.9063 -1.8390 -1.4544
14511TIP3    H265025   4.371   2.025   1.865  0.9052 -1.5180 -0.3312
14512TIP3   OH265026   0.387   1.343   3.817 -0.3632 -0.0970 -0.0188
14512TIP3    H165027   0.398   1.329   3.723  1.1961  0.1084  0.1053
14512TIP3    H265028   0.452   1.286   3.858 -0.6057  0.2717  0.9143
14513TIP3   OH265029   4.240   5.267  16.881  0.0515 -0.1635  0.2404
14513TIP3    H165030   4.326   5.249  16.843 -0.4807  0.3168 -1.2717
14513TIP3    H265031   4.214   5.351  16.843 -2.3448 -1.6696 -1.7523
14514TIP3   OH265032   2.892   5.681   1.815 -0.3939  0.1808 -0.2659
14514TIP3    H165033   2.980   5.708   1.840 -0.8618  1.4443  0.1038
14514TIP3    H265034   2.866   5.742   1.746 -1.0364 -0.0611 -0.2513
14515TIP3   OH265035   1.054   3.045   5.397 -0.0283 -0.9922  0.2550
14515TIP3    H165036   1.141   3.018   5.368 -0.3260 -0.6698 -0.9773
14515TIP3    H265037   1.051   3.139   5.382 -0.5061 -0.9637  0.5063
14516TIP3   OH265038   0.676   0.993   4.105 -0.6042  0.3526  0.1675
14516TIP3    H165039   0.679   0.962   4.195 -0.5095 -1.2922 -0.3667
14516TIP3    H265040   0.719   1.079   4.108 -1.0805  0.5709  1.7520
14517TIP3   OH265041   5.745   4.983   1.917  0.1408 -0.2394  0.6706
14517TIP3    H165042   5.666   4.993   1.864  0.6882 -0.2829 -0.1617
14517TIP3    H265043   5.720   5.018   2.003 -1.8772 -3.3059  1.5248
14518TIP3   OH265044   3.024   5.608  15.410 -0.0499 -0.2302  0.2515
14518TIP3    H165045   3.014   5.689  15.462 -1.2413 -0.3810  0.2918
14518TIP3    H265046   2.936   5.590  15.377  0.5330 -0.5950 -1.1691
14519TIP3   OH265047   5.918   2.675  16.018 -0.4402  0.3733  0.0971
14519TIP3    H165048   5.845   2.617  16.041 -0.3297 -0.5904 -1.8226
14519TIP3    H265049   5.876   2.759  16.001 -1.1489 -0.1877 -1.0763
14520TIP3   OH265050   2.872   4.347  10.452 -0.1521 -0.3495 -0.6075
14520TIP3    H165051   2.805   4.343  10.384 -0.8982 -2.5264  0.1838
14520TIP3    H265052   2.910   4.259  10.453  0.6587 -0.0126  0.9856
14521TIP3   OH265053   5.648   4.283  17.201  0.0130  0.3759 -0.2890
14521TIP3    H165054   5.680   4.311  17.287 -0.4214 -1.2858  0.4449
14521TIP3    H265055   5.555   4.264  17.214  0.0504 -0.3545 -1.0017
14522TIP3   OH265056   3.688   0.137  15.255 -0.9461  0.2082  0.3200
14522TIP3    H165057   3.703   0.107  15.165  0.7832  0.3892  0.5214
14522TIP3    H265058   3.747   0.211  15.266  0.2334 -0.9150  2.1493
14523TIP3   OH265059   1.880   2.013  12.087  0.2060 -0.2209  0.6995
14523TIP3    H165060   1.958   1.991  12.036 -0.0660 -0.1490  0.2366
14523TIP3    H265061   1.870   2.108  12.075 -0.1811 -0.2945  0.4178
14524TIP3   OH265062   2.040   5.800  11.496 -0.4844  0.4045  0.1766
14524TIP3    H165063   1.993   5.842  11.567 -0.3551  0.6572  0.1131
14524TIP3    H265064   1.996   5.830  11.417  0.8266  2.0134  0.0056
14525TIP3   OH265065   3.118   6.339   5.735 -0.0667 -0.2211  0.2802
14525TIP3    H165066   3.043   6.360   5.791  0.4547 -0.3636  1.0486
14525TIP3    H265067   3.193   6.337   5.795  0.3217 -1.5381 -0.2147
14526TIP3   OH265068   3.293   3.587  13.273 -0.6777 -0.3730  0.3652
14526TIP3    H165069   3.229   3.631  13.330 -1.0476  0.9595 -1.0180
14526TIP3    H265070   3.373   3.638  13.284 -0.2886 -1.0650  0.8501
14527TIP3   OH265071   2.547   1.319  12.256 -0.1999  0.1331 -0.1122
14527TIP3    H165072   2.609   1.263  12.303 -0.5539 -0.7403 -0.6683
14527TIP3    H265073   2.600   1.366  12.192 -0.0454 -0.2981 -0.3018
14528TIP3   OH265074   2.308   4.901  10.798 -0.1909 -0.8671 -0.1891
14528TIP3    H165075   2.256   4.825  10.823 -0.1584 -1.4661 -1.8475
14528TIP3    H265076   2.314   4.896  10.702 -0.9401  1.6797 -0.4547
14529TIP3   OH265077   3.130   3.497  12.053  0.3563 -0.0662  0.0675
14529TIP3    H165078   3.092   3.582  12.033 -0.3124 -0.1089  1.0580
14529TIP3    H265079   3.177   3.510  12.136  2.1012 -0.1431 -0.8686
14530TIP3   OH265080   1.426   6.174   3.335 -0.2495  0.1376 -0.2911
14530TIP3    H165081   1.488   6.242   3.360 -0.4568 -0.1826  1.1649
14530TIP3    H265082   1.362   6.219   3.280 -0.0700  0.9940  0.1856
14531TIP3   OH265083   0.825   5.624   2.611 -0.5509  0.0798  0.1312
14531TIP3    H165084   0.791   5.684   2.678 -1.4745 -0.1760 -0.0949
14531TIP3    H265085   0.757   5.557   2.602  0.5667 -1.1439  0.5466
14532TIP3   OH265086   1.785   2.620   5.927 -0.2986  0.0692 -0.4019
14532TIP3    H165087   1.813   2.532   5.953 -0.8933 -0.0408 -0.1261
14532TIP3    H265088   1.796   2.621   5.832 -0.0985 -0.2308 -0.3855
14533TIP3   OH265089   6.753   3.360   2.915 -0.2166 -0.3379  0.7337
14533TIP3    H165090   6.763   3.306   2.837 -2.4305  0.9209 -0.5239
14533TIP3    H265091   6.757   3.298   2.988  2.0492 -1.5272 -0.3036
14534TIP3   OH265092   2.813   3.349  13.937  0.5889 -0.2378  0.4158
14534TIP3    H165093   2.760   3.272  13.914 -1.3013  1.4540 -1.3807
14534TIP3    H265094   2.881   3.351  13.870  0.3905 -0.1286  0.2156
14535TIP3   OH265095   4.542   5.469  11.449 -0.4728  0.3370 -0.1177
14535TIP3    H165096   4.635   5.448  11.457 -0.2261  1.3191 -0.3507
14535TIP3    H265097   4.521   5.452  11.357 -0.1929  1.4160 -0.3850
14536TIP3   OH265098   2.438   1.235   2.515 -0.1776 -0.0390 -0.1328
14536TIP3    H165099   2.385   1.185   2.452  1.2358 -1.1862 -0.4556
14536TIP3    H265100   2.405   1.208   2.600 -0.5683 -0.2148 -0.3363
14537TIP3   OH265101   3.610   2.297  11.176 -0.3957  0.2141  0.1546
14537TIP3    H165102   3.597   2.323  11.085  1.6610  0.3615 -0.1423
14537TIP3    H265103   3.565   2.213  11.184  1.8493 -1.3285 -1.8968
14538TIP3   OH265104   2.462   0.996   5.245 -0.1871  0.1299 -0.8420
14538TIP3    H165105   2.384   0.990   5.190 -0.4896 -0.1325 -0.3880
14538TIP3    H265106   2.430   0.983   5.334  0.2023  1.2534 -0.5228
14539TIP3   OH265107   1.052   4.446  12.574 -0.6291 -0.1126 -0.1927
14539TIP3    H165108   0.999   4.371  12.601 -1.1685 -0.2035 -1.4435
14539TIP3    H265109   1.134   4.435  12.621 -0.8299 -1.2975 -0.0851
14540TIP3   OH265110   5.513   1.575   2.946 -0.5599  0.0513  0.2596
14540TIP3    H165111   5.600   1.556   2.980 -0.1317  0.2306 -0.7121
14540TIP3    H265112   5.524   1.576   2.851 -1.1272  2.4314  0.1726
14541TIP3   OH265113   0.464   5.289  16.147  0.9641 -0.2647  0.1518
14541TIP3    H165114   0.500   5.201  16.133  0.3819 -0.2523 -1.6508
14541TIP3    H265115   0.413   5.307  16.068 -2.1537  0.1586  2.0902
14542TIP3   OH265116   6.445   4.306   0.632 -0.0658  0.0982  0.0889
14542TIP3    H165117   6.418   4.395   0.610  0.0918 -0.3986 -2.3217
14542TIP3    H265118   6.534   4.298   0.598  0.1097 -0.8563  0.7031
14543TIP3   OH265119   4.006   3.963   0.229  0.3131 -0.1144 -0.4132
14543TIP3    H165120   4.082   3.995   0.180  0.5275  0.4102  0.2591
14543TIP3    H265121   3.959   4.041   0.256 -0.3524 -0.4301 -0.6269
14544TIP3   OH265122   5.274   4.741   1.585 -0.1887  0.1447  0.1901
14544TIP3    H165123   5.367   4.762   1.593 -0.1162  0.0130 -0.2661
14544TIP3    H265124   5.232   4.825   1.568 -0.3550  0.4371  1.9532
14545TIP3   OH265125   1.690   2.891  14.376 -0.1621 -0.1161  0.1528
14545TIP3    H165126   1.670   2.983  14.396 -0.0366  0.0264 -0.3683
14545TIP3    H265127   1.775   2.876  14.418  0.0425  0.1463 -0.1623
14546TIP3   OH265128   4.003   6.497   2.907  0.0503 -0.1773  0.4231
14546TIP3    H165129   3.928   6.455   2.866  1.3899 -1.6811 -0.5851
14546TIP3    H265130   4.023   6.572   2.850  0.4886 -0.9203 -0.4301
14547TIP3   OH265131   6.487   2.240   0.659 -0.6810  0.1874 -0.3401
14547TIP3    H165132   6.521   2.157   0.627 -1.2366 -0.6022  1.0166
14547TIP3    H265133   6.439   2.277   0.584 -0.1136 -0.5254 -1.0696
14548TIP3   OH265134   6.404   6.751  15.802  0.1404 -0.2435  0.7228
14548TIP3    H165135   6.444   6.826  15.846 -0.2852 -0.0148  0.7187
14548TIP3    H265136   6.310   6.765  15.811  0.0475 -0.2606 -0.1573
14549TIP3   OH265137   2.383   6.825  16.048  0.6731 -0.1856  0.7200
14549TIP3    H165138   2.422   6.737  16.045 -0.6896 -0.8306  1.0215
14549TIP3    H265139   2.366   6.845  15.956 -1.1389 -1.2690  0.7707
14550TIP3   OH265140   4.701   0.485  13.694  0.1060  0.1604  0.0155
14550TIP3    H165141   4.765   0.553  13.714  0.3563 -0.0020 -0.2225
14550TIP3    H265142   4.736   0.443  13.615 -1.2506  1.3000 -1.2546
14551TIP3   OH265143   2.350   3.685   1.433 -0.6985  0.3951 -0.3701
14551TIP3    H165144   2.280   3.646   1.381 -0.5434  0.1453 -0.3945
14551TIP3    H265145   2.425   3.627   1.420 -0.1039  1.3545 -1.3853
14552TIP3   OH265146   4.710   4.684  15.640 -0.2725  0.0587 -0.3515
14552TIP3    H165147   4.771   4.614  15.614 -0.3302  0.2957 -1.1440
14552TIP3    H265148   4.751   4.764  15.610 -0.1333  0.4037  0.7003
14553TIP3   OH265149   2.390   3.912   2.342  0.3612 -0.2449 -0.6058
14553TIP3    H165150   2.472   3.937   2.385  0.0789 -0.6819  0.2066
14553TIP3    H265151   2.416   3.853   2.272  0.7146 -0.7132 -0.0842
14554TIP3   OH265152   0.413   3.806   3.624 -0.7211  0.1062 -0.0339
14554TIP3    H165153   0.360   3.771   3.696  0.3612 -0.8691  0.3192
14554TIP3    H265154   0.454   3.885   3.661  0.8415 -1.0714  0.9120
14555TIP3   OH265155   5.873   0.483  12.991 -0.6989  0.2238 -0.0968
14555TIP3    H165156   5.905   0.573  12.989  1.2825 -0.4575 -0.8536
14555TIP3    H265157   5.804   0.484  13.058  0.8188  1.8105  1.5413
14556TIP3   OH265158   6.754   6.733   1.638  0.2161  0.6534 -0.2291
14556TIP3    H165159   6.835   6.703   1.680  0.1104  0.4823 -0.1474
14556TIP3    H265160   6.684   6.699   1.694  0.0393 -0.3015 -1.0038
14557TIP3   OH265161   3.884   1.178  13.973 -0.5279 -0.2816  0.0836
14557TIP3    H165162   3.883   1.210  13.883 -0.9950  1.4534  0.6534
14557TIP3    H265163   3.831   1.241  14.021 -0.8974 -1.5761  1.4557
14558TIP3   OH265164   6.192   1.518   5.142 -0.2670 -0.2168 -0.6239
14558TIP3    H165165   6.262   1.583   5.149 -0.2753 -0.2510 -0.2130
14558TIP3    H265166   6.230   1.448   5.089  0.2500 -0.5513  0.1768
14559TIP3   OH265167   5.601   2.824   5.441 -0.3383  0.2684  0.0454
14559TIP3    H165168   5.668   2.758   5.458  0.0360  0.9396  1.2792
14559TIP3    H265169   5.651   2.905   5.427 -0.7496  0.2193 -2.1245
14560TIP3   OH265170   4.328   3.315   2.124  0.1391  0.0295 -0.2380
14560TIP3    H165171   4.359   3.225   2.108  0.4689  0.1957 -0.5455
14560TIP3    H265172   4.258   3.328   2.061  1.7251  0.8357 -1.9237
14561TIP3   OH265173   5.810   1.411  15.224 -0.2144 -0.2955 -0.4216
14561TIP3    H165174   5.873   1.415  15.153 -1.6053 -0.4423 -1.7196
14561TIP3    H265175   5.832   1.331  15.271  0.7861 -0.1455 -0.6178
14562TIP3   OH265176   1.459   3.223  12.169 -0.9071 -0.4101  0.5326
14562TIP3    H165177   1.449   3.136  12.130 -0.2399  0.3211 -1.4017
14562TIP3    H265178   1.504   3.207  12.251  1.9641 -1.7399 -1.1260
14563TIP3   OH265179   6.590   5.877  17.101  0.3600  0.4057  0.3958
14563TIP3    H165180   6.555   5.798  17.059 -1.3280  0.5679  1.4019
14563TIP3    H265181   6.666   5.847  17.150 -0.8566 -0.8169  1.6021
14564TIP3   OH265182   6.530   2.335   5.758 -0.1149 -0.8974  0.3056
14564TIP3    H165183   6.618   2.348   5.724 -0.2839  1.1060  0.5239
14564TIP3    H265184   6.535   2.362   5.849 -1.3354  1.1496 -0.1656
14565TIP3   OH265185   6.793   5.669   1.841 -0.9043 -0.0003  0.0325
14565TIP3    H165186   6.833   5.666   1.755 -0.1230  0.7160  0.3577
14565TIP3    H265187   6.699   5.682   1.824 -1.0477 -1.7012 -0.7302
14566TIP3   OH265188   2.684   3.124  11.330  0.8253 -0.3260  0.0027
14566TIP3    H165189   2.623   3.197  11.321 -1.4100 -2.0006  0.6482
14566TIP3    H265190   2.696   3.093  11.241 -1.2377 -1.4116  0.0323
14567TIP3   OH265191   5.710   3.758  12.776 -0.1150  0.0715 -0.2171
14567TIP3    H165192   5.616   3.739  12.778 -0.3442  1.1538 -0.1392
14567TIP3    H265193   5.743   3.711  12.699 -0.6496 -0.5850 -0.0565
14568TIP3   OH265194   6.549   3.701   3.263 -0.0291 -0.4733 -0.3158
14568TIP3    H165195   6.562   3.764   3.334 -0.0667 -1.3859  0.5211
14568TIP3    H265196   6.516   3.753   3.190  0.2939  0.5311  0.2367
14569TIP3   OH265197   6.820   4.628   5.860 -0.0328  0.2046  0.3505
14569TIP3    H165198   6.880   4.561   5.827  0.3428 -0.1937  1.7907
14569TIP3    H265199   6.733   4.589   5.850  0.0893 -0.0097  0.0998
14570TIP3   OH265200   3.365   4.590  11.882 -0.1417  0.5810 -0.3107
14570TIP3    H165201   3.442   4.605  11.936 -1.2524 -1.1337  1.9302
14570TIP3    H265202   3.300   4.652  11.916 -0.2972  0.8249 -1.0262
14571TIP3   OH265203   3.079   5.236  16.727  0.0248  0.8561 -0.3783
14571TIP3    H165204   3.060   5.197  16.813 -0.6060 -0.7732 -1.2034
14571TIP3    H265205   3.174   5.230  16.717  0.1261  1.2671  0.2854
14572TIP3   OH265206   2.266   4.980   2.718  0.0058 -0.7132 -0.0004
14572TIP3    H165207   2.227   4.919   2.655  0.4952 -0.0176 -1.0232
14572TIP3    H265208   2.218   5.061   2.705 -0.3078 -0.7320  0.9976
14573TIP3   OH265209   5.176   5.368  17.068  0.1482 -0.2336  0.1957
14573TIP3    H165210   5.215   5.403  17.148 -0.0643 -0.0895  0.2370
14573TIP3    H265211   5.114   5.303  17.098  0.7520 -0.8624  0.1047
14574TIP3   OH265212   2.139   6.057   5.361 -0.0137 -0.3181 -0.2818
14574TIP3    H165213   2.216   6.090   5.406 -1.0428  3.2841 -0.8049
14574TIP3    H265214   2.171   6.026   5.276  0.9449  0.5151 -0.2329
14575TIP3   OH265215   4.519   0.041   0.823 -0.3048  0.2741 -0.1042
14575TIP3    H165216   4.446   0.102   0.809 -0.3064  0.8317  2.0521
14575TIP3    H265217   4.594   0.097   0.842  0.0894 -0.3548  0.2409
14576TIP3   OH265218   4.960   3.266   0.961 -0.1003 -0.1648 -0.0980
14576TIP3    H165219   5.027   3.264   1.029  0.6515 -0.2330 -0.8283
14576TIP3    H265220   4.946   3.174   0.937 -2.2930 -0.4178  1.7785
14577TIP3   OH265221   2.214   2.853   3.463  0.0533 -0.2486 -0.3622
14577TIP3    H165222   2.281   2.913   3.432  1.6970 -1.3220  0.9567
14577TIP3    H265223   2.220   2.856   3.558 -0.9687 -1.2549 -0.2338
14578TIP3   OH265224   3.847   1.675  12.357 -0.0309 -0.1455  0.1407
14578TIP3    H165225   3.811   1.596  12.399 -0.4409  0.2577  0.5660
14578TIP3    H265226   3.860   1.650  12.266 -0.6992 -0.5350  0.1448
14579TIP3   OH265227   0.838   4.117  13.923 -0.0819 -0.5568  0.1580
14579TIP3    H165228   0.867   4.188  13.865 -2.4333  0.0570 -0.3755
14579TIP3    H265229   0.793   4.161  13.995 -0.3061 -1.4619  0.5900
14580TIP3   OH265230   2.475   6.401   4.907 -0.1143 -0.2118 -0.5353
14580TIP3    H165231   2.560   6.412   4.865 -0.4444  0.7597 -1.0018
14580TIP3    H265232   2.492   6.410   5.000  0.4468 -1.1248 -0.5387
14581TIP3   OH265233   1.235   5.948   2.613  0.6530 -0.6703  0.2831
14581TIP3    H165234   1.229   6.039   2.581  1.0619 -1.0064 -0.7927
14581TIP3    H265235   1.156   5.936   2.665  0.4797  0.2338  0.2569
14582TIP3   OH265236   6.254   2.135  13.620 -0.1911  0.0689 -0.1130
14582TIP3    H165237   6.192   2.155  13.550 -1.6640 -1.1745  0.8054
14582TIP3    H265238   6.214   2.170  13.699  0.2848 -0.7413  0.4991
14583TIP3   OH265239   0.729   2.920   3.264  0.4881 -0.1605  0.4212
14583TIP3    H165240   0.738   2.906   3.170 -2.3646 -1.0035  0.1931
14583TIP3    H265241   0.770   2.844   3.304  1.5782  0.1263 -0.1068
14584TIP3   OH265242   6.102   1.894   0.532 -0.2629  0.4517 -0.1472
14584TIP3    H165243   6.180   1.945   0.512 -0.2046  0.8003  0.9266
14584TIP3    H265244   6.078   1.921   0.621 -0.2945 -1.3216  0.4079
14585TIP3   OH265245   4.740   2.240   4.073  0.0788  0.2699  0.1915
14585TIP3    H165246   4.737   2.328   4.034 -1.3650  0.7581  1.3002
14585TIP3    H265247   4.721   2.181   4.001  1.1770  0.8345 -0.5967
14586TIP3   OH265248   3.185   3.605  15.112 -0.0184  0.0129  0.1334
14586TIP3    H165249   3.204   3.511  15.111 -1.6211 -0.4049 -2.6593
14586TIP3    H265250   3.264   3.645  15.076  0.2067 -0.3815  0.1759
14587TIP3   OH265251   2.272   5.398  11.454  0.1387  0.3464 -0.0450
14587TIP3    H165252   2.295   5.468  11.515 -2.1650 -0.8649  2.4267
14587TIP3    H265253   2.179   5.411  11.437  0.1701 -0.8484 -1.2933
14588TIP3   OH265254   6.285   0.874   3.749 -0.0186 -0.1594 -0.0124
14588TIP3    H165255   6.312   0.821   3.674 -0.1843  0.9343 -0.8670
14588TIP3    H265256   6.222   0.819   3.796  0.7248 -1.1850 -0.1838
14589TIP3   OH265257   5.193   5.073   3.606 -0.7814  0.0158 -0.6258
14589TIP3    H165258   5.271   5.052   3.657 -0.0322 -0.7904 -2.0309
14589TIP3    H265259   5.124   5.018   3.643 -0.3363 -0.2977 -0.2569
14590TIP3   OH265260   1.140   4.793   5.631  0.0404 -0.7016 -1.3017
14590TIP3    H165261   1.148   4.720   5.693 -0.8060  0.1003 -0.2159
14590TIP3    H265262   1.231   4.820   5.615  0.2632 -0.7008 -0.1239
14591TIP3   OH265263   1.544   2.323   2.220  0.1164 -0.2369 -0.1708
14591TIP3    H165264   1.535   2.228   2.221 -0.4803 -0.1814  0.4334
14591TIP3    H265265   1.594   2.343   2.300 -0.6696  0.0291  0.2693
14592TIP3   OH265266   5.530   5.889   2.024 -0.4685  0.5154  0.8720
14592TIP3    H165267   5.505   5.966   2.075 -1.5211 -0.3631  1.7320
14592TIP3    H265268   5.449   5.859   1.982 -0.4732 -1.1001  1.9360
14593TIP3   OH265269   2.193   0.097  14.506 -0.1226 -0.7043  0.3352
14593TIP3    H165270   2.282   0.103  14.541  0.1432 -1.0884 -0.2759
14593TIP3    H265271   2.203   0.106  14.412 -0.8267  0.1297  0.3363
14594TIP3   OH265272   2.574   0.339   6.698  0.3514  0.4885 -0.4085
14594TIP3    H165273   2.646   0.283   6.670 -0.2187 -1.1831  1.2646
14594TIP3    H265274   2.615   0.422   6.721  1.5569 -0.0098 -0.7268
14595TIP3   OH265275   2.832   4.002  14.720 -0.0515 -0.5626 -0.0591
14595TIP3    H165276   2.880   4.061  14.778 -0.3737  0.2181 -0.5731
14595TIP3    H265277   2.755   4.052  14.693  0.8648 -0.3129 -2.3929
14596TIP3   OH265278   3.547   4.217   5.082  0.0938 -0.5108 -0.3936
14596TIP3    H165279   3.539   4.135   5.032  0.7408 -0.2886 -0.8741
14596TIP3    H265280   3.476   4.272   5.049  0.4855 -0.3852 -1.0448
14597TIP3   OH265281   2.131   3.337   6.331 -0.3047  0.2683  0.2405
14597TIP3    H165282   2.118   3.248   6.299 -1.1938  0.6888 -0.6116
14597TIP3    H265283   2.192   3.327   6.404 -0.9913 -1.1321  0.6660
14598TIP3   OH265284   1.515   4.847   6.070  0.0013 -0.5824 -0.1009
14598TIP3    H165285   1.454   4.917   6.046  0.7458 -0.4269 -1.7051
14598TIP3    H265286   1.473   4.802   6.143 -1.4511  0.2669 -0.3751
14599TIP3   OH265287   6.263   1.675  11.620  0.7879  0.7484  0.0653
14599TIP3    H165288   6.322   1.747  11.597  0.1264  1.0206 -0.8750
14599TIP3    H265289   6.211   1.709  11.693 -0.3599  1.7214 -1.1595
14600TIP3   OH265290   1.243   4.928   1.540  1.2143  0.2690 -0.0361
14600TIP3    H165291   1.181   4.908   1.469  0.7319 -0.4255  0.5659
14600TIP3    H265292   1.328   4.903   1.505  0.8311 -1.2939  0.0643
14601TIP3   OH265293   0.067   0.664   0.436  0.1164 -0.3323  0.0519
14601TIP3    H165294   0.159   0.675   0.411 -0.2764  0.5135 -1.1253
14601TIP3    H265295   0.044   0.745   0.481 -0.4665  0.1683 -1.0935
14602TIP3   OH265296   0.880   4.479  17.136  0.1673  0.6316  0.2954
14602TIP3    H165297   0.818   4.449  17.202  0.3773 -0.8360 -0.1353
14602TIP3    H265298   0.826   4.521  17.069 -0.2241  0.5735  0.5748
14603TIP3   OH265299   2.251   5.909  11.701 -0.1727  0.2120  0.2563
14603TIP3    H165300   2.188   5.890  11.632 -1.6383  1.7845  1.0963
14603TIP3    H265301   2.294   5.989  11.673 -2.3171  2.1354  2.0613
14604TIP3   OH265302   2.403   5.841   2.669 -0.7183 -0.0370  0.0530
14604TIP3    H165303   2.491   5.853   2.631 -1.9404 -0.5618 -3.2966
14604TIP3    H265304   2.392   5.746   2.674 -0.2120 -0.0276  3.0047
14605TIP3   OH265305   1.616   4.167   2.278  0.3512  0.2274  0.6375
14605TIP3    H165306   1.632   4.109   2.203  1.3641  1.4124 -0.1016
14605TIP3    H265307   1.552   4.120   2.331  2.4440 -2.4785  1.0430
14606TIP3   OH265308   5.265   6.340  16.743  0.7462  0.0047  0.1203
14606TIP3    H165309   5.248   6.317  16.652  1.3579  2.1147 -0.5832
14606TIP3    H265310   5.181   6.372  16.775  0.4037 -1.2095  0.4778
14607TIP3   OH265311   0.942   3.143  17.180 -0.2017  0.4419 -0.0127
14607TIP3    H165312   0.872   3.100  17.131  0.1971  0.1601 -0.3490
14607TIP3    H265313   0.998   3.181  17.112  0.1006  0.4514  0.2395
14608TIP3   OH265314   0.185   6.748   0.030  0.5895  0.0141  0.3760
14608TIP3    H165315   0.125   6.801  -0.023  0.5416  0.3837  0.7899
14608TIP3    H265316   0.269   6.794   0.024  1.2419 -1.3079 -1.4268
14609TIP3   OH265317   6.820   3.876   2.041 -0.0027 -0.1061 -0.2507
14609TIP3    H165318   6.794   3.797   1.994  0.5419 -0.8247  0.6193
14609TIP3    H265319   6.894   3.911   1.992  0.3451 -0.6583 -0.1241
14610TIP3   OH265320   6.384   6.001   1.117 -0.5858 -0.4146 -0.0901
14610TIP3    H165321   6.373   6.050   1.198 -0.5436 -2.6617  1.3697
14610TIP3    H265322   6.460   5.945   1.133  2.2052  2.0555 -3.3300
14611TIP3   OH265323   4.900   1.184   5.243  0.4383  0.7963 -0.3891
14611TIP3    H165324   4.834   1.201   5.176 -1.8665 -1.7049  1.0486
14611TIP3    H265325   4.861   1.217   5.324  1.8748  1.0956  0.2162
14612TIP3   OH265326   2.146   1.427   4.466  0.1042 -0.4280 -0.1183
14612TIP3    H165327   2.107   1.428   4.378  0.4263  1.2199 -0.2761
14612TIP3    H265328   2.143   1.335   4.493 -1.3278 -0.7484 -1.2582
14613TIP3   OH265329   5.223   4.693  12.633 -0.2934 -0.0887  0.2370
14613TIP3    H165330   5.281   4.620  12.657  0.4115  0.8774  1.6645
14613TIP3    H265331   5.264   4.732  12.556  0.2362 -0.2153  0.4473
14614TIP3   OH265332   0.148   2.032   3.688  0.0462 -0.4586  0.0841
14614TIP3    H165333   0.075   1.973   3.710 -0.2490 -0.3559 -0.5725
14614TIP3    H265334   0.109   2.095   3.627  0.4342  0.2354  0.5484
14615TIP3   OH265335   1.970   3.695   4.914 -0.0908  0.5099 -0.1133
14615TIP3    H165336   1.986   3.779   4.870 -0.4546  0.6661  0.0440
14615TIP3    H265337   1.896   3.713   4.973  0.4716  0.3295  0.6509
14616TIP3   OH265338   6.116   0.281  11.962  0.1069 -0.0185  0.6672
14616TIP3    H165339   6.060   0.206  11.983  0.4304 -0.2945  0.5573
14616TIP3    H265340   6.057   0.344  11.920 -0.4737  0.4037  2.0643
14617TIP3   OH265341   0.682   4.998   5.394 -0.6649 -0.1606  0.4334
14617TIP3    H165342   0.751   4.994   5.460  1.1055  0.7944 -1.2592
14617TIP3    H265343   0.680   4.910   5.356  1.0542  0.2863 -0.8195
14618TIP3   OH265344   4.095   0.265   4.684 -0.5773  0.2911  0.3217
14618TIP3    H165345   4.111   0.176   4.714 -0.7888  1.0325  2.8574
14618TIP3    H265346   4.100   0.259   4.589  1.4701 -2.0165  0.4697
14619TIP3   OH265347   0.289   4.774   5.031  0.3156  0.3508  0.2827
14619TIP3    H165348   0.326   4.832   4.965  1.4982 -1.7064 -0.9835
14619TIP3    H265349   0.351   4.776   5.103  0.8608 -0.0607 -0.1667
14620TIP3   OH265350   0.513   6.014   4.315  0.1462  0.5518 -0.1106
14620TIP3    H165351   0.483   6.054   4.396  0.0877  1.3626 -0.5219
14620TIP3    H265352   0.433   5.986   4.271  0.0842  1.2095 -0.4367
14621TIP3   OH265353   5.144   2.868   0.912  0.4048 -0.2200  0.3138
14621TIP3    H165354   5.203   2.808   0.868 -0.7295 -1.1851  0.0502
14621TIP3    H265355   5.159   2.953   0.870  0.2592 -0.8555 -1.0462
14622TIP3   OH265356   6.826   3.349  13.275  0.4864  0.0797 -0.4411
14622TIP3    H165357   6.825   3.344  13.179  1.5193  0.8469 -0.5131
14622TIP3    H265358   6.736   3.369  13.299  0.1081 -0.6472 -1.2186
14623TIP3   OH265359   5.272   3.260  15.757  0.2174  0.2274  0.0734
14623TIP3    H165360   5.333   3.226  15.691 -0.3443  0.7153 -0.7087
14623TIP3    H265361   5.193   3.281  15.708  0.5607  2.7872  0.4674
14624TIP3   OH265362   5.553   5.819   5.069  0.5877 -0.4810 -0.4084
14624TIP3    H165363   5.555   5.915   5.075  2.8781 -0.5314  1.0302
14624TIP3    H265364   5.490   5.801   5.001  0.3239  2.0805 -0.9662
14625TIP3   OH265365   1.600   2.532  11.834 -0.2877 -0.1082 -0.6098
14625TIP3    H165366   1.610   2.608  11.892  0.6106 -0.2342 -0.5789
14625TIP3    H265367   1.509   2.534  11.806  0.0119  1.7010 -1.5960
14626TIP3   OH265368   6.203   3.608  13.650  0.4376  0.5101 -0.0976
14626TIP3    H165369   6.249   3.663  13.586  1.2739  1.7945  1.5226
14626TIP3    H265370   6.178   3.669  13.719  0.3099 -0.9621  1.1984
14627TIP3   OH265371   6.774   1.125   2.038  0.1448 -0.2088 -0.3593
14627TIP3    H165372   6.729   1.207   2.059 -1.2857 -1.0913  0.1520
14627TIP3    H265373   6.860   1.153   2.008 -0.6407  1.5510 -1.1619
14628TIP3   OH265374   3.446   0.540  12.226 -0.8194 -0.2137  0.4078
14628TIP3    H165375   3.391   0.616  12.210 -0.7295 -0.4024 -0.9127
14628TIP3    H265376   3.535   0.570  12.205 -0.4688 -0.0944  1.9125
14629TIP3   OH265377   0.420   3.004  12.014 -0.0392  0.1578  0.2800
14629TIP3    H165378   0.497   3.038  11.968 -1.3189  0.8843 -1.4172
14629TIP3    H265379   0.360   2.979  11.944 -1.0037 -1.2543  1.5651
14630TIP3   OH265380   3.658   3.291   5.164 -0.3034 -0.0596  0.0952
14630TIP3    H165381   3.689   3.375   5.197  0.9904 -0.2673 -0.5290
14630TIP3    H265382   3.689   3.227   5.229 -0.8912 -0.1124  0.3322
14631TIP3   OH265383   5.428   6.712   1.386  0.5063  0.8277  0.1947
14631TIP3    H165384   5.421   6.670   1.472 -1.1997 -1.4715 -0.9308
14631TIP3    H265385   5.356   6.775   1.384 -0.2052  0.0302  0.0629
14632TIP3   OH265386   4.306   2.256   2.823  0.1809 -0.1624 -0.5677
14632TIP3    H165387   4.266   2.181   2.779  1.0711 -0.5860 -0.6822
14632TIP3    H265388   4.399   2.248   2.805  0.7002 -0.7393  1.9139
14633TIP3   OH265389   0.915   4.742   1.413  0.1936 -0.1040 -0.3842
14633TIP3    H165390   0.950   4.764   1.499 -1.2609  0.5158  0.0959
14633TIP3    H265391   0.898   4.648   1.418  0.8770 -0.2241 -0.2849
14634TIP3   OH265392   0.903   2.256   0.311 -0.7097 -0.2031 -0.2620
14634TIP3    H165393   0.895   2.338   0.360  0.7160  1.0586 -2.0195
14634TIP3    H265394   0.815   2.219   0.311 -1.0999  0.5938  1.7288
14635TIP3   OH265395   1.373   3.408   0.625 -0.0361 -0.2555 -0.3933
14635TIP3    H165396   1.434   3.392   0.553  0.7757  0.1838  0.1756
14635TIP3    H265397   1.360   3.323   0.666 -0.6957 -0.5564 -1.1872
14636TIP3   OH265398   6.087   0.338  12.880  0.1117 -0.4844 -0.2630
14636TIP3    H165399   6.089   0.382  12.795  0.7383  0.3674  0.1667
14636TIP3    H265400   5.999   0.355  12.914  0.2727  0.2851 -0.2010
14637TIP3   OH265401   1.115   1.476   2.603  0.0124  0.7499  0.5099
14637TIP3    H165402   1.046   1.533   2.570  1.1769  1.9053 -0.0521
14637TIP3    H265403   1.167   1.454   2.526  0.2180 -0.1907  0.9065
14638TIP3   OH265404   3.801   0.950   3.323 -0.1602 -0.4371 -0.0355
14638TIP3    H165405   3.771   1.041   3.333 -2.0570 -1.2388  2.4057
14638TIP3    H265406   3.764   0.904   3.398  0.7149 -3.2774 -1.2270
14639TIP3   OH265407   4.215   3.775  16.292 -0.1225  0.3316 -0.1610
14639TIP3    H165408   4.258   3.811  16.215  0.7522 -0.3744 -0.0108
14639TIP3    H265409   4.283   3.773  16.360 -0.7566  0.5164  0.5050
14640TIP3   OH265410   0.103   4.657  11.184 -0.3408 -1.3083  0.0035
14640TIP3    H165411   0.009   4.642  11.195 -0.0999 -1.8801  1.5003
14640TIP3    H265412   0.142   4.629  11.267  1.2497 -1.9057 -0.8993
14641TIP3   OH265413   5.888   6.557  15.375 -0.4067 -0.4707 -0.0777
14641TIP3    H165414   5.868   6.477  15.326  1.6631 -0.1955 -1.5217
14641TIP3    H265415   5.846   6.545  15.460 -3.0464 -1.5513 -1.4487
14642TIP3   OH265416   2.079   1.485  16.870  0.6121 -0.4484 -0.1152
14642TIP3    H165417   2.034   1.569  16.865  0.6343 -0.4622 -0.7173
14642TIP3    H265418   2.066   1.455  16.959 -2.2023 -1.3592 -0.7297
14643TIP3   OH265419   2.866   4.662   2.103  0.5551 -0.1267 -0.3149
14643TIP3    H165420   2.791   4.718   2.125 -1.0360 -1.8740 -0.9422
14643TIP3    H265421   2.900   4.698   2.021  1.1679  1.3638  0.5546
14644TIP3   OH265422   3.429   5.908  13.006  0.4311 -0.0241  0.3404
14644TIP3    H165423   3.461   5.876  12.922  0.9622  1.7255 -0.1628
14644TIP3    H265424   3.487   5.868  13.071 -0.4220 -1.9642 -0.0053
14645TIP3   OH265425   6.575   3.346  11.488  0.4182 -0.1994 -0.1793
14645TIP3    H165426   6.644   3.389  11.437  0.6484 -0.1463  0.1750
14645TIP3    H265427   6.558   3.264  11.441 -0.3599  0.4841 -1.1307
14646TIP3   OH265428   0.277   3.184  15.638  0.2852 -0.5954  0.6488
14646TIP3    H165429   0.365   3.192  15.602 -0.0652  1.1525  0.0798
14646TIP3    H265430   0.221   3.169  15.562 -0.0028 -0.8210  0.9037
14647TIP3   OH265431   6.009   6.346  16.903  0.2301  0.4393  0.6953
14647TIP3    H165432   5.945   6.353  16.974  0.7785  1.2965  1.1187
14647TIP3    H265433   6.043   6.257  16.909 -1.1264 -0.1343  0.2769
14648TIP3   OH265434   4.780   2.741   2.084  0.6692  0.3796  0.1895
14648TIP3    H165435   4.739   2.697   2.159 -0.8015  2.6808  0.8102
14648TIP3    H265436   4.755   2.833   2.093 -0.7402  0.5751 -3.8889
14649TIP3   OH265437   1.710   0.437   0.459 -0.2759 -0.0600 -0.2270
14649TIP3    H165438   1.668   0.473   0.381 -1.0031 -0.4083 -0.0134
14649TIP3    H265439   1.698   0.504   0.527 -1.5929 -0.6449  0.1596
14650TIP3   OH265440   3.684   1.962   6.291 -0.2551 -0.4145  0.0653
14650TIP3    H165441   3.685   2.057   6.279 -0.8266 -0.1825  1.5428
14650TIP3    H265442   3.775   1.939   6.310  0.3215 -0.5449 -2.5445
14651TIP3   OH265443   3.203   5.720   1.933  0.6180  0.1244 -0.1124
14651TIP3    H165444   3.178   5.747   2.021 -1.9665  2.4320 -1.3828
14651TIP3    H265445   3.264   5.648   1.946 -0.4131 -0.2870  3.5305
14652TIP3   OH265446   4.004   4.549   4.710 -0.2717  0.1622  0.2267
14652TIP3    H165447   4.027   4.570   4.620 -0.1713  0.3529  0.2942
14652TIP3    H265448   4.062   4.477   4.734  1.0001  1.2847  0.7162
14653TIP3   OH265449   5.475   4.627  16.525 -0.2293  0.4013  0.5692
14653TIP3    H165450   5.507   4.549  16.570  0.2870 -0.8672 -1.8481
14653TIP3    H265451   5.380   4.623  16.534 -0.1216  0.4179  1.8685
14654TIP3   OH265452   1.294   4.054   1.854 -0.4363 -0.7190  0.4281
14654TIP3    H165453   1.221   4.019   1.803 -0.3232 -0.0534 -0.2175
14654TIP3    H265454   1.305   4.143   1.820  0.0221 -0.4680  1.2226
14655TIP3   OH265455   6.478   5.529  10.690  0.3252  0.3574 -0.7120
14655TIP3    H165456   6.424   5.591  10.641 -1.3230 -1.7324 -1.7067
14655TIP3    H265457   6.432   5.518  10.773  0.2301 -0.0415 -0.8155
14656TIP3   OH265458   4.475   0.878  14.067  0.2140  0.5937 -0.4657
14656TIP3    H165459   4.511   0.883  13.978 -1.5637  2.5683 -1.1563
14656TIP3    H265460   4.484   0.966  14.101 -0.6630  0.2555  0.6848
14657TIP3   OH265461   6.653   0.734   2.901  0.3489 -0.1891 -0.1465
14657TIP3    H165462   6.697   0.814   2.873  2.5191 -1.3136 -0.2054
14657TIP3    H265463   6.656   0.678   2.823 -0.1787 -0.6961  0.1980
14658TIP3   OH265464   3.955   5.096  16.339  0.4693 -0.1937 -0.0431
14658TIP3    H165465   4.038   5.143  16.340  0.2913  0.1991 -1.6613
14658TIP3    H265466   3.897   5.149  16.284 -1.3474  0.2927  2.1871
14659TIP3   OH265467   2.306   1.607   6.338  0.0049 -0.2247  0.0225
14659TIP3    H165468   2.300   1.512   6.325 -1.9122  0.0365 -1.4914
14659TIP3    H265469   2.397   1.622   6.364  0.3315 -2.4726  0.3874
14660TIP3   OH265470   2.138   1.103  16.537  0.4443  0.3565 -0.7913
14660TIP3    H165471   2.084   1.078  16.462  1.1263 -0.1397 -1.1263
14660TIP3    H265472   2.077   1.146  16.597 -0.4993 -0.9211 -0.7897
14661TIP3   OH265473   1.555   2.398   1.764  0.6009  0.0123  0.8809
14661TIP3    H165474   1.637   2.445   1.779  0.1765  1.1017 -0.0782
14661TIP3    H265475   1.531   2.419   1.673 -1.1869  0.4493  1.4087
14662TIP3   OH265476   2.160   0.157   6.031 -0.0527 -0.1750  0.1528
14662TIP3    H165477   2.152   0.151   6.126  0.9646  1.2479  0.3509
14662TIP3    H265478   2.253   0.145   6.014 -0.2504 -0.5979 -0.6969
14663TIP3   OH265479   1.805   1.000  13.941  0.1588  0.6976 -0.0538
14663TIP3    H165480   1.863   0.980  13.868 -0.1710 -2.4508  0.4027
14663TIP3    H265481   1.724   1.030  13.899  0.5491  0.5852 -0.9099
14664TIP3   OH265482   2.671   3.467  15.071 -0.2573 -0.4698 -0.2710
14664TIP3    H165483   2.676   3.462  14.976 -1.0174  0.2418 -0.3565
14664TIP3    H265484   2.726   3.542  15.094 -1.7430  0.6837 -0.3414
14665TIP3   OH265485   3.681   4.472   4.480 -0.2707 -0.4438  0.7253
14665TIP3    H165486   3.597   4.511   4.504  0.1591  0.8180  0.2400
14665TIP3    H265487   3.722   4.451   4.565 -0.0975  1.0750  1.0337
14666TIP3   OH265488   3.412   0.512  14.880 -0.1561 -0.2203 -0.0817
14666TIP3    H165489   3.396   0.520  14.974  0.7965  1.8261 -0.0346
14666TIP3    H265490   3.329   0.540  14.840 -1.2541 -2.9543  0.0659
14667TIP3   OH265491   0.861   5.588   4.611 -0.2624 -0.1712  0.5531
14667TIP3    H165492   0.852   5.682   4.629  0.9073 -0.1447  1.0966
14667TIP3    H265493   0.833   5.546   4.692 -0.2767 -0.2781  0.4928
14668TIP3   OH265494   2.815   5.951  16.380  0.3665 -0.0245 -0.2899
14668TIP3    H165495   2.762   5.873  16.364  0.1721  0.2835 -1.2048
14668TIP3    H265496   2.780   6.017  16.319 -0.1815  1.1231  1.1988
14669TIP3   OH265497   3.980   0.738  12.610  0.1885 -0.4723  0.0915
14669TIP3    H165498   4.071   0.726  12.638  1.0030 -1.0879 -2.5281
14669TIP3    H265499   3.957   0.657  12.566 -0.5354  0.7501 -1.9519
14670TIP3   OH265500   2.633   2.383   3.701 -0.4419 -0.2065  0.4430
14670TIP3    H165501   2.728   2.391   3.686 -0.4649 -1.5866 -0.6303
14670TIP3    H265502   2.604   2.472   3.717  0.3776  0.9598 -3.4346
14671TIP3   OH265503   1.695   4.704   4.570  0.5817  0.0684 -0.0054
14671TIP3    H165504   1.692   4.627   4.627  0.5905  0.4121  0.4633
14671TIP3    H265505   1.652   4.773   4.620  1.6059  0.6780  0.0682
14672TIP3   OH265506   1.893   3.323  10.466  0.2399 -0.5094 -0.3867
14672TIP3    H165507   1.810   3.298  10.425 -1.1036  2.7554 -0.0199
14672TIP3    H265508   1.938   3.374  10.399  0.7715 -0.1239  0.2521
14673TIP3   OH265509   0.950   2.483  12.449 -0.1867 -0.4608 -0.1977
14673TIP3    H165510   0.914   2.571  12.437 -1.2408 -0.4444  2.3684
14673TIP3    H265511   0.930   2.438  12.368  0.0318  1.5358 -1.4391
14674TIP3   OH265512   3.283   1.159   4.901 -0.1858  0.3577 -0.1032
14674TIP3    H165513   3.215   1.116   4.953  0.9439 -0.7517  0.5031
14674TIP3    H265514   3.308   1.236   4.953  1.5964 -1.2355  1.5904
14675TIP3   OH265515   6.481   2.195  11.920 -0.1323 -0.0992 -0.7352
14675TIP3    H165516   6.454   2.154  12.002  0.6861 -0.0539 -0.4341
14675TIP3    H265517   6.412   2.172  11.858 -1.5670  1.1373  0.3265
14676TIP3   OH265518   5.331   1.204  13.078  0.2872 -0.8180  0.2625
14676TIP3    H165519   5.393   1.174  13.145  0.9927 -0.6879 -0.3163
14676TIP3    H265520   5.367   1.287  13.048  0.5444 -1.3583 -0.9926
14677TIP3   OH265521   2.580   2.121  12.922  0.3092 -0.1016  0.3451
14677TIP3    H165522   2.513   2.066  12.882  0.5298 -0.2336  0.1496
14677TIP3    H265523   2.543   2.148  13.006 -0.1683  0.1973  0.0412
14678TIP3   OH265524   4.919   6.503  11.802  0.0489  0.5407  0.0397
14678TIP3    H165525   4.863   6.447  11.748  1.3272 -0.1680 -0.6044
14678TIP3    H265526   4.859   6.545  11.863 -0.9964 -1.5396  0.5491
14679TIP3   OH265527   1.336   3.619  13.456 -0.5431 -0.5133 -0.7228
14679TIP3    H165528   1.292   3.537  13.436 -0.0821 -1.0632  0.4470
14679TIP3    H265529   1.424   3.608  13.420 -0.3633 -0.6854 -0.2342
14680TIP3   OH265530   4.717   6.220  11.879 -0.6680 -0.7906 -0.1704
14680TIP3    H165531   4.735   6.185  11.966 -1.4585 -1.5941 -0.3262
14680TIP3    H265532   4.623   6.211  11.867 -0.4638 -1.5119 -1.4616
14681TIP3   OH265533   3.788   1.970   3.959  0.6923  0.0429  0.3249
14681TIP3    H165534   3.804   2.039   4.023  0.2555  0.4715 -0.0217
14681TIP3    H265535   3.871   1.924   3.952  1.2244  1.0358 -0.0364
14682TIP3   OH265536   2.937   5.414   0.919  0.4429 -0.0952 -0.6698
14682TIP3    H165537   2.981   5.494   0.945 -0.5173  0.4516 -0.6693
14682TIP3    H265538   2.872   5.398   0.987  0.0689 -0.4179 -1.0931
14683TIP3   OH265539   3.831   1.290   2.199 -0.0430 -0.9037  0.0233
14683TIP3    H165540   3.744   1.330   2.192  0.0061 -0.9897 -1.2594
14683TIP3    H265541   3.840   1.269   2.292 -0.7438  0.5525  0.4605
14684TIP3   OH265542   5.117   3.100  11.400  0.2060 -0.5127 -0.3182
14684TIP3    H165543   5.093   3.142  11.482  0.5071  0.5307 -0.7483
14684TIP3    H265544   5.109   3.006  11.417 -1.4955 -0.2692  0.3427
14685TIP3   OH265545   1.486   6.348  13.229 -0.0147  0.1106 -0.1091
14685TIP3    H165546   1.401   6.368  13.189  0.0935 -1.8311 -1.4736
14685TIP3    H265547   1.546   6.411  13.191 -0.5134  0.2946 -0.6040
14686TIP3   OH265548   1.650   2.806   4.003 -0.5912 -0.4936 -0.0554
14686TIP3    H165549   1.680   2.774   4.088  1.7789 -0.6695 -0.8915
14686TIP3    H265550   1.724   2.789   3.944 -1.5350  1.1608 -1.7918
14687TIP3   OH265551   5.097   1.275  14.642  0.2056  0.4970  0.1182
14687TIP3    H165552   5.031   1.231  14.587  0.2414 -0.8507  1.1302
14687TIP3    H265553   5.116   1.356  14.594 -0.6559 -0.0605 -1.2445
14688TIP3   OH265554   6.037   0.770   1.034 -0.3132 -0.5922 -0.5840
14688TIP3    H165555   6.050   0.849   0.981 -2.5799 -1.2124 -2.2153
14688TIP3    H265556   6.066   0.795   1.122 -1.9620  2.4449 -0.7765
14689TIP3   OH265557   2.983   5.340  13.143  0.4377  0.1665  0.2403
14689TIP3    H165558   2.910   5.327  13.081 -0.5107 -0.4510  1.4499
14689TIP3    H265559   3.051   5.281  13.112  0.2155  0.3191 -0.5722
14690TIP3   OH265560   6.597   0.032  16.102  0.0308 -0.5193  0.3207
14690TIP3    H165561   6.584  -0.060  16.079  2.0072 -0.6738 -0.3975
14690TIP3    H265562   6.635   0.029  16.190  1.2299 -0.4929 -0.1763
14691TIP3   OH265563   0.326   2.265   6.080 -0.4859  0.1228 -0.1706
14691TIP3    H165564   0.339   2.346   6.031 -0.5516 -0.5852 -1.3993
14691TIP3    H265565   0.391   2.268   6.150  0.3608  0.6603 -0.9632
14692TIP3   OH265566   1.797   1.977   5.335 -0.2477 -0.2436  0.4223
14692TIP3    H165567   1.821   1.972   5.242 -2.3982 -0.5884 -0.1639
14692TIP3    H265568   1.717   2.029   5.337 -0.0111  0.1203  2.1528
14693TIP3   OH265569   5.880   5.858  15.659  0.5758  0.0448  0.1035
14693TIP3    H165570   5.811   5.889  15.601  1.6149  0.2698 -1.0521
14693TIP3    H265571   5.858   5.894  15.745  0.3948  1.9167 -0.6847
14694TIP3   OH265572   5.506   1.507  14.068  0.1387  0.6130  0.0281
14694TIP3    H165573   5.545   1.434  14.117 -0.4588  0.9662  1.0608
14694TIP3    H265574   5.460   1.558  14.134  0.7166  2.0578 -0.6481
14695TIP3   OH265575   5.662   0.979   4.009 -0.2272 -0.0582 -0.0984
14695TIP3    H165576   5.602   0.985   3.934 -0.9348 -0.8733  0.3728
14695TIP3    H265577   5.661   0.886   4.033  0.4601  0.0887  0.5460
14696TIP3   OH265578   4.806   2.095  16.265  0.7109  0.1178 -0.1469
14696TIP3    H165579   4.742   2.134  16.325  1.2540 -0.1989  0.6520
14696TIP3    H265580   4.769   2.010  16.243  0.6141  0.1479 -0.1018
14697TIP3   OH265581   0.284   6.626  11.177  0.1978 -0.2911  0.0525
14697TIP3    H165582   0.240   6.541  11.177 -0.1999 -0.1026  1.1465
14697TIP3    H265583   0.213   6.689  11.191  0.8157 -0.0296  2.5961
14698TIP3   OH265584   6.149   0.887  16.129 -0.5273 -0.1614  0.5249
14698TIP3    H165585   6.222   0.901  16.189 -0.9757 -3.8126  2.1726
14698TIP3    H265586   6.074   0.926  16.174 -0.0767  1.4914 -0.0769
14699TIP3   OH265587   3.206   4.976   2.763  0.8383 -0.0167  0.0542
14699TIP3    H165588   3.238   4.981   2.853  0.0098  3.2846  0.3226
14699TIP3    H265589   3.111   4.972   2.772  0.7712 -0.0870 -0.6697
14700TIP3   OH265590   3.069   1.592  12.118  0.5588 -0.7786 -0.5350
14700TIP3    H165591   3.047   1.685  12.119  0.2035 -0.8601 -0.6383
14700TIP3    H265592   3.090   1.574  12.026  0.4950 -0.8301 -0.5397
14701TIP3   OH265593   1.240   5.644  12.781  0.1037 -0.0950  0.7184
14701TIP3    H165594   1.173   5.576  12.788 -0.2168  0.1975  0.5217
14701TIP3    H265595   1.191   5.725  12.769  0.5068 -0.0973 -1.3676
14702TIP3   OH265596   1.094   0.897  15.062 -0.1189 -0.3707  0.7326
14702TIP3    H165597   1.020   0.844  15.090 -0.0830 -0.2428  1.0760
14702TIP3    H265598   1.068   0.987  15.080 -0.2533 -0.2489 -0.0195
14703TIP3   OH265599   6.699   5.562   5.488  0.2054 -0.2614  0.1175
14703TIP3    H165600   6.623   5.504   5.480  0.7273 -0.9972  0.3405
14703TIP3    H265601   6.664   5.650   5.473 -0.7048 -0.5761  0.3109
14704TIP3   OH265602   5.838   1.426   1.971  0.1073  0.7959 -0.7807
14704TIP3    H165603   5.924   1.431   2.013 -0.0592  1.5558 -0.5140
14704TIP3    H265604   5.851   1.367   1.897  1.0564  1.5148 -1.1997
14705TIP3   OH265605   4.186   2.604   4.253 -0.1805 -0.5685 -0.1340
14705TIP3    H165606   4.259   2.565   4.301  1.3619  2.5949  0.3549
14705TIP3    H265607   4.218   2.615   4.164 -1.2732 -1.9846 -0.7455
14706TIP3   OH265608   6.576   1.950   4.291  0.3350 -0.3847 -0.5421
14706TIP3    H165609   6.505   1.922   4.348 -0.0476 -0.7919 -1.1988
14706TIP3    H265610   6.619   1.869   4.264  1.4921 -0.1018  0.3915
14707TIP3   OH265611   0.477   1.158  13.990  0.1566  0.6628  0.7929
14707TIP3    H165612   0.440   1.241  13.958  0.5099  0.2790 -0.6868
14707TIP3    H265613   0.563   1.183  14.024  0.5735  0.8243 -0.3268
14708TIP3   OH265614   0.894   0.920   2.945  0.2162  0.4705 -0.5794
14708TIP3    H165615   0.904   0.857   3.016 -1.4620  0.1287 -0.6009
14708TIP3    H265616   0.982   0.931   2.909  1.0681  0.5103  1.4189
14709TIP3   OH265617   3.508   6.265  12.564 -0.0287 -0.4635 -0.6650
14709TIP3    H165618   3.464   6.272  12.480 -2.1050 -0.3340  0.3824
14709TIP3    H265619   3.507   6.171  12.584 -0.0337 -0.4374 -0.5376
14710TIP3   OH265620   2.352   1.199   2.769  0.5961  0.4271 -0.1808
14710TIP3    H165621   2.336   1.107   2.791  0.8204  0.3868 -0.1832
14710TIP3    H265622   2.285   1.247   2.819  1.3707  0.3745  0.9537
14711TIP3   OH265623   6.515   4.276   4.599 -0.4890 -0.1293 -0.0665
14711TIP3    H165624   6.480   4.212   4.661 -0.4598  0.1433  0.2375
14711TIP3    H265625   6.487   4.361   4.635 -0.5780  0.0228 -0.4950
14712TIP3   OH265626   0.612   4.729  14.481  0.2618 -0.6201 -0.4140
14712TIP3    H165627   0.538   4.671  14.499 -0.1526  0.3129  1.0668
14712TIP3    H265628   0.571   4.814  14.463  0.9705 -0.0017  0.8050
14713TIP3   OH265629   4.599   1.571  11.388  0.6357  0.4312  0.0892
14713TIP3    H165630   4.568   1.645  11.335  0.0637  0.6010  0.6581
14713TIP3    H265631   4.620   1.503  11.323 -0.2346  0.5713 -0.3492
14714TIP3   OH265632   5.778   6.653  13.869 -0.4451  0.5849 -0.0994
14714TIP3    H165633   5.829   6.595  13.811 -1.8227  0.1910 -0.9524
14714TIP3    H265634   5.734   6.713  13.810 -1.5205  0.4705  0.5645
14715TIP3   OH265635   2.923   1.088   0.445 -0.2042  0.4003 -0.0520
14715TIP3    H165636   2.946   1.093   0.352  0.7329  0.2244  0.1612
14715TIP3    H265637   3.007   1.092   0.491 -0.5412 -0.8659  0.7266
14716TIP3   OH265638   1.877   2.769  15.513 -0.0864  0.0820 -0.2712
14716TIP3    H165639   1.810   2.709  15.544  1.2667 -1.0404  0.6360
14716TIP3    H265640   1.883   2.753  15.419 -0.7351 -0.1771 -0.2695
14717TIP3   OH265641   5.533   1.737   1.886 -0.0208  0.3466  0.2948
14717TIP3    H165642   5.465   1.734   1.819  2.8153 -0.4268 -2.7743
14717TIP3    H265643   5.605   1.686   1.850  2.3894  1.4046  3.1941
14718TIP3   OH265644   6.103   1.266   5.554  0.0710 -0.0379 -0.3121
14718TIP3    H165645   6.060   1.320   5.488  1.1083  1.6948  0.3611
14718TIP3    H265646   6.120   1.325   5.627  0.1575 -1.5775  0.9903
14719TIP3   OH265647   4.721   2.465  12.480  0.7316 -0.0096  0.3202
14719TIP3    H165648   4.656   2.514  12.430  0.1643 -2.2948 -1.3743
14719TIP3    H265649   4.692   2.472  12.571 -1.4575 -0.2540 -0.2930
14720TIP3   OH265650   4.450   0.600   4.553  0.4320 -0.0049 -0.0920
14720TIP3    H165651   4.498   0.559   4.625 -1.7748 -0.2117  1.3466
14720TIP3    H265652   4.462   0.694   4.566  0.0538 -0.0407  0.5657
14721TIP3   OH265653   6.009   4.354   4.674 -0.3756  0.0007 -0.0044
14721TIP3    H165654   6.079   4.376   4.612 -0.9921  1.5395 -0.1871
14721TIP3    H265655   6.055   4.338   4.757  0.1944  1.1589 -0.0828
14722TIP3   OH265656   6.206   3.467   3.869  0.6212 -0.2777 -0.0202
14722TIP3    H165657   6.294   3.446   3.838  1.3960 -3.9824  3.7844
14722TIP3    H265658   6.160   3.384   3.868 -1.2830  0.6339  2.3301
14723TIP3   OH265659   0.381   5.570  14.293  0.8112 -0.1758  0.5900
14723TIP3    H165660   0.357   5.478  14.307  1.1943 -0.4908 -0.6617
14723TIP3    H265661   0.420   5.571  14.205  0.8232  1.1878  0.5954
14724TIP3   OH265662   2.584   0.517  14.723  0.4273  0.0181  0.1574
14724TIP3    H165663   2.593   0.447  14.788  0.3470  0.4614  0.6607
14724TIP3    H265664   2.531   0.584  14.768  0.8764  0.5888 -0.1501
14725TIP3   OH265665   0.153   0.899   5.624  0.4239  0.3175  0.1910
14725TIP3    H165666   0.170   0.905   5.530  2.0186  2.0506  0.5076
14725TIP3    H265667   0.236   0.925   5.664 -0.5808  0.8102  2.0622
14726TIP3   OH265668   4.602   5.173   0.791 -0.5318  0.7745 -0.5811
14726TIP3    H165669   4.526   5.204   0.840 -0.4907  0.6607 -0.4419
14726TIP3    H265670   4.656   5.129   0.857  0.4810  2.3291 -0.3375
14727TIP3   OH265671   6.005   1.135   2.246  0.2370  0.2967 -0.1136
14727TIP3    H165672   6.067   1.142   2.173  0.0514  2.8982 -0.1240
14727TIP3    H265673   6.013   1.219   2.292 -1.5050 -0.2739  1.3432
14728TIP3   OH265674   2.756   4.319   1.248 -0.2663  0.1442 -0.0581
14728TIP3    H165675   2.782   4.331   1.339 -1.0210  1.5796 -0.0117
14728TIP3    H265676   2.662   4.339   1.248  0.0689  1.8455 -1.4496
14729TIP3   OH265677   6.182   4.646   0.334 -0.1144 -0.0162 -0.0134
14729TIP3    H165678   6.182   4.667   0.428 -0.3976  0.5432 -0.1341
14729TIP3    H265679   6.195   4.730   0.291 -0.4933 -0.2033 -0.4939
14730TIP3   OH265680   3.570   3.733   5.664  0.1401  0.1770 -0.2793
14730TIP3    H165681   3.512   3.731   5.588  0.6659  2.0590 -0.7922
14730TIP3    H265682   3.523   3.787   5.729  0.7991  0.7588 -0.2746
14731TIP3   OH265683   5.616   1.109   4.440 -0.6588 -0.4385 -0.4820
14731TIP3    H165684   5.698   1.146   4.473 -0.3167  0.2641 -2.0059
14731TIP3    H265685   5.632   1.015   4.434 -0.6512 -0.5619  1.0172
14732TIP3   OH265686   4.169   3.435  13.409 -0.3377 -0.6841  0.0179
14732TIP3    H165687   4.214   3.519  13.394  0.9430 -1.5564 -1.3746
14732TIP3    H265688   4.188   3.414  13.500 -3.0920  1.8547  1.3430
14733TIP3   OH265689   4.019   4.700  11.395 -0.5166 -0.2859  0.4274
14733TIP3    H165690   4.026   4.789  11.361 -2.0802  0.9696  3.1175
14733TIP3    H265691   3.944   4.662  11.349 -1.3920  0.6839  1.0204
14734TIP3   OH265692   1.394   0.428  14.811 -0.1937  0.7590  0.2289
14734TIP3    H165693   1.344   0.481  14.749 -0.2115 -0.8237 -1.1822
14734TIP3    H265694   1.428   0.355  14.759  2.0593  0.7780  1.5190
14735TIP3   OH265695   2.752   3.533  13.639 -0.1643  0.2000  0.3657
14735TIP3    H165696   2.720   3.445  13.619 -1.6630  0.5531  1.1028
14735TIP3    H265697   2.775   3.570  13.553  1.1163 -1.1178  0.1070
14736TIP3   OH265698   0.981   6.047   4.180  0.5992 -0.1496 -0.0810
14736TIP3    H165699   0.969   6.014   4.269  2.4962  0.8950  0.6255
14736TIP3    H265700   1.021   5.974   4.133 -0.6622 -0.7990 -0.1929
14737TIP3   OH265701   1.639   3.352   0.558 -0.5748 -0.0223 -0.2044
14737TIP3    H165702   1.656   3.439   0.594 -1.7728  0.9815 -1.9123
14737TIP3    H265703   1.724   3.307   0.562  0.0631  1.2092  0.7114
14738TIP3   OH265704   3.041   3.130  15.449  0.0683  0.1889  0.3848
14738TIP3    H165705   3.072   3.130  15.540  1.6139  0.1008 -0.1245
14738TIP3    H265706   2.974   3.198  15.447  0.4755  0.6475  1.4292
14739TIP3   OH265707   3.128   6.514   0.598  0.2657 -0.0576 -0.1778
14739TIP3    H165708   3.045   6.556   0.622 -1.0263 -2.3673 -0.2892
14739TIP3    H265709   3.185   6.528   0.674 -0.6848  0.4604  0.4613
14740TIP3   OH265710   5.086   2.914  12.059  0.2086  0.2927 -0.0666
14740TIP3    H165711   5.148   2.926  12.132 -1.1603 -0.0342  1.2103
14740TIP3    H265712   5.020   2.982  12.073  1.5367  2.3566 -2.9001
14741TIP3   OH265713   5.827   2.715  13.592  0.0786  0.0966  0.2072
14741TIP3    H165714   5.779   2.659  13.531 -1.7975  0.8889  0.8804
14741TIP3    H265715   5.899   2.751  13.541  1.4784 -2.9771 -0.2291
14742TIP3   OH265716   0.043   3.112  15.471  0.3355  0.5107  0.2029
14742TIP3    H165717  -0.042   3.103  15.514  0.4854  1.0237  0.6126
14742TIP3    H265718   0.043   3.044  15.404  0.1792 -0.4229  1.1366
14743TIP3   OH265719   0.489   4.584  11.453  0.0937 -0.0338 -0.3719
14743TIP3    H165720   0.522   4.496  11.471  0.1992  0.4362  2.0917
14743TIP3    H265721   0.554   4.643  11.492 -0.8564  1.0747 -0.4020
14744TIP3   OH265722   6.751   2.424   0.858  0.4658 -0.3491 -0.5951
14744TIP3    H165723   6.794   2.362   0.799  0.9186  1.0154 -1.7915
14744TIP3    H265724   6.672   2.379   0.887  0.8296 -1.5200 -1.3287
14745TIP3   OH265725   3.264   5.962   1.271  0.3810 -0.2822  0.0813
14745TIP3    H165726   3.290   5.984   1.181 -0.1787 -1.3047 -0.3588
14745TIP3    H265727   3.170   5.981   1.273 -0.2232 -2.7747 -0.4409
14746TIP3   OH265728   3.825   5.651   0.353  0.1486  0.0279 -0.0909
14746TIP3    H165729   3.826   5.719   0.421  1.2899 -1.7893  1.8484
14746TIP3    H265730   3.829   5.568   0.402  1.8088 -1.3710 -2.3833
14747TIP3   OH265731   5.885   3.481   4.529  0.4917  0.0364  0.1916
14747TIP3    H165732   5.802   3.508   4.569  0.2627 -0.9754  0.4184
14747TIP3    H265733   5.868   3.484   4.435  0.7227  1.4437  0.1762
14748TIP3   OH265734   2.858   6.398   0.443 -0.0336  0.1487 -0.7902
14748TIP3    H165735   2.763   6.385   0.443 -0.1580  0.9126  0.2118
14748TIP3    H265736   2.894   6.314   0.416 -0.9483 -0.8276  0.8454
14749TIP3   OH265737   3.771   4.617  12.928  0.2578  0.4434 -0.1445
14749TIP3    H165738   3.758   4.536  12.879  2.8038  0.2131 -0.5550
14749TIP3    H265739   3.783   4.589  13.019  2.2501  0.1925 -0.4469
14750TIP3   OH265740   2.467   6.807  13.657  0.1351 -0.0056 -0.0126
14750TIP3    H165741   2.499   6.841  13.741  4.8252 -2.1605 -0.6201
14750TIP3    H265742   2.402   6.742  13.681  0.0558  0.6925  1.8393
14751TIP3   OH265743   6.669   6.139  15.738  0.0029 -0.0976 -0.5278
14751TIP3    H165744   6.732   6.146  15.667  0.7385  2.4238  0.2784
14751TIP3    H265745   6.587   6.170  15.701 -0.0286 -0.4320 -0.7386
14752TIP3   OH265746   2.492   2.314  12.292  0.4510  0.1480  0.7895
14752TIP3    H165747   2.542   2.341  12.369  0.5571  0.1470  0.7211
14752TIP3    H265748   2.411   2.278  12.328 -0.1005  1.3991  0.8563
14753TIP3   OH265749   0.500   0.255   1.345 -0.1074 -0.1775  0.3270
14753TIP3    H165750   0.441   0.298   1.283  0.6852  0.5577  0.0652
14753TIP3    H265751   0.510   0.166   1.311 -1.5408 -0.5240  0.7160
14754TIP3   OH265752   0.890   0.016   0.871 -0.2528  0.0514 -0.7566
14754TIP3    H165753   0.929   0.102   0.861 -1.9688  1.2097  1.5589
14754TIP3    H265754   0.875   0.007   0.965 -2.7257 -1.5255 -1.2076
14755TIP3   OH265755   6.056   3.416   1.188  0.5510 -0.5286 -0.3369
14755TIP3    H165756   6.107   3.497   1.189 -0.7207  0.2950  0.2638
14755TIP3    H265757   6.115   3.350   1.223  2.2007 -0.2588 -2.3929
14756TIP3   OH265758   3.667   4.332  11.889 -0.2165 -0.6372  0.2037
14756TIP3    H165759   3.613   4.394  11.839  0.6197  0.0914  0.1805
14756TIP3    H265760   3.728   4.296  11.826  0.6927  0.1145  0.6383
14757TIP3   OH265761   1.982   2.967  11.916  0.2995 -0.2525 -0.6355
14757TIP3    H165762   2.051   3.033  11.923 -0.3605  0.3476  0.6758
14757TIP3    H265763   1.901   3.016  11.935 -0.2985 -1.2550 -0.5522
14758TIP3   OH265764   0.242   3.844   5.396 -0.0711 -0.5478 -0.5088
14758TIP3    H165765   0.295   3.765   5.404 -0.1821 -0.6099 -0.3801
14758TIP3    H265766   0.213   3.862   5.486 -0.2130 -0.4749 -0.5696
14759TIP3   OH265767   6.261   4.635  12.217  0.4471 -0.1707 -0.1647
14759TIP3    H165768   6.172   4.652  12.188  1.0353  1.6287 -1.0359
14759TIP3    H265769   6.259   4.650  12.312  0.0469  0.8772 -0.3360
14760TIP3   OH265770   2.307   5.236   1.174 -0.0450 -0.2167  0.1411
14760TIP3    H165771   2.367   5.209   1.104  1.0543 -3.6003  2.1403
14760TIP3    H265772   2.364   5.269   1.243 -0.9139  0.8264  0.3844
14761TIP3   OH265773   3.941   5.942   3.878  0.2132 -0.3854  0.3028
14761TIP3    H165774   3.998   5.919   3.952  1.5210  3.1990  0.5984
14761TIP3    H265775   3.989   5.914   3.801  1.0031 -0.0768  0.6711
14762TIP3   OH265776   3.067   1.753  15.186 -0.0535  0.1596 -0.3632
14762TIP3    H165777   3.038   1.830  15.137 -1.2693  0.5853  0.9400
14762TIP3    H265778   3.023   1.680  15.143 -0.8598  0.4949 -0.1300
14763TIP3   OH265779   1.344   4.236   6.485 -0.1971  0.6341 -0.4976
14763TIP3    H165780   1.416   4.253   6.546 -1.1601 -2.8700  1.9680
14763TIP3    H265781   1.322   4.321   6.449  1.1794  2.8503  3.2958
14764TIP3   OH265782   3.790   2.790  10.988  0.3106 -0.5714  0.1325
14764TIP3    H165783   3.824   2.703  11.005  0.6976  0.1123  3.7266
14764TIP3    H265784   3.704   2.791  11.030  0.0770  0.6116 -0.3228
14765TIP3   OH265785   4.284   5.446   4.927  0.2785  0.2403 -0.0999
14765TIP3    H165786   4.333   5.501   4.988  0.5493  1.5837 -1.4451
14765TIP3    H265787   4.193   5.473   4.939 -0.2328 -2.0895  2.2312
14766TIP3   OH265788   5.292   0.510  13.914  0.1804 -0.3669 -0.2394
14766TIP3    H165789   5.336   0.557  13.985  0.9069 -0.6112 -0.5130
14766TIP3    H265790   5.253   0.434  13.956 -2.8478  1.4873  0.6117
14767TIP3   OH265791   1.906   2.976   5.255 -0.2343 -0.3810 -0.3307
14767TIP3    H165792   1.847   2.920   5.204 -0.5845 -0.1310 -0.2001
14767TIP3    H265793   1.861   3.060   5.261  1.0160  0.4662 -1.9436
14768TIP3   OH265794   2.329   2.022  12.540 -0.7669  0.4913  0.0322
14768TIP3    H165795   2.421   1.998  12.529 -0.1241  2.8593 -0.3426
14768TIP3    H265796   2.320   2.045  12.632 -0.5983  1.5637 -0.2000
14769TIP3   OH265797   5.580   0.627   0.893 -0.2768 -0.1408 -0.3546
14769TIP3    H165798   5.548   0.699   0.948 -2.1768 -1.5948  0.5678
14769TIP3    H265799   5.674   0.626   0.907 -0.3977  1.2079  0.8219
14770TIP3   OH265800   4.243   3.365   2.365  0.0997  0.3234  0.2322
14770TIP3    H165801   4.270   3.382   2.275 -1.9560 -0.5907 -0.6093
14770TIP3    H265802   4.200   3.279   2.362 -0.7588  0.6466  1.9075
14771TIP3   OH265803   2.337   1.931  14.773 -0.0222  0.1146  0.0840
14771TIP3    H165804   2.409   1.926  14.836  0.4952  0.6568 -0.4508
14771TIP3    H265805   2.271   1.872  14.808 -0.1338  1.1133  1.6389
14772TIP3   OH265806   5.428   3.046  13.950  0.1883 -0.2198 -0.0405
14772TIP3    H165807   5.351   3.000  13.917 -0.3316 -1.1311  2.2597
14772TIP3    H265808   5.405   3.139  13.941 -0.6252 -0.4582 -0.5990
14773TIP3   OH265809   4.363   5.013  13.945 -0.1743  0.1925  0.2567
14773TIP3    H165810   4.406   4.949  13.888 -2.6497 -0.6692 -0.7992
14773TIP3    H265811   4.304   4.960  13.999  0.5953  1.2307  2.2129
14774TIP3   OH265812   3.485   1.139   0.522 -0.3512 -0.6192 -0.1759
14774TIP3    H165813   3.500   1.058   0.571  0.1341 -1.3183 -1.4215
14774TIP3    H265814   3.488   1.112   0.430 -1.3972  0.6153 -0.6076
14775TIP3   OH265815   0.729   6.029   4.112  0.5848  0.1676 -0.2155
14775TIP3    H165816   0.661   6.025   4.179  0.3953 -0.3952 -0.4356
14775TIP3    H265817   0.807   6.062   4.158  0.4636 -0.2291  0.2875
14776TIP3   OH265818   4.743   5.702  13.543 -0.1929 -0.1531 -0.3396
14776TIP3    H165819   4.713   5.653  13.467  1.1173 -3.5103  1.0857
14776TIP3    H265820   4.695   5.663  13.617  0.2586  1.3782  0.8051
14777TIP3   OH265821   5.086   6.445  17.039  0.0202  0.0227 -0.3432
14777TIP3    H165822   5.046   6.474  16.958  0.5157  1.2404 -0.1745
14777TIP3    H265823   5.155   6.508  17.056  0.2489 -0.4922  0.7725
14778TIP3   OH265824   4.515   2.618  16.784 -0.4850  0.2470 -0.7716
14778TIP3    H165825   4.472   2.594  16.866 -0.5662 -1.9082 -1.3795
14778TIP3    H265826   4.445   2.659  16.732  0.0122  3.4679  0.8455
14779TIP3   OH265827   0.283   5.900   2.787  0.3181 -0.3094  0.7171
14779TIP3    H165828   0.368   5.857   2.787 -0.0900 -1.1435  0.5928
14779TIP3    H265829   0.267   5.920   2.695  0.2650 -0.4024  0.7052
14780TIP3   OH265830   3.079   6.479   3.647 -0.0360  0.4655  0.2850
14780TIP3    H165831   3.006   6.486   3.586  1.1911 -0.0081 -1.3204
14780TIP3    H265832   3.109   6.570   3.659  1.7253  0.3689 -2.4867
14781TIP3   OH265833   0.589   1.577   5.471  0.3771 -0.3627  0.0759
14781TIP3    H165834   0.559   1.617   5.552  0.9838 -1.4038  0.8376
14781TIP3    H265835   0.511   1.571   5.416 -0.1704 -0.2468  0.8325
14782TIP3   OH265836   1.989   3.296  13.698  0.3159 -0.1632 -0.0396
14782TIP3    H165837   2.069   3.320  13.652 -0.7861  1.5114 -1.1881
14782TIP3    H265838   1.980   3.202  13.683  0.4266  0.1697 -2.6405
14783TIP3   OH265839   2.389   6.202   1.717  0.4450 -0.0264  0.2571
14783TIP3    H165840   2.450   6.128   1.726 -0.4029 -0.6488  1.2277
14783TIP3    H265841   2.304   6.164   1.737 -0.5719  0.4085 -2.7839
14784TIP3   OH265842   5.668   1.036  15.723  0.5346  0.5014 -0.7592
14784TIP3    H165843   5.593   1.088  15.750 -0.4868 -1.3287  0.0928
14784TIP3    H265844   5.739   1.064  15.782 -0.7911 -1.0888  1.7679
14785TIP3   OH265845   2.567   4.149  11.408  0.2787 -0.6632  0.2498
14785TIP3    H165846   2.643   4.203  11.429 -1.0893  1.6516 -0.3020
14785TIP3    H265847   2.519   4.142  11.491 -0.4401  0.5928 -0.0205
14786TIP3   OH265848   5.902   1.713  16.250  0.1377  0.1197 -0.5470
14786TIP3    H165849   5.972   1.711  16.185 -1.5335  0.1383 -2.4513
14786TIP3    H265850   5.838   1.649  16.218 -0.6143 -0.0660  1.2419
14787TIP3   OH265851   1.697   1.221   6.261 -0.3857 -0.7549 -0.1362
14787TIP3    H165852   1.708   1.316   6.259 -1.2116 -0.5915  1.6457
14787TIP3    H265853   1.769   1.190   6.315 -0.0202 -1.1871 -0.8539
14788TIP3   OH265854   6.695   0.020  14.063  0.7471 -0.3336 -0.3487
14788TIP3    H165855   6.604  -0.001  14.042  0.3335 -0.7947  1.6827
14788TIP3    H265856   6.743  -0.060  14.044  0.4274 -0.6578  0.1847
14789TIP3   OH265857   4.638   2.831  15.538 -0.5006  0.1377  0.4725
14789TIP3    H165858   4.577   2.771  15.580 -0.2667  0.4813  1.3281
14789TIP3    H265859   4.674   2.781  15.464 -1.4461 -0.2251  0.2505
14790TIP3   OH265860   5.819   2.214  10.526 -0.1169  0.4399 -0.2589
14790TIP3    H165861   5.735   2.205  10.482 -0.2118 -0.1927  0.0394
14790TIP3    H265862   5.826   2.136  10.582  1.2884 -0.2631 -1.3238
14791TIP3   OH265863   4.254   0.063   2.460 -0.5672 -0.5124  0.6115
14791TIP3    H165864   4.343   0.036   2.438 -0.5125  0.6659 -0.7948
14791TIP3    H265865   4.207  -0.019   2.474  0.5253 -1.1867  0.4342
14792TIP3   OH265866   5.954   0.665   3.052 -0.3184 -0.9412 -0.2267
14792TIP3    H165867   6.046   0.659   3.025 -0.3618  0.7841 -0.8375
14792TIP3    H265868   5.958   0.694   3.143 -0.2303  0.9851 -0.7985
14793TIP3   OH265869   3.040   5.993  12.957 -0.1317  0.6824  0.0682
14793TIP3    H165870   3.111   6.018  12.898 -0.1717  1.8461  0.4994
14793TIP3    H265871   3.082   5.986  13.043 -0.1720 -0.5251  0.0094
14794TIP3   OH265872   1.207   1.368  13.503  0.2340 -0.9620 -0.1938
14794TIP3    H165873   1.121   1.327  13.511 -0.0718 -0.7430 -2.0692
14794TIP3    H265874   1.189   1.457  13.476  1.0637 -1.0092 -0.9490
14795TIP3   OH265875   0.764   0.036   5.163  0.1074 -0.2994 -0.4401
14795TIP3    H165876   0.772  -0.016   5.083 -1.2155  0.5649 -1.1765
14795TIP3    H265877   0.816   0.115   5.145  0.8447 -0.6483  0.0759
14796TIP3   OH265878   4.894   1.785   2.657  0.2595 -0.0382 -0.0569
14796TIP3    H165879   4.946   1.798   2.578  1.0762 -2.1365  0.0720
14796TIP3    H265880   4.953   1.805   2.729  0.2752 -0.4896  0.0585
14797TIP3   OH265881   4.630   4.671   4.166  0.1818  0.3484  0.0317
14797TIP3    H165882   4.584   4.588   4.168  0.5916  0.1231  0.7078
14797TIP3    H265883   4.646   4.689   4.074  0.1065 -0.3334 -0.1139
14798TIP3   OH265884   5.015   2.208   0.207  0.0563 -0.3317  0.3995
14798TIP3    H165885   4.934   2.224   0.256  0.5156  0.2896  0.9677
14798TIP3    H265886   5.079   2.185   0.274  0.4207 -0.5749 -0.0264
14799TIP3   OH265887   5.812   1.941  11.860 -0.0555  0.1198  0.3048
14799TIP3    H165888   5.853   1.876  11.803 -0.6736 -0.0162 -0.0001
14799TIP3    H265889   5.729   1.901  11.885 -0.5883  0.9215 -0.1470
14800TIP3   OH265890   3.991   0.881   3.591  0.7691 -0.0764 -0.1862
14800TIP3    H165891   3.955   0.799   3.559 -0.4481  0.5092 -0.3658
14800TIP3    H265892   3.974   0.879   3.685 -0.5129  0.5539 -0.3842
14801TIP3   OH265893   2.489   3.640   2.562  0.5879  0.0375  0.1237
14801TIP3    H165894   2.570   3.667   2.519 -0.1788  1.5189 -0.4868
14801TIP3    H265895   2.468   3.556   2.523  1.1003  0.3007 -0.7598
14802TIP3   OH265896   4.167   5.993  13.112  0.3259 -0.3668 -0.2158
14802TIP3    H165897   4.151   6.082  13.144 -0.6653 -1.0758  1.4250
14802TIP3    H265898   4.139   5.937  13.185  4.8992 -1.9800  0.6325
14803TIP3   OH265899   4.184   1.872   5.159  0.4804  0.3877  0.4722
14803TIP3    H165900   4.165   1.797   5.216  0.2000  0.4409  0.4485
14803TIP3    H265901   4.201   1.833   5.074 -0.8522  0.4250  0.1679
14804TIP3   OH265902   1.472   0.832   2.832 -0.3742 -0.1730 -0.8846
14804TIP3    H165903   1.495   0.774   2.904  2.0035 -1.0653 -2.2562
14804TIP3    H265904   1.473   0.920   2.871 -0.2075 -0.7118  0.3767
14805TIP3   OH265905   2.423   2.799  12.162 -0.0796 -0.4118 -0.0794
14805TIP3    H165906   2.448   2.714  12.125 -1.6205 -1.0031  0.1672
14805TIP3    H265907   2.344   2.823  12.114 -0.6172  0.0639  1.0201
14806TIP3   OH265908   2.882   4.147   1.076 -0.3384  0.4206  0.5235
14806TIP3    H165909   2.815   4.144   1.008 -0.9182  0.1715  1.0911
14806TIP3    H265910   2.855   4.219   1.133  0.7738  1.3884 -0.1303
14807TIP3   OH265911   0.722   6.792  14.031 -0.3948  0.0728  0.0970
14807TIP3    H165912   0.766   6.821  14.111  0.9798  0.9605 -0.9428
14807TIP3    H265913   0.637   6.837  14.032  0.4002  1.6123  0.1118
14808TIP3   OH265914   1.914   1.053  17.101 -0.0901 -0.5974 -0.0026
14808TIP3    H165915   1.844   1.117  17.101  1.1245  0.8012  1.0417
14808TIP3    H265916   1.877   0.977  17.146 -1.0840 -0.0613  0.1054
14809TIP3   OH265917   1.664   5.331  13.260  0.4807 -0.4030 -0.5874
14809TIP3    H165918   1.624   5.343  13.346 -0.3650 -0.2749 -0.9858
14809TIP3    H265919   1.600   5.368  13.199  1.8566  1.2063 -1.1373
14810TIP3   OH265920   5.595   1.223  14.115  0.0596 -0.5444  0.3904
14810TIP3    H165921   5.589   1.181  14.201 -0.2714 -0.2793  0.4973
14810TIP3    H265922   5.689   1.239  14.103 -0.0199  1.0547  1.5121
14811TIP3   OH265923   2.023   1.501   5.372  0.3646  0.0493 -0.0466
14811TIP3    H165924   1.937   1.543   5.367  0.5238  0.3138 -0.8205
14811TIP3    H265925   2.023   1.456   5.456 -0.7169 -0.3455 -0.2319
14812TIP3   OH265926   5.476   3.275   5.695 -0.7615 -0.8019  0.1410
14812TIP3    H165927   5.436   3.362   5.689 -0.4141 -0.7181 -1.2584
14812TIP3    H265928   5.425   3.221   5.634 -0.8485 -1.5314  0.8523
14813TIP3   OH265929   1.831   6.040  15.022 -0.4575  0.5990  0.4814
14813TIP3    H165930   1.754   6.052  14.967 -0.6088 -2.0687 -0.0155
14813TIP3    H265931   1.899   6.093  14.981 -1.5252  1.4889 -0.1754
14814TIP3   OH265932   1.114   1.368  11.897 -0.1445  0.3519  0.4284
14814TIP3    H165933   1.158   1.433  11.951 -0.8332 -0.1607  1.6338
14814TIP3    H265934   1.137   1.392  11.807  0.3482  1.7051  0.8975
14815TIP3   OH265935   4.110   3.620  11.049 -0.3698 -0.1643 -0.2356
14815TIP3    H165936   4.069   3.546  11.094  1.6886 -0.9210  0.5345
14815TIP3    H265937   4.150   3.582  10.971  0.7278  0.0972  0.1766
14816TIP3   OH265938   6.247   2.146   5.897  0.2550 -0.3096 -0.0735
14816TIP3    H165939   6.217   2.200   5.824 -0.4342 -0.9856 -0.3078
14816TIP3    H265940   6.260   2.208   5.969 -0.2207  0.2104 -0.4276
14817TIP3   OH265941   1.394   3.936  14.911  0.2588 -0.4565 -0.3256
14817TIP3    H165942   1.335   3.960  14.840 -0.0197 -0.7047 -0.1785
14817TIP3    H265943   1.339   3.889  14.973  0.4301  0.0582  0.2207
14818TIP3   OH265944   5.474   4.930   1.127 -0.1813 -0.0022  0.3243
14818TIP3    H165945   5.435   4.861   1.073  2.2400 -0.7646 -0.6105
14818TIP3    H265946   5.447   5.012   1.085  0.3875 -0.5491 -1.1826
14819TIP3   OH265947   0.097   4.035  15.253 -0.3176  0.2198  0.2549
14819TIP3    H165948   0.145   3.976  15.196  1.2304  1.1738  0.5047
14819TIP3    H265949   0.100   4.120  15.208 -0.8794  0.5203  0.7665
14820TIP3   OH265950   3.122   2.368  14.340 -0.2228  0.1256 -0.4385
14820TIP3    H165951   3.189   2.305  14.311 -0.1048 -0.0651  0.2436
14820TIP3    H265952   3.121   2.434  14.270  1.6205  0.8342  0.1331
14821TIP3   OH265953   3.252   3.779  17.209  0.2944  0.3215 -0.0779
14821TIP3    H165954   3.223   3.839  17.278 -0.9216  0.5537 -0.7597
14821TIP3    H265955   3.252   3.832  17.129  0.4555 -0.2582 -0.4694
14822TIP3   OH265956   6.591   6.567  14.940 -0.0695  0.1771  0.5842
14822TIP3    H165957   6.603   6.478  14.906  0.1973 -0.0398  1.2275
14822TIP3    H265958   6.536   6.556  15.018 -0.3130  0.6178  0.4805
14823TIP3   OH265959   5.821   0.230   4.606 -0.4411 -0.1157 -0.1036
14823TIP3    H165960   5.845   0.284   4.531  3.0257  1.9765  2.2303
14823TIP3    H265961   5.804   0.143   4.569  0.5050  0.9491 -3.3159
14824TIP3   OH265962   4.436   0.293  13.314  0.1445 -0.1119 -0.3008
14824TIP3    H165963   4.354   0.243  13.318  0.7309 -1.0765  0.4923
14824TIP3    H265964   4.469   0.279  13.225  0.3548 -1.2799 -0.0595
14825TIP3   OH265965   4.601   5.695  11.653  0.0837 -0.2463  0.3185
14825TIP3    H165966   4.544   5.759  11.694  0.4359 -1.1884  2.4543
14825TIP3    H265967   4.577   5.612  11.694  0.9735 -1.1411 -0.9038
14826TIP3   OH265968   5.947   5.907  17.191  0.3086 -0.4031 -0.1887
14826TIP3    H165969   5.925   5.902  17.284 -1.6960  0.2865 -0.5718
14826TIP3    H265970   5.943   5.817  17.160 -1.7887 -0.3824 -0.1346
14827TIP3   OH265971   6.015   1.764   2.104  0.6119 -0.3414  0.0418
14827TIP3    H165972   6.052   1.813   2.177 -1.3893 -1.8547  2.2165
14827TIP3    H265973   5.936   1.812   2.081  0.5374 -0.5985 -0.2428
14828TIP3   OH265974   4.779   4.743   6.075 -0.0457  0.4870 -0.1181
14828TIP3    H165975   4.803   4.797   6.150  0.8744 -1.1902  0.8690
14828TIP3    H265976   4.845   4.674   6.074  0.9607  1.3172 -3.4682
14829TIP3   OH265977   5.779   3.182  14.351  0.4806 -0.1288  0.5177
14829TIP3    H165978   5.720   3.106  14.345  0.2687  0.1031 -0.5523
14829TIP3    H265979   5.788   3.198  14.445 -1.8593  0.3658  0.7171
14830TIP3   OH265980   3.868   1.575   4.040 -0.0468  0.6551 -0.4119
14830TIP3    H165981   3.960   1.600   4.043  0.5033 -1.1706 -0.8596
14830TIP3    H265982   3.836   1.588   4.129  0.6824  1.1379 -0.2195
14831TIP3   OH265983   3.584   5.056  15.442 -0.5704  0.7626  0.0361
14831TIP3    H165984   3.523   5.065  15.515  0.1708  0.9433  0.6384
14831TIP3    H265985   3.563   5.130  15.384  0.1785  1.8057  1.0618
14832TIP3   OH265986   3.945   0.419   2.403 -0.5119 -0.0775  0.5351
14832TIP3    H165987   3.895   0.367   2.465 -0.8618 -0.6823 -0.2398
14832TIP3    H265988   3.882   0.482   2.368  0.0076  1.2086  1.7908
14833TIP3   OH265989   3.372   4.687  15.993  0.9919  0.4181 -0.0788
14833TIP3    H165990   3.349   4.707  15.902  1.1797  0.3903 -0.1335
14833TIP3    H265991   3.416   4.602  15.989  0.5696  0.1900  0.1018
14834TIP3   OH265992   2.440   1.283  10.889  0.1978  0.3020  0.3322
14834TIP3    H165993   2.512   1.286  10.826  0.9424 -1.4506  1.0178
14834TIP3    H265994   2.362   1.268  10.835  1.0459 -3.2335 -0.2188
14835TIP3   OH265995   6.808   6.650  12.096  0.0052 -0.0748  0.1360
14835TIP3    H165996   6.868   6.597  12.149 -0.7587 -0.0815  1.0073
14835TIP3    H265997   6.758   6.585  12.046  0.5380 -0.0770 -0.4150
14836TIP3   OH265998   1.613   3.918   1.467 -0.2434  0.0995 -0.1124
14836TIP3    H165999   1.702   3.910   1.499 -0.4426  1.2900  0.8185
14836TIP3    H266000   1.618   3.980   1.395 -0.4491  1.0885  0.6889
14837TIP3   OH266001   6.543   6.432   1.970 -0.8468 -0.0681 -0.3560
14837TIP3    H166002   6.459   6.466   2.000 -1.2129  1.4489 -2.8491
14837TIP3    H266003   6.528   6.338   1.957 -1.8394  0.0076  0.1941
14838TIP3   OH266004   6.597   6.781  12.811  0.0644  0.2048  0.3367
14838TIP3    H166005   6.660   6.839  12.854  1.1876  0.5730 -1.6821
14838TIP3    H266006   6.615   6.695  12.848  0.9067  0.5244  0.7039
14839TIP3   OH266007   5.409   3.269   0.358  0.0298  0.1839  0.1630
14839TIP3    H166008   5.473   3.335   0.386 -0.6305  0.4760  1.0280
14839TIP3    H266009   5.371   3.305   0.278  0.9049  0.0296 -0.3331
14840TIP3   OH266010   1.323   1.569  10.969 -0.3359  0.0218  0.0756
14840TIP3    H166011   1.237   1.529  10.981 -0.5252  0.2088 -0.5807
14840TIP3    H266012   1.371   1.547  11.048 -0.7176 -0.7829  0.0931
14841TIP3   OH266013   0.277   5.531  11.737  0.1077 -0.4285 -0.2834
14841TIP3    H166014   0.341   5.595  11.769  1.9615 -2.6650  0.7527
14841TIP3    H266015   0.207   5.585  11.699  1.6717  2.1839  0.2503
14842TIP3   OH266016   4.334   1.038  13.121  0.3456  0.2792 -0.3918
14842TIP3    H166017   4.365   1.115  13.169  1.7928 -0.3925 -0.2096
14842TIP3    H266018   4.268   0.999  13.178 -1.8040  2.3810 -1.2942
14843TIP3   OH266019   2.833   2.016  14.400  1.0534  0.1210  0.0249
14843TIP3    H166020   2.886   2.080  14.446  0.3190 -0.3767  1.6322
14843TIP3    H266021   2.762   1.995  14.460  1.1166 -2.0079 -0.5364
14844TIP3   OH266022   0.824   4.680  10.957  0.0161 -0.0858  0.4679
14844TIP3    H166023   0.874   4.753  10.919  2.3879 -1.6798  0.3621
14844TIP3    H266024   0.778   4.719  11.032  0.0774  1.7951 -0.4101
14845TIP3   OH266025   2.992   3.817  15.032  0.6697  0.1438 -0.1499
14845TIP3    H166026   2.960   3.738  14.987  1.6566  0.3355 -1.2412
14845TIP3    H266027   3.051   3.785  15.099 -0.3891 -0.1192  0.6888
14846TIP3   OH266028   6.664   0.394   2.260 -0.0208 -0.1544 -0.5667
14846TIP3    H166029   6.679   0.446   2.181  0.1775 -0.7767 -0.9362
14846TIP3    H266030   6.733   0.422   2.320 -0.3355  0.5209 -0.4979
14847TIP3   OH266031   6.470   1.624  14.963 -0.1270  0.2634 -0.2589
14847TIP3    H166032   6.403   1.643  14.898  0.1717  0.8876 -0.3852
14847TIP3    H266033   6.547   1.600  14.912 -0.5701 -1.6294 -0.1110
14848TIP3   OH266034   6.560   3.441  17.097 -0.0586  0.2346 -0.3230
14848TIP3    H166035   6.563   3.537  17.099 -0.4132  0.2544 -0.5625
14848TIP3    H266036   6.532   3.420  17.008  3.4453 -0.2171 -1.4654
14849TIP3   OH266037   1.450   4.619   3.152  0.0071  0.0660  0.5477
14849TIP3    H166038   1.435   4.540   3.204 -1.1255  0.2635  0.5519
14849TIP3    H266039   1.465   4.587   3.064 -2.5156 -0.1381  0.0988
14850TIP3   OH266040   6.250   6.370  15.492  0.1127  0.0079 -0.0187
14850TIP3    H166041   6.169   6.322  15.477  0.9582 -1.9000  1.2099
14850TIP3    H266042   6.222   6.451  15.536 -1.2733  0.4504 -1.5832
14851TIP3   OH266043   6.543   5.403   1.714  0.0355  0.3665 -0.1341
14851TIP3    H166044   6.635   5.408   1.688  0.9622  0.3308  2.7398
14851TIP3    H266045   6.517   5.313   1.690  2.0454 -1.0571  2.4708
14852TIP3   OH266046   5.293   5.742  13.660  0.6877  0.0648 -0.2007
14852TIP3    H166047   5.332   5.731  13.746 -1.0921 -0.6018  0.5572
14852TIP3    H266048   5.201   5.763  13.677  0.3618  0.2266 -1.9271
14853TIP3   OH266049   2.125   2.725  15.626 -0.1726 -0.2984  0.1596
14853TIP3    H166050   2.049   2.770  15.589 -0.9433  0.7908  2.7850
14853TIP3    H266051   2.164   2.790  15.685  0.9965 -1.8234  1.1477
14854TIP3   OH266052   2.231   2.404   2.125  0.0552 -0.1714  0.4750
14854TIP3    H166053   2.285   2.483   2.117 -0.6634  0.3552  0.7536
14854TIP3    H266054   2.190   2.395   2.039 -1.3757  0.8929  0.9924
14855TIP3   OH266055   0.028   0.269   2.447  0.1864 -0.2310  0.4175
14855TIP3    H166056  -0.008   0.249   2.361 -1.0353  2.2927  0.2351
14855TIP3    H266057  -0.046   0.258   2.507  0.3219  0.5314  0.7357
14856TIP3   OH266058   1.862   6.299   1.634 -0.1822 -0.4959  0.2883
14856TIP3    H166059   1.947   6.275   1.671 -0.1242  0.8121  1.0436
14856TIP3    H266060   1.830   6.370   1.690 -1.1050  0.0321 -0.8625
14857TIP3   OH266061   1.661   2.252  16.081 -0.4465  0.5206  0.4696
14857TIP3    H166062   1.751   2.229  16.058 -0.0935  0.8932  1.4453
14857TIP3    H266063   1.636   2.319  16.017 -0.8985 -1.2613 -1.3283
14858TIP3   OH266064   4.049   0.523   2.029  0.1068  0.5946  0.3774
14858TIP3    H166065   4.087   0.457   1.971 -1.3887  0.1656 -0.1624
14858TIP3    H266066   4.084   0.502   2.116  1.1951  0.3189 -0.1185
14859TIP3   OH266067   1.955   1.535  14.921 -0.3722  0.4845 -0.6801
14859TIP3    H166068   1.867   1.507  14.946 -0.6422  1.9383  0.0689
14859TIP3    H266069   2.009   1.512  14.996  0.1543 -1.4222 -1.5652
14860TIP3   OH266070   1.173   2.297  14.433  0.2748 -0.0364  0.1627
14860TIP3    H166071   1.239   2.266  14.495  2.6980 -0.6390 -2.4866
14860TIP3    H266072   1.220   2.359  14.377 -1.1608 -0.9936 -2.2943
14861TIP3   OH266073   1.601   3.089  16.537  0.1825  0.4268  0.0692
14861TIP3    H166074   1.550   3.132  16.468  0.4722  0.3012 -0.2276
14861TIP3    H266075   1.550   3.102  16.617 -0.8412 -0.5728 -0.3835
14862TIP3   OH266076   5.082   2.745   4.252 -0.1580  0.2146  0.5242
14862TIP3    H166077   5.072   2.657   4.288 -0.8134  0.6092  1.3354
14862TIP3    H266078   5.173   2.748   4.223 -0.0494 -0.6424  0.7287
14863TIP3   OH266079   3.983   4.842   5.945 -0.5358 -0.1323  0.7441
14863TIP3    H166080   4.052   4.775   5.953  0.6598  0.9103 -0.3513
14863TIP3    H266081   3.958   4.840   5.853 -0.9941  0.4529  0.8512
14864TIP3   OH266082   1.528   6.207  15.085 -0.2738 -0.1982 -0.0193
14864TIP3    H166083   1.440   6.242  15.074  0.1206  0.8710  0.1217
14864TIP3    H266084   1.555   6.236  15.172  0.5138  0.1826 -0.3724
14865TIP3   OH266085   5.933   6.219  14.421 -0.6118  0.0704  0.2624
14865TIP3    H166086   5.941   6.213  14.325 -0.8636 -0.7921  0.2881
14865TIP3    H266087   5.894   6.136  14.447  1.4238 -0.6125  1.3390
14866TIP3   OH266088   6.792   2.670   0.309  0.6940  0.3802 -0.5911
14866TIP3    H166089   6.796   2.749   0.362 -0.1712  1.2627 -1.7973
14866TIP3    H266090   6.876   2.627   0.324  1.3363  1.7205 -0.2039
14867TIP3   OH266091   6.554   1.608  16.157 -0.0191 -0.0898  0.3087
14867TIP3    H166092   6.617   1.545  16.192 -1.1238 -2.3491 -1.4847
14867TIP3    H266093   6.472   1.586  16.200 -0.7271 -0.9288 -1.3722
14868TIP3   OH266094   6.499   6.329   0.894 -0.3265 -0.0646  0.1593
14868TIP3    H166095   6.484   6.367   0.980 -2.7488 -1.3883  0.4195
14868TIP3    H266096   6.546   6.397   0.846 -1.2360  1.7807  1.7037
14869TIP3   OH266097   1.645   1.805  12.883  0.5499 -0.3065 -0.5331
14869TIP3    H166098   1.644   1.748  12.806 -0.3631 -0.2626 -0.5577
14869TIP3    H266099   1.590   1.761  12.947  2.7320 -1.2519  0.8018
14870TIP3   OH266100   5.544   1.481  12.000 -0.3549 -0.6648 -0.3927
14870TIP3    H166101   5.548   1.414  12.068 -1.8687 -0.2856  0.0998
14870TIP3    H266102   5.615   1.458  11.940 -0.3100 -2.2057  0.2098
14871TIP3   OH266103   5.265   2.292   2.494 -0.1709  0.1389 -0.2587
14871TIP3    H166104   5.330   2.239   2.540 -1.8706 -0.7344  1.2783
14871TIP3    H266105   5.206   2.228   2.454 -1.6204  0.8134  0.6869
14872TIP3   OH266106   0.349   5.059   3.035  0.0741 -0.4973  0.1060
14872TIP3    H166107   0.284   5.128   3.045 -0.3835 -1.1023  1.5111
14872TIP3    H266108   0.432   5.101   3.060 -0.2108 -0.4677  1.0190
14873TIP3   OH266109   6.002   2.137  15.533 -1.0082 -0.0306 -0.5006
14873TIP3    H166110   6.068   2.137  15.603 -1.6882  1.9549  0.2109
14873TIP3    H266111   6.037   2.197  15.467 -0.9149 -0.9946 -1.3497
14874TIP3   OH266112   4.168   4.317   1.065  0.4528 -0.1985  0.0371
14874TIP3    H166113   4.185   4.228   1.096  0.1484 -0.4351 -0.4551
14874TIP3    H266114   4.239   4.370   1.102  1.0696 -0.7837 -0.2941
14875TIP3   OH266115   6.034   0.645   5.745 -0.3825 -1.0426 -0.4866
14875TIP3    H166116   5.944   0.678   5.742  0.0642  0.2868 -0.0781
14875TIP3    H266117   6.029   0.568   5.802 -1.3620 -1.3800 -0.9938
14876TIP3   OH266118   4.503   5.493   2.525  0.5958 -0.4793 -0.4307
14876TIP3    H166119   4.578   5.434   2.527  2.0179  1.2034  1.6968
14876TIP3    H266120   4.534   5.569   2.476 -1.2717 -1.4502 -3.3143
14877TIP3   OH266121   5.285   4.281  11.831 -0.1014 -0.5846 -0.4194
14877TIP3    H166122   5.365   4.318  11.792 -1.2982  1.0942 -1.4039
14877TIP3    H266123   5.246   4.230  11.760 -1.6893  1.5368 -1.1871
14878TIP3   OH266124   4.475   5.635   3.323 -0.3310 -0.6348 -0.1604
14878TIP3    H166125   4.447   5.619   3.233 -0.8892 -3.3694  0.4039
14878TIP3    H266126   4.553   5.580   3.334 -0.3709 -0.4788  1.0838
14879TIP3   OH266127   5.751   1.582   3.072  0.0121 -0.2270  0.0992
14879TIP3    H166128   5.789   1.659   3.115 -0.6874  1.2259 -1.7641
14879TIP3    H266129   5.817   1.556   3.008  0.0212 -0.8679  0.3671
14880TIP3   OH266130   6.681   3.466   0.198  0.4916  0.1100 -0.3134
14880TIP3    H166131   6.687   3.396   0.263  1.7955  1.0075  0.5739
14880TIP3    H266132   6.603   3.515   0.224  0.3264 -0.2295 -0.1486
14881TIP3   OH266133   2.438   1.913   1.347  0.2126 -0.2938  0.5724
14881TIP3    H166134   2.501   1.985   1.349  0.6830 -0.6435 -0.7704
14881TIP3    H266135   2.360   1.950   1.307  0.7313 -0.7061 -0.8817
14882TIP3   OH266136   4.055   2.572  11.466 -0.3915 -0.1063 -0.1111
14882TIP3    H166137   4.038   2.655  11.510 -0.6264 -0.3782  0.3211
14882TIP3    H266138   4.052   2.507  11.537  0.3848 -0.4099 -0.3519
14883TIP3   OH266139   5.753   3.601  12.545 -0.8698 -0.9113 -0.0824
14883TIP3    H166140   5.660   3.617  12.529 -0.9773 -2.0001 -0.6264
14883TIP3    H266141   5.783   3.550  12.470  0.2078 -0.4631  0.0186
14884TIP3   OH266142   0.115   0.710  13.217  0.3415 -0.3971  0.6790
14884TIP3    H166143   0.082   0.639  13.271 -1.7190  0.1816  0.2882
14884TIP3    H266144   0.102   0.680  13.127  2.8017 -0.9397  0.4370
14885TIP3   OH266145   1.222   5.520  12.040  0.4215  0.0352  0.0380
14885TIP3    H166146   1.249   5.578  12.111  1.5857 -1.7538  1.1445
14885TIP3    H266147   1.135   5.489  12.066  0.0212  0.8562 -0.2976
14886TIP3   OH266148   1.398   0.730   0.543 -0.3660 -0.2848 -0.2170
14886TIP3    H166149   1.430   0.682   0.620  2.4507  1.0337 -0.4538
14886TIP3    H266150   1.368   0.662   0.483  0.7037 -1.5611  0.6357
14887TIP3   OH266151   4.046   6.460   5.091 -0.4585 -0.1413  0.1181
14887TIP3    H166152   4.117   6.397   5.078  0.2510  0.2323  1.8555
14887TIP3    H266153   4.085   6.529   5.146 -2.0098  0.3580  0.6465
14888TIP3   OH266154   4.104   5.376  12.437  0.3232 -0.1658 -0.0085
14888TIP3    H166155   4.179   5.406  12.385  0.0071  0.8042  0.0771
14888TIP3    H266156   4.116   5.417  12.523  0.5577 -1.3331  0.5461
14889TIP3   OH266157   1.766   5.915  14.549  0.3834 -0.0999 -0.3498
14889TIP3    H166158   1.852   5.952  14.531  1.1542 -0.8652  1.5081
14889TIP3    H266159   1.778   5.865  14.630 -1.9495  0.2510  0.2761
14890TIP3   OH266160   2.703   6.128   5.914  0.5579 -0.3217  0.1037
14890TIP3    H166161   2.734   6.166   5.996  0.5809 -0.1396  0.0124
14890TIP3    H266162   2.767   6.157   5.849  0.5496 -0.4793  0.0235
14891TIP3   OH266163   1.081   3.463  14.085 -0.3659  0.0709 -0.5843
14891TIP3    H166164   1.051   3.402  14.019  0.4741  1.1640 -2.0534
14891TIP3    H266165   1.084   3.412  14.166  0.7282 -1.9602 -1.8178
14892TIP3   OH266166   5.257   5.950   3.723 -0.1157  1.2273 -0.2284
14892TIP3    H166167   5.275   5.974   3.814 -0.3083  1.5593 -0.2763
14892TIP3    H266168   5.176   5.899   3.727  1.7369 -1.9653  0.2337
14893TIP3   OH266169   0.036   1.965  15.166 -0.2825 -0.1883  0.6203
14893TIP3    H166170  -0.011   1.883  15.147 -0.8909  0.2699  0.1084
14893TIP3    H266171   0.108   1.938  15.223 -0.4450 -1.0893  0.4192
14894TIP3   OH266172   1.221   5.815  17.198  0.0175  0.1717 -0.3486
14894TIP3    H166173   1.270   5.774  17.126 -0.3375 -1.5067  0.3016
14894TIP3    H266174   1.139   5.842  17.158 -1.2985 -3.1111 -0.1661
14895TIP3   OH266175   1.070   5.712   4.419 -0.3327 -0.0875  0.5763
14895TIP3    H166176   1.149   5.660   4.406 -0.6374 -0.4467  0.0888
14895TIP3    H266177   1.007   5.650   4.456 -0.8557 -0.2167 -0.4760
14896TIP3   OH266178   5.115   6.488   3.586 -0.5656 -0.1170 -0.1314
14896TIP3    H166179   5.138   6.581   3.592  0.7625 -0.5119  2.2189
14896TIP3    H266180   5.131   6.465   3.495  3.7908  0.9291  0.1503
14897TIP3   OH266181   2.850   4.797  17.194  0.3637 -0.0524 -0.6333
14897TIP3    H166182   2.816   4.847  17.120 -0.1548  0.4580 -0.0650
14897TIP3    H266183   2.777   4.743  17.222  0.1638  0.6401  0.2429
14898TIP3   OH266184   1.536   0.796  13.067  0.8674  0.0084 -0.4265
14898TIP3    H166185   1.568   0.871  13.016 -0.1457  0.8347  0.1076
14898TIP3    H266186   1.584   0.801  13.150 -0.4228  1.1356  0.3002
14899TIP3   OH266187   3.821   5.409   2.788  0.1798 -0.3314  0.1384
14899TIP3    H166188   3.786   5.320   2.786  0.2116 -0.3583  0.7240
14899TIP3    H266189   3.899   5.403   2.842  1.0224 -0.2378 -1.0208
14900TIP3   OH266190   3.377   1.901   5.483  0.6426  0.3426  0.4253
14900TIP3    H166191   3.396   1.808   5.473  1.1731  0.4068  0.7822
14900TIP3    H266192   3.346   1.929   5.397 -0.8194 -0.4533  0.6727
14901TIP3   OH266193   1.071   4.371   1.710 -0.0938  0.0079  0.1112
14901TIP3    H166194   1.152   4.379   1.661 -0.0797  0.4395  0.1961
14901TIP3    H266195   1.098   4.351   1.800 -0.1038 -0.3983  0.0237
14902TIP3   OH266196   4.827   2.884  12.361  0.2177 -0.1066 -0.2402
14902TIP3    H166197   4.823   2.980  12.361  3.1450  0.0965  1.2444
14902TIP3    H266198   4.769   2.859  12.433 -0.7377  0.4913 -0.7665
14903TIP3   OH266199   3.975   1.273  14.264  0.6608  0.0537 -0.5235
14903TIP3    H166200   3.904   1.298  14.323 -0.6074  0.9828 -2.3507
14903TIP3    H266201   3.944   1.194  14.221  1.1477 -0.0519 -0.6870
14904TIP3   OH266202   4.984   1.114   1.836 -0.6545 -0.6046  0.3050
14904TIP3    H166203   5.069   1.127   1.878  0.6536 -2.0004 -1.7039
14904TIP3    H266204   5.005   1.071   1.753 -3.1048  1.2636 -1.4469
14905TIP3   OH266205   2.711   2.190   1.826 -0.6490  0.3578  0.2317
14905TIP3    H166206   2.688   2.112   1.775 -0.4040  0.6608 -0.3530
14905TIP3    H266207   2.806   2.194   1.823 -0.3632 -1.2377  3.1668
14906TIP3   OH266208   5.344   6.205  10.678 -0.3556  0.0861  0.0932
14906TIP3    H166209   5.387   6.289  10.688 -1.7180  0.6942  1.1574
14906TIP3    H266210   5.274   6.220  10.615 -3.1376  0.8836  3.0897
14907TIP3   OH266211   1.434   5.167   4.083  0.3457  0.4071 -0.6016
14907TIP3    H166212   1.453   5.082   4.043  0.4364  0.7364 -1.2732
14907TIP3    H266213   1.389   5.146   4.165  0.3859 -0.2870 -0.7542
14908TIP3   OH266214   0.506   2.813   0.066 -0.7156 -0.8727 -0.1241
14908TIP3    H166215   0.501   2.765   0.148 -0.5000  0.6066  0.7782
14908TIP3    H266216   0.588   2.783   0.025  0.1965 -0.2016  1.1388
14909TIP3   OH266217   2.080   0.718   1.914 -0.3826 -0.2883 -0.1745
14909TIP3    H166218   2.161   0.731   1.865 -0.2447 -0.2807  0.0513
14909TIP3    H266219   2.092   0.633   1.958 -0.7454 -0.5703 -0.6181
14910TIP3   OH266220   4.256   0.317   5.888 -0.0507  0.2657 -0.4647
14910TIP3    H166221   4.335   0.345   5.841 -0.4297  1.2825 -0.5206
14910TIP3    H266222   4.289   0.260   5.957  0.8346  1.3865  0.0764
14911TIP3   OH266223   1.911   1.715  16.902 -0.3829 -0.4968  0.0209
14911TIP3    H166224   1.922   1.806  16.875  1.1610 -0.6409  0.0735
14911TIP3    H266225   1.903   1.719  16.997  3.5746 -0.5970  0.5337
14912TIP3   OH266226   0.741   1.325   3.875  0.5058  0.2689  0.1528
14912TIP3    H166227   0.781   1.300   3.958  1.5801  2.0625  0.2243
14912TIP3    H266228   0.647   1.309   3.888  0.6327  0.6738  1.7848
14913TIP3   OH266229   5.130   1.331  10.820  0.0040  0.5311 -0.1099
14913TIP3    H166230   5.208   1.305  10.869  0.1121  1.3552  0.1680
14913TIP3    H266231   5.132   1.427  10.820 -1.2957  0.5829  0.3793
14914TIP3   OH266232   6.135   0.734   1.292  0.5730  0.3939  0.8249
14914TIP3    H166233   6.109   0.821   1.323  0.5296  0.4238  0.7061
14914TIP3    H266234   6.177   0.693   1.367  1.6588  0.9627  0.5594
14915TIP3   OH266235   1.197   2.746  12.411 -0.2096  0.2660  0.0555
14915TIP3    H166236   1.146   2.745  12.492 -1.2809  0.8559 -0.5975
14915TIP3    H266237   1.145   2.695  12.349  0.0587  0.7552 -0.5804
14916TIP3   OH266238   0.051   1.210   2.353 -0.0470  0.1196  0.8008
14916TIP3    H166239  -0.044   1.215   2.360 -0.1132  0.7737 -0.3122
14916TIP3    H266240   0.079   1.300   2.332  0.7725 -0.1290  0.7704
14917TIP3   OH266241   6.096   3.169   0.088  0.0203 -0.5455 -0.1709
14917TIP3    H166242   6.175   3.174   0.142  0.2278  0.2981 -0.5341
14917TIP3    H266243   6.126   3.132   0.005 -0.0476 -0.6248 -0.1610
14918TIP3   OH266244   6.330   5.427  11.887  0.5697  0.4949 -0.1926
14918TIP3    H166245   6.410   5.374  11.887  0.1874 -0.1359 -1.4581
14918TIP3    H266246   6.358   5.513  11.920  1.0301 -0.6568  2.7113
14919TIP3   OH266247   2.623   3.006   3.873 -0.1458  0.1252  0.2967
14919TIP3    H166248   2.635   2.928   3.927 -1.2490 -1.3911 -1.4932
14919TIP3    H266249   2.678   2.991   3.796 -1.3138  0.5032 -0.6501
14920TIP3   OH266250   5.915   5.453  14.724  0.7451 -0.4594 -0.8058
14920TIP3    H166251   5.924   5.388  14.655  2.3195 -1.4075  0.2153
14920TIP3    H266252   5.994   5.442  14.778 -0.2754  0.4250  0.9793
14921TIP3   OH266253   4.611   4.668   2.677 -0.5190 -0.2363 -0.5852
14921TIP3    H166254   4.636   4.750   2.720 -0.0133 -0.4079 -0.5486
14921TIP3    H266255   4.524   4.685   2.641 -2.0166 -0.7952  2.4449
14922TIP3   OH266256   4.810   1.064  15.996  0.0044 -0.2843 -0.0979
14922TIP3    H166257   4.865   1.040  16.070  1.0677  0.2961 -0.6704
14922TIP3    H266258   4.850   1.018  15.921  0.2115  0.7916 -0.6641
14923TIP3   OH266259   5.194   3.542  16.946 -0.2002  0.2581  0.3837
14923TIP3    H166260   5.217   3.630  16.917  1.3168 -0.0258  0.6387
14923TIP3    H266261   5.103   3.550  16.977  0.0599  1.8391  0.8392
14924TIP3   OH266262   2.697   3.350  12.803 -0.1159  0.2147 -0.7739
14924TIP3    H166263   2.781   3.384  12.833  0.0856  0.7959 -1.9426
14924TIP3    H266264   2.633   3.415  12.830 -0.1722 -0.1270 -0.0667
14925TIP3   OH266265   6.735   1.413   5.822  0.3022  0.1725  0.3230
14925TIP3    H166266   6.708   1.479   5.886  2.0673  1.8361 -0.5616
14925TIP3    H266267   6.724   1.456   5.737 -1.0592 -1.6511 -0.4916
14926TIP3   OH266268   4.004   2.702  13.023  0.1945 -0.2584 -0.2950
14926TIP3    H166269   4.016   2.724  12.931 -1.1961  2.4876  0.0797
14926TIP3    H266270   4.035   2.778  13.071 -3.6253  0.5676  1.2203
14927TIP3   OH266271   0.453   5.134  10.776  0.5076  0.2618  0.5119
14927TIP3    H166272   0.389   5.201  10.800  0.2777 -0.8048  3.2057
14927TIP3    H266273   0.441   5.123  10.682 -2.8770  0.5167  0.7799
14928TIP3   OH266274   4.350   0.610   3.934 -0.0137  0.7756 -0.1846
14928TIP3    H166275   4.336   0.678   3.868 -0.1286  0.6055 -0.3362
14928TIP3    H266276   4.285   0.630   4.002  0.5163  1.3120  0.1667
14929TIP3   OH266277   4.355   6.287   6.509  0.5307  0.0533 -0.0482
14929TIP3    H166278   4.260   6.289   6.514  0.4658 -0.8221 -0.8137
14929TIP3    H266279   4.384   6.335   6.587 -0.5259  0.5066  0.0830
14930TIP3   OH266280   0.394   0.917   4.251 -0.1499  0.0054  0.2683
14930TIP3    H166281   0.394   0.997   4.304 -1.7967 -0.5155  1.0833
14930TIP3    H266282   0.333   0.936   4.180  0.1666 -0.2070 -0.0643
14931TIP3   OH266283   2.396   5.226   6.700 -0.1141 -0.3812 -0.4891
14931TIP3    H166284   2.388   5.175   6.781  0.2466  1.7129  0.9829
14931TIP3    H266285   2.490   5.229   6.683  0.0259  1.0151  0.3516
14932TIP3   OH266286   2.384   1.570   4.400  0.2778 -0.6310 -0.0480
14932TIP3    H166287   2.305   1.516   4.398 -0.8566  0.9495 -0.0930
14932TIP3    H266288   2.421   1.556   4.487 -0.9697 -0.1723  0.5769
14933TIP3   OH266289   4.772   6.661   5.935 -0.1255 -0.0813  0.3540
14933TIP3    H166290   4.864   6.678   5.916 -0.9013  3.4204 -1.1226
14933TIP3    H266291   4.763   6.681   6.029  0.2163  2.1961 -0.0424
14934TIP3   OH266292   2.241   0.838   4.916 -0.4255 -0.4010  0.2931
14934TIP3    H166293   2.155   0.835   4.957 -0.1799  1.4401  1.0264
14934TIP3    H266294   2.264   0.931   4.915  2.3614 -0.9673  1.8902
14935TIP3   OH266295   6.029   2.159  14.474 -0.2660 -0.3226 -0.4486
14935TIP3    H166296   6.102   2.157  14.536  0.4380  1.1435 -1.1692
14935TIP3    H266297   6.025   2.069  14.440  0.8671 -0.5648 -0.0132
14936TIP3   OH266298   4.393   6.739   5.698  0.4167 -0.6014 -0.5551
14936TIP3    H166299   4.448   6.671   5.659 -1.0511 -0.8043 -2.4655
14936TIP3    H266300   4.437   6.821   5.677  0.0084 -0.7547 -2.1368
14937TIP3   OH266301   4.052   3.762  16.544 -0.8206  0.1393 -0.3974
14937TIP3    H166302   4.039   3.857  16.544 -0.9035  0.1452 -1.5874
14937TIP3    H266303   4.099   3.744  16.462  0.6674 -0.6698  0.5913
14938TIP3   OH266304   5.653   3.957  16.462 -0.0877  0.0790  0.4679
14938TIP3    H166305   5.698   4.028  16.415 -1.5061  2.0597  1.9707
14938TIP3    H266306   5.593   3.920  16.397  0.9015 -0.0009 -0.4298
14939TIP3   OH266307   5.496   1.072  13.287  0.3816 -0.0007 -0.7651
14939TIP3    H166308   5.497   1.116  13.372 -1.2164  0.8624 -1.1672
14939TIP3    H266309   5.583   1.033  13.280 -0.0700 -1.8323  2.1501
14940TIP3   OH266310   5.752   3.838   2.268 -0.1509  0.4867 -0.1385
14940TIP3    H166311   5.822   3.902   2.280  1.0116 -0.8136  0.1849
14940TIP3    H266312   5.776   3.790   2.189 -0.0493 -0.7235  0.6026
14941TIP3   OH266313   3.134   0.315   1.475 -0.0763 -0.5256  0.0422
14941TIP3    H166314   3.221   0.335   1.508  0.0865 -0.6056 -0.3390
14941TIP3    H266315   3.143   0.315   1.380 -0.5738 -0.1480 -0.0146
14942TIP3   OH266316   6.685   6.031  12.530  0.5506 -0.1008  0.4165
14942TIP3    H166317   6.717   6.115  12.497  0.6721 -1.0060 -1.9196
14942TIP3    H266318   6.666   5.979  12.452 -0.7586 -1.8183  1.7743
14943TIP3   OH266319   5.853   4.374   3.462  0.3883  0.3396 -0.5567
14943TIP3    H166320   5.873   4.286   3.494 -1.0717  0.4919  0.8783
14943TIP3    H266321   5.902   4.432   3.520 -0.1821  0.5247 -0.2517
14944TIP3   OH266322   5.274   2.519  16.424  0.4069 -0.3120  0.0103
14944TIP3    H166323   5.286   2.426  16.407  0.5137 -0.1689 -0.7354
14944TIP3    H266324   5.182   2.527  16.450  0.5728 -0.7101  0.7500
14945TIP3   OH266325   2.087   4.767   1.753 -0.0905  0.3248 -0.3590
14945TIP3    H166326   2.107   4.694   1.812  1.0303 -0.7838 -2.0399
14945TIP3    H266327   2.131   4.842   1.794  2.3702 -0.8281 -0.7361
14946TIP3   OH266328   2.852   0.080   3.702  0.1667  0.2614 -0.0436
14946TIP3    H166329   2.858   0.096   3.796  1.2154  0.0037 -0.0507
14946TIP3    H266330   2.820  -0.009   3.694  0.9879 -0.0542  0.0937
14947TIP3   OH266331   1.733   1.765  16.152  0.1996  0.5464  0.2672
14947TIP3    H166332   1.705   1.695  16.211  0.8167  0.5901  0.6303
14947TIP3    H266333   1.728   1.845  16.205  2.1461  0.4034  0.7673
14948TIP3   OH266334   1.730   4.151  16.027  0.4249  0.0850 -0.1842
14948TIP3    H166335   1.730   4.138  16.122  1.4886  1.0830 -0.0246
14948TIP3    H266336   1.638   4.139  16.001  0.2301 -0.8575  0.8600
14949TIP3   OH266337   1.413   5.840  14.250  0.3346  0.3745  0.3021
14949TIP3    H166338   1.369   5.849  14.166 -0.8235 -2.3203  0.5352
14949TIP3    H266339   1.371   5.907  14.306 -1.0048  0.1990 -0.4454
14950TIP3   OH266340   0.125   6.597  12.979 -0.0339  0.0823 -0.0801
14950TIP3    H166341   0.099   6.613  13.070 -0.3658 -1.9857  0.2445
14950TIP3    H266342   0.123   6.683  12.937 -2.3177  0.7460  1.2434
14951TIP3   OH266343   1.680   0.467  14.786 -0.3521  0.2123 -0.0698
14951TIP3    H166344   1.747   0.530  14.811 -1.1160  0.5175  1.2994
14951TIP3    H266345   1.666   0.414  14.864  0.3149 -1.7435 -1.1960
14952TIP3   OH266346   4.418   1.392  10.832  0.2591  0.1141  0.4069
14952TIP3    H166347   4.376   1.315  10.871 -1.5203  0.9167  0.1526
14952TIP3    H266348   4.437   1.365  10.742  1.0092 -0.4987  0.7332
14953TIP3   OH266349   3.214   3.767  11.296 -0.2614 -0.1513  0.5466
14953TIP3    H166350   3.232   3.849  11.250 -1.6878  0.5890  1.2489
14953TIP3    H266351   3.297   3.719  11.294  0.2388  0.7178 -1.0336
14954TIP3   OH266352   4.530   6.228  11.639  0.1486 -0.1812  0.2528
14954TIP3    H166353   4.547   6.304  11.584  2.9298 -0.4191  0.6110
14954TIP3    H266354   4.506   6.265  11.724 -0.6507  0.2467 -0.1539
14955TIP3   OH266355   1.887   0.320   6.176  0.1757  0.3212  0.9171
14955TIP3    H166356   1.935   0.240   6.197 -0.9536 -0.3317  1.0752
14955TIP3    H266357   1.843   0.345   6.257  0.1859  0.8714  0.7602
14956TIP3   OH266358   0.374   4.059  16.269 -0.3612 -0.4864 -0.0574
14956TIP3    H166359   0.378   4.120  16.195  0.1051 -0.7114 -0.2193
14956TIP3    H266360   0.395   4.112  16.346 -0.2583 -0.3761 -0.1606
14957TIP3   OH266361   3.170   5.707  12.712  0.2134  0.0791 -0.1825
14957TIP3    H166362   3.264   5.706  12.732 -0.0408 -1.1677  1.1275
14957TIP3    H266363   3.128   5.692  12.797 -1.1881  0.8450 -0.7101
14958TIP3   OH266364   4.875   4.916  13.106 -0.0469 -0.8700  0.0354
14958TIP3    H166365   4.847   4.920  13.014 -0.3387  0.7522  0.1733
14958TIP3    H266366   4.810   4.967  13.154  1.4120  0.3509  0.8013
14959TIP3   OH266367   3.641   5.328  15.396  0.4354  0.0047  0.0023
14959TIP3    H166368   3.711   5.335  15.330 -1.0293  1.5380 -1.4821
14959TIP3    H266369   3.635   5.416  15.434  2.7526 -1.3250  3.9556
14960TIP3   OH266370   3.357   5.228   3.327  0.3239 -0.9412  0.4539
14960TIP3    H166371   3.271   5.203   3.294 -0.5264  2.7624 -0.6429
14960TIP3    H266372   3.408   5.251   3.249  0.8206  0.8904  1.2477
14961TIP3   OH266373   3.311   1.731   2.276 -0.0348 -0.3125 -0.0495
14961TIP3    H166374   3.260   1.734   2.357  2.0546 -0.0302  1.3295
14961TIP3    H266375   3.291   1.814   2.232 -0.6911 -0.1801  0.4804
14962TIP3   OH266376   1.114   0.429   1.646  0.3167 -0.3129 -1.0992
14962TIP3    H166377   1.163   0.431   1.728 -0.2115  2.8363 -0.7384
14962TIP3    H266378   1.032   0.384   1.668  0.9499 -1.1841 -0.4299
14963TIP3   OH266379   6.357   3.902  16.359  0.4512 -0.1859 -0.8505
14963TIP3    H166380   6.369   3.822  16.307 -0.6317 -2.4816  2.1390
14963TIP3    H266381   6.322   3.871  16.443  0.9893  3.3641  0.8666
14964TIP3   OH266382   2.153   2.477  17.187  0.4786 -0.5612  0.1504
14964TIP3    H166383   2.238   2.496  17.226  0.1769  0.8630  0.1775
14964TIP3    H266384   2.100   2.555  17.206 -0.7150 -1.2593 -0.1905
14965TIP3   OH266385   5.860   4.349  11.268  0.3372 -0.0836 -0.0060
14965TIP3    H166386   5.923   4.362  11.197 -0.1244  1.0122 -0.2322
14965TIP3    H266387   5.781   4.316  11.224  0.7868 -1.6819  0.3037
14966TIP3   OH266388   3.964   5.400  16.779 -0.1339 -0.0790 -0.2839
14966TIP3    H166389   3.916   5.361  16.706 -0.0155 -1.2990  0.2690
14966TIP3    H266390   3.898   5.418  16.846 -0.3828  1.8701 -0.9920
14967TIP3   OH266391   4.538   5.940  11.465 -0.2410  1.2945  0.2646
14967TIP3    H166392   4.480   5.882  11.515  0.0236 -0.0511 -0.9433
14967TIP3    H266393   4.626   5.914  11.490 -0.1235  1.6607  0.2407
14968TIP3   OH266394   1.483   2.191   6.017  0.1438 -1.1834  0.1485
14968TIP3    H166395   1.537   2.122   6.056 -0.5593 -1.2151  1.0901
14968TIP3    H266396   1.396   2.178   6.055 -0.1185 -0.0952 -0.0562
14969TIP3   OH266397   1.333   6.269  12.195  1.1079 -0.2837 -0.1583
14969TIP3    H166398   1.262   6.334  12.198  1.4633  0.3515 -3.1093
14969TIP3    H266399   1.370   6.272  12.283 -0.1666  2.0736  0.4090
14970TIP3   OH266400   4.195   2.257  14.801 -0.1556 -0.3476  0.3156
14970TIP3    H166401   4.284   2.231  14.824 -0.3994 -1.7969 -0.2791
14970TIP3    H266402   4.154   2.278  14.885  0.4470 -0.6755  0.6979
14971TIP3   OH266403   2.384   2.497  15.776 -0.4474 -0.0488 -0.4700
14971TIP3    H166404   2.434   2.419  15.801  0.6138  0.4507 -0.9450
14971TIP3    H266405   2.312   2.464  15.723 -1.1442 -0.8650  0.9020
14972TIP3   OH266406   2.967   4.180  13.961 -0.1560  0.2267 -0.4107
14972TIP3    H166407   2.916   4.181  14.042 -1.5581 -0.2607 -1.2374
14972TIP3    H266408   2.953   4.266  13.922 -0.3124  0.1080 -0.6183
14973TIP3   OH266409   2.375   0.274  13.732 -0.1654 -0.9457  0.2663
14973TIP3    H166410   2.434   0.254  13.805  1.7275 -0.6126 -1.0773
14973TIP3    H266411   2.336   0.359  13.755  2.9388  0.8424 -0.4732
14974TIP3   OH266412   5.960   3.725   4.947  0.2628  0.3555 -0.6644
14974TIP3    H166413   5.935   3.633   4.951  0.5728 -0.0761 -4.6435
14974TIP3    H266414   5.882   3.773   4.975 -1.3080 -1.1154 -2.2692
14975TIP3   OH266415   2.271   1.735  12.833  0.2932  0.0448  0.3607
14975TIP3    H166416   2.364   1.713  12.824  0.6013  1.4579 -0.2969
14975TIP3    H266417   2.230   1.695  12.756  0.3025 -0.7990  0.7863
14976TIP3   OH266418   5.916   5.538   0.307 -0.4626  0.2703  0.5460
14976TIP3    H166419   5.960   5.498   0.382  2.1922  2.6255  0.4281
14976TIP3    H266420   5.900   5.465   0.247  0.5407 -1.1698  1.9371
14977TIP3   OH266421   5.755   3.716   0.497 -0.2153 -0.1516  0.5822
14977TIP3    H166422   5.770   3.629   0.534  2.6990  0.5731  1.3992
14977TIP3    H266423   5.716   3.766   0.569  0.0640 -0.2630  0.8149
14978TIP3   OH266424   2.216   4.422   3.110  0.3865 -0.6008  0.3573
14978TIP3    H166425   2.178   4.489   3.053 -1.8343 -2.4960 -0.5966
14978TIP3    H266426   2.310   4.431   3.100  0.2317  2.6696  0.7264
14979TIP3   OH266427   2.752   5.637   6.489 -0.2514 -0.0723 -0.2888
14979TIP3    H166428   2.756   5.672   6.577 -1.3385  0.4105 -0.4105
14979TIP3    H266429   2.841   5.643   6.456 -0.3007  2.1538 -0.1383
14980TIP3   OH266430   3.615   1.049  13.921  0.0682  0.4568 -0.0352
14980TIP3    H166431   3.662   1.061  13.839  0.4060 -0.3809  0.0265
14980TIP3    H266432   3.662   0.978  13.966 -0.2985  0.6858  0.7375
14981TIP3   OH266433   6.729   3.099  16.431 -0.1693  0.4185  0.0196
14981TIP3    H166434   6.687   3.019  16.400 -0.3184  0.9558 -1.2686
14981TIP3    H266435   6.780   3.073  16.507 -2.0017 -0.4508  0.9969
14982TIP3   OH266436   2.711   4.259  13.469  0.1942  0.0749 -0.2110
14982TIP3    H166437   2.755   4.177  13.490  1.0324  0.3764 -0.6904
14982TIP3    H266438   2.623   4.234  13.443  1.3626 -1.0703 -3.5833
14983TIP3   OH266439   5.777   4.052   6.193  0.1234 -0.3107 -0.1562
14983TIP3    H166440   5.743   4.125   6.141  0.9419 -0.9808 -1.7130
14983TIP3    H266441   5.703   3.993   6.203 -0.4266  0.5065  0.7236
14984TIP3   OH266442   6.131   6.820  15.841  0.1205  0.4839 -0.3801
14984TIP3    H166443   6.087   6.864  15.768 -0.2437  0.9201  0.0913
14984TIP3    H266444   6.116   6.878  15.916  1.6336  0.7203 -0.2304
14985TIP3   OH266445   5.339   2.764   4.141  0.5024 -0.1983  0.3017
14985TIP3    H166446   5.355   2.858   4.138 -0.7435  0.0158 -1.2171
14985TIP3    H266447   5.382   2.730   4.062  0.1447 -0.7411  0.3306
14986TIP3   OH266448   6.442   0.124   0.557  0.3840 -0.0811  0.0968
14986TIP3    H166449   6.410   0.073   0.631 -0.3360  0.6568  0.3017
14986TIP3    H266450   6.516   0.073   0.524  1.2654  0.0001  1.8398
14987TIP3   OH266451   5.479   6.305  13.035 -0.5629 -0.1522  0.2240
14987TIP3    H166452   5.569   6.275  13.022 -0.3837  0.3818  0.2251
14987TIP3    H266453   5.435   6.231  13.078 -0.1232 -0.4075  0.2368
14988TIP3   OH266454   3.194   0.321  17.164  0.0793 -0.2617 -0.1339
14988TIP3    H166455   3.255   0.263  17.118  0.9351  0.8674 -0.5003
14988TIP3    H266456   3.118   0.267  17.183  0.5720 -1.3118 -1.0424
14989TIP3   OH266457   6.147   4.161   2.324  0.1183  0.2991 -0.4602
14989TIP3    H166458   6.178   4.232   2.379 -0.9718  1.5055 -1.3376
14989TIP3    H266459   6.150   4.196   2.235 -0.6682 -0.6553 -0.8887
14990TIP3   OH266460   5.235   1.306  11.183  0.1590  0.0544  0.4152
14990TIP3    H166461   5.281   1.286  11.101 -2.6909  0.2053 -1.3727
14990TIP3    H266462   5.206   1.397  11.172  0.0417  0.2010  1.7877
14991TIP3   OH266463   5.908   5.546   2.645 -0.1512  0.3350  0.5153
14991TIP3    H166464   5.832   5.520   2.593  1.2044  0.6688 -1.7252
14991TIP3    H266465   5.893   5.504   2.730 -0.3648 -4.0137 -1.4035
14992TIP3   OH266466   2.148   6.086   0.136  0.2846 -0.3933  0.0177
14992TIP3    H166467   2.202   6.007   0.137 -1.6560 -1.8573 -1.7841
14992TIP3    H266468   2.060   6.055   0.116 -0.7781  2.1467  0.3312
14993TIP3   OH266469   2.367   0.229  13.414  0.0903  0.1659 -0.2180
14993TIP3    H166470   2.336   0.210  13.503 -0.2273 -0.4572 -0.4625
14993TIP3    H266471   2.353   0.324  13.404  0.2138  0.2587  0.4268
14994TIP3   OH266472   2.543   1.213  11.395  0.1757 -1.0226 -0.4338
14994TIP3    H166473   2.536   1.180  11.305 -0.6098 -2.0541 -0.0151
14994TIP3    H266474   2.459   1.191  11.435  0.5993 -0.7658  0.6202
14995TIP3   OH266475   5.273   1.104  10.519 -0.0843  0.2385 -0.3532
14995TIP3    H166476   5.318   1.020  10.510  0.6663  0.8770 -3.8708
14995TIP3    H266477   5.338   1.160  10.563  1.1846  0.1131 -1.9688
14996TIP3   OH266478   2.989   0.750  13.136  0.6653  0.1473  0.7236
14996TIP3    H166479   2.966   0.843  13.126  0.2861  0.0060  0.2570
14996TIP3    H266480   2.908   0.703  13.115  0.8287 -0.2876  1.0582
14997TIP3   OH266481   0.514   0.142   1.033 -0.0476  0.2167 -0.4329
14997TIP3    H166482   0.455   0.068   1.036  0.9531 -0.6138 -0.5053
14997TIP3    H266483   0.599   0.106   1.061  0.5127  1.2604 -0.7332
14998TIP3   OH266484   1.385   2.523  12.083 -0.1716  0.6263 -0.2624
14998TIP3    H166485   1.435   2.441  12.080  0.6500  1.1497 -1.2285
14998TIP3    H266486   1.354   2.535  11.994 -0.8170  1.0618  0.0165
14999TIP3   OH266487   4.471   4.640  16.311 -0.1411 -0.3581  0.3318
14999TIP3    H166488   4.413   4.629  16.387 -1.6309  2.5662 -0.2776
14999TIP3    H266489   4.414   4.630  16.235  0.3530  1.3895 -0.3078
15000TIP3   OH266490   3.011   4.528   5.640 -0.1350  0.5713  0.2695
15000TIP3    H166491   3.008   4.454   5.700  2.1406  0.6052  0.5017
15000TIP3    H266492   3.045   4.491   5.558  0.1986  1.1908  0.1224
15001TIP3   OH266493   5.500   5.545   2.415  0.4777  0.8597 -0.4251
15001TIP3    H166494   5.512   5.524   2.322  1.5090  1.0601 -0.3526
15001TIP3    H266495   5.412   5.513   2.435 -0.3448  2.1030 -1.8192
15002TIP3   OH266496   1.934   4.152  10.665 -0.3653 -0.0602  0.0688
15002TIP3    H166497   2.023   4.117  10.662 -0.7499 -1.0496 -1.0465
15002TIP3    H266498   1.924   4.196  10.580 -1.1065 -0.4354 -0.0440
15003TIP3   OH266499   3.881   1.397   0.071 -0.4473  0.2423  0.4111
15003TIP3    H166500   3.974   1.419   0.073 -0.2151 -0.5883 -0.5943
15003TIP3    H266501   3.878   1.304   0.092 -1.0628  0.2646  0.4494
15004TIP3   OH266502   4.939   0.632   2.168  0.2113  0.1196 -0.0591
15004TIP3    H166503   4.928   0.705   2.229 -0.6979  0.1917 -0.3008
15004TIP3    H266504   5.027   0.645   2.132  0.4454  0.5273  0.6362
15005TIP3   OH266505   1.407   4.591  13.559 -0.3486  0.4566 -0.7905
15005TIP3    H166506   1.500   4.566  13.567 -0.0767  1.0175 -2.0252
15005TIP3    H266507   1.362   4.534  13.622  1.1017  1.9009  1.7079
15006TIP3   OH266508   1.759   2.213  11.816  0.2084  0.5162 -0.4007
15006TIP3    H166509   1.757   2.308  11.826 -1.3677  0.2648  3.0102
15006TIP3    H266510   1.853   2.192  11.813  0.5954  2.1148 -0.6775
15007TIP3   OH266511   0.813   4.407  10.974 -0.0839 -0.4448 -0.3197
15007TIP3    H166512   0.802   4.500  10.953  0.1674 -0.0138  1.2747
15007TIP3    H266513   0.725   4.376  10.993 -0.0806 -0.3224 -0.0976
15008TIP3   OH266514   6.030   5.983  12.105  0.1539  0.6083 -0.2449
15008TIP3    H166515   6.098   5.959  12.168 -0.1535 -0.5903 -0.3400
15008TIP3    H266516   6.016   5.904  12.053 -0.5561  1.1619 -0.9384
15009TIP3   OH266517   4.699   4.817   4.371 -0.0137 -0.4556 -0.0529
15009TIP3    H166518   4.716   4.754   4.302  1.5283 -2.1574  1.7571
15009TIP3    H266519   4.658   4.891   4.327  1.1761 -1.3221 -2.8019
15010TIP3   OH266520   0.451   2.007  17.186  0.0406  0.3254  0.1010
15010TIP3    H166521   0.469   2.083  17.130 -0.0253 -0.7356 -1.4326
15010TIP3    H266522   0.527   2.000  17.243  0.5483  0.9027 -0.4887
15011TIP3   OH266523   3.159   5.315  15.524 -0.5534  0.0954  0.0030
15011TIP3    H166524   3.154   5.226  15.561 -1.1566  0.2490  0.3013
15011TIP3    H266525   3.078   5.325  15.475 -1.5925  1.3010  1.8424
15012TIP3   OH266526   5.654   3.580   2.324  0.0672  0.3093  0.2712
15012TIP3    H166527   5.716   3.653   2.331 -0.5773  0.7641  1.6580
15012TIP3    H266528   5.657   3.538   2.410  0.7293 -1.5912 -0.6328
15013TIP3   OH266529   6.062   2.385   2.445  0.4966  0.3986  0.0667
15013TIP3    H166530   6.034   2.333   2.370 -0.2025  1.0498 -0.1312
15013TIP3    H266531   6.147   2.422   2.417 -0.0371  1.1219 -0.6542
15014TIP3   OH266532   1.286   6.241  12.906  0.0793 -0.5004 -0.6682
15014TIP3    H166533   1.258   6.324  12.945 -0.2304 -0.2682 -1.3733
15014TIP3    H266534   1.312   6.264  12.817 -0.9313 -1.3095 -1.1954
15015TIP3   OH266535   4.699   5.775   4.418 -0.8110  0.3922  0.2488
15015TIP3    H166536   4.612   5.783   4.379 -0.8217 -0.2528  0.1279
15015TIP3    H266537   4.707   5.851   4.475 -0.4943  1.8134 -1.5945
15016TIP3   OH266538   5.375   1.286  17.052 -0.0014  0.5055 -0.1563
15016TIP3    H166539   5.419   1.324  17.128 -0.7584  0.1872  0.4571
15016TIP3    H266540   5.301   1.344  17.035 -1.2767 -0.7189  0.9053
15017TIP3   OH266541   5.828   1.690   1.837  0.0605  0.2980  0.3327
15017TIP3    H166542   5.813   1.609   1.886  0.2745 -0.0892 -0.2259
15017TIP3    H266543   5.812   1.760   1.900  0.2888 -0.1883  0.9410
15018TIP3   OH266544   3.871   6.634   1.921  0.2123 -0.1565 -0.3043
15018TIP3    H166545   3.793   6.672   1.881  1.1406  2.5807  0.2654
15018TIP3    H266546   3.933   6.624   1.849 -0.0022 -0.4991 -0.4418
15019TIP3   OH266547   1.870   4.995  15.216  0.0063 -0.0089 -0.0223
15019TIP3    H166548   1.912   4.913  15.242  0.3484  1.3348  4.7638
15019TIP3    H266549   1.777   4.981  15.234 -0.1554  0.1643 -0.7136
15020TIP3   OH266550   5.481   0.172  16.673 -0.0433 -0.3006 -0.6799
15020TIP3    H166551   5.469   0.203  16.583 -0.1248  2.1096  0.1019
15020TIP3    H266552   5.565   0.208  16.700 -0.3102 -0.4668  0.4183
15021TIP3   OH266553   1.307   5.938  11.081  0.0080  0.0733  0.6196
15021TIP3    H166554   1.235   5.878  11.099 -0.0169  0.4764  2.0084
15021TIP3    H266555   1.276   5.993  11.009  0.0770 -1.6065 -0.7522
15022TIP3   OH266556   1.683   3.159   3.277  0.5297  0.4061  0.1283
15022TIP3    H166557   1.615   3.107   3.234  0.1451 -0.2990  1.5262
15022TIP3    H266558   1.752   3.097   3.299  0.3941  0.5957  1.1547
15023TIP3   OH266559   4.694   4.265   3.985  0.0633 -0.1521 -0.0070
15023TIP3    H166560   4.619   4.206   3.988  1.2669 -1.7549 -0.2915
15023TIP3    H266561   4.706   4.284   3.892 -1.0680  1.6181  0.1518
15024TIP3   OH266562   5.621   4.940  13.675 -0.2419 -0.1215 -0.5132
15024TIP3    H166563   5.541   4.938  13.727 -0.6854  1.0788 -1.1132
15024TIP3    H266564   5.630   5.031  13.648  2.4853  0.2718  1.2826
15025TIP3   OH266565   3.960   5.654  12.375  0.5333 -0.4637 -0.8209
15025TIP3    H166566   3.978   5.742  12.341 -1.1898  0.7100  1.0160
15025TIP3    H266567   4.017   5.647  12.452 -0.6855 -0.1106  0.1545
15026TIP3   OH266568   2.584   1.575  16.545 -0.1580 -0.2218 -0.3584
15026TIP3    H166569   2.526   1.542  16.614 -2.1344  1.2788 -1.1842
15026TIP3    H266570   2.662   1.520  16.550 -0.2927 -0.2712  2.9341
15027TIP3   OH266571   6.631   3.710  17.082 -0.2934 -0.4246 -0.0780
15027TIP3    H166572   6.615   3.744  17.170  1.2348  1.5135 -0.4757
15027TIP3    H266573   6.608   3.783  17.023 -0.7206 -1.4769 -1.2688
15028TIP3   OH266574   6.733   0.693   2.630 -0.6266  0.0846 -0.2248
15028TIP3    H166575   6.756   0.786   2.631  2.0415 -0.4965  1.3662
15028TIP3    H266576   6.779   0.658   2.554  0.7345 -0.4137  0.8021
15029TIP3   OH266577   5.854   4.291  16.616  0.1084  0.1965  0.0666
15029TIP3    H166578   5.903   4.369  16.592 -1.1254  1.0096  0.0656
15029TIP3    H266579   5.816   4.312  16.702  1.3155 -1.1685  0.9804
15030TIP3   OH266580   4.861   5.866  15.230  0.1919  0.6780  0.1192
15030TIP3    H166581   4.934   5.905  15.279 -0.1498  1.7067 -0.1757
15030TIP3    H266582   4.836   5.790  15.282  1.8848 -0.0823 -0.0998
15031TIP3   OH266583   2.037   4.638  14.758 -0.0643 -0.5834  0.2754
15031TIP3    H166584   1.960   4.663  14.808 -0.8312 -1.0295 -0.6570
15031TIP3    H266585   2.057   4.549  14.785  1.0000  0.0117  1.5565
15032TIP3   OH266586   5.301   1.423   2.091  0.4088  0.2188  0.0511
15032TIP3    H166587   5.342   1.344   2.056 -0.6577 -0.8539  1.1314
15032TIP3    H266588   5.294   1.482   2.015  2.7609 -0.0138 -0.4265
15033TIP3   OH266589   5.412   1.679   3.578 -0.0223 -0.1021 -0.7423
15033TIP3    H166590   5.478   1.623   3.619  1.3723  1.2796 -1.0176
15033TIP3    H266591   5.391   1.745   3.645 -0.5344 -0.0604 -0.9365
15034TIP3   OH266592   5.833   0.139  16.159 -0.2870 -0.3597 -0.2406
15034TIP3    H166593   5.926   0.128  16.141 -0.1967  1.1282 -0.8515
15034TIP3    H266594   5.803   0.052  16.186  1.3894 -0.7340  0.5613
15035TIP3   OH266595   3.128   1.626  17.014  0.0446 -0.0933 -0.0519
15035TIP3    H166596   3.172   1.654  17.094 -1.9267  0.2955  0.9732
15035TIP3    H266597   3.136   1.702  16.955 -1.3145  0.9544  1.0347
15036TIP3   OH266598   4.344   0.133   5.358 -0.3347 -0.6752  0.2505
15036TIP3    H166599   4.278   0.163   5.420 -0.3092 -0.9073  0.3915
15036TIP3    H266600   4.379   0.053   5.397  0.4774 -0.2185  0.4840
15037TIP3   OH266601   6.530   6.026   5.568 -0.0121  0.2179 -0.5844
15037TIP3    H166602   6.534   6.121   5.557 -2.1918  0.2982 -1.1395
15037TIP3    H266603   6.550   6.011   5.661  2.8004  0.9398 -0.9777
15038TIP3   OH266604   5.495   4.827  12.196  0.0726  0.2994 -0.2002
15038TIP3    H166605   5.512   4.917  12.222 -3.0304  0.5435  1.4527
15038TIP3    H266606   5.438   4.835  12.119  0.8827 -0.2959 -0.8756
15039TIP3   OH266607   5.927   0.113   0.665  0.1897 -0.2223  0.5883
15039TIP3    H166608   5.845   0.158   0.644 -0.8034 -2.2608 -0.1108
15039TIP3    H266609   5.919   0.093   0.759  0.4820  0.6882  0.8204
15040TIP3   OH266610   3.878   0.465  11.140 -0.2107  0.0585  0.3746
15040TIP3    H166611   3.922   0.512  11.069 -0.2750  0.6963  0.7586
15040TIP3    H266612   3.946   0.452  11.206  0.2057 -1.7094 -0.3390
15041TIP3   OH266613   6.740   6.829   1.387  0.1578 -0.1708 -0.0799
15041TIP3    H166614   6.649   6.841   1.359  0.6345 -0.1265 -1.7255
15041TIP3    H266615   6.734   6.803   1.479 -1.4109  1.8227  0.4416
15042TIP3   OH266616   4.094   2.635   1.412  0.2503  0.3462 -0.3649
15042TIP3    H166617   4.139   2.713   1.443 -3.1191  1.1029  3.2537
15042TIP3    H266618   4.142   2.562   1.453  0.8048  0.7913 -0.2134
15043TIP3   OH266619   0.359   5.743   2.087 -0.0004 -0.3687  0.0290
15043TIP3    H166620   0.439   5.715   2.044 -0.6947  0.0058 -1.5768
15043TIP3    H266621   0.369   5.838   2.097  0.4656 -0.5405  1.4140
15044TIP3   OH266622   6.151   5.292  14.835 -0.2152  0.5284 -0.3226
15044TIP3    H166623   6.227   5.288  14.777  0.8441  0.0901  1.0410
15044TIP3    H266624   6.103   5.212  14.816 -0.9466  1.3133 -1.9506
15045TIP3   OH266625   2.273   1.119   4.759  0.6116 -0.0531 -0.1048
15045TIP3    H166626   2.320   1.121   4.842  0.9060 -0.3479 -0.2615
15045TIP3    H266627   2.337   1.084   4.696  0.2221 -0.3481 -0.3442
15046TIP3   OH266628   1.444   2.222  16.263 -0.0693 -0.0575 -0.1016
15046TIP3    H166629   1.381   2.293  16.251  0.6597  0.5496 -0.4365
15046TIP3    H266630   1.515   2.243  16.202  2.0724  1.1430  2.5866
15047TIP3   OH266631   6.694   0.662  11.772  0.3169 -0.1447 -0.3317
15047TIP3    H166632   6.692   0.744  11.722  0.1236  0.2833  0.3640
15047TIP3    H266633   6.724   0.596  11.709 -0.5451  0.2583 -1.1986
15048TIP3   OH266634   2.602   0.767  15.704 -0.2232 -0.0892  0.5241
15048TIP3    H166635   2.697   0.760  15.711 -0.2524  0.9290  2.4663
15048TIP3    H266636   2.585   0.772  15.610  1.6647  0.2072  0.1681
15049TIP3   OH266637   1.604   2.770   4.595 -0.2784 -0.0101  0.1484
15049TIP3    H166638   1.594   2.764   4.690 -3.8639 -1.8458 -0.1813
15049TIP3    H266639   1.664   2.698   4.573 -2.5546 -2.2323  0.7935
15050TIP3   OH266640   3.111   1.450   2.965  0.0338 -0.2864  0.1740
15050TIP3    H166641   3.103   1.398   2.885  0.3813  1.2132 -0.8883
15050TIP3    H266642   3.205   1.465   2.975 -0.1322  2.1594 -1.0007
15051TIP3   OH266643   0.678   0.956   5.724 -0.0827  0.2869  0.2568
15051TIP3    H166644   0.770   0.929   5.727 -0.0083  0.3104 -1.3076
15051TIP3    H266645   0.645   0.936   5.812  1.4586  0.4657  0.9134
15052TIP3   OH266646   2.471   2.863   2.629  1.0131  0.0687 -0.1731
15052TIP3    H166647   2.440   2.883   2.540  0.8574 -2.1150 -0.6695
15052TIP3    H266648   2.417   2.917   2.686 -0.4630 -0.1346 -1.3058
15053TIP3   OH266649   5.987   3.078   2.806  0.2745 -0.3714  0.0264
15053TIP3    H166650   6.011   3.014   2.872 -1.8671 -1.6734 -0.3586
15053TIP3    H266651   6.062   3.137   2.801  0.8602 -0.7346  2.9599
15054TIP3   OH266652   0.912   4.595  14.041 -0.3471  0.0252 -0.2787
15054TIP3    H166653   0.991   4.649  14.035 -0.4932  0.2312 -0.3468
15054TIP3    H266654   0.908   4.570  14.133  0.9674 -1.7517 -0.6389
15055TIP3   OH266655   0.601   5.955  13.600 -0.5329  0.2794 -0.0489
15055TIP3    H166656   0.617   5.945  13.694 -0.5372 -0.0462 -0.0824
15055TIP3    H266657   0.597   5.865  13.567  0.0270  0.3997 -0.4511
15056TIP3   OH266658   5.625   4.043   2.831 -0.0045  0.0836 -0.4309
15056TIP3    H166659   5.578   4.093   2.764 -0.4120  0.2214 -0.0458
15056TIP3    H266660   5.716   4.071   2.822 -0.2729  1.1352 -0.0221
15057TIP3   OH266661   3.780   5.190  11.242  0.7777 -0.1835 -0.0525
15057TIP3    H166662   3.713   5.215  11.306  2.6749 -2.1151  2.9470
15057TIP3    H266663   3.751   5.105  11.209  1.2631 -0.6417  0.6488
15058TIP3   OH266664   2.318   3.638  13.763 -0.0514  0.1946 -0.2270
15058TIP3    H166665   2.390   3.699  13.779  0.0765  0.4156 -1.5640
15058TIP3    H266666   2.302   3.597  13.848  4.0320 -2.4891 -0.5063
15059TIP3   OH266667   3.566   4.299  13.569  0.1294  0.0240 -0.1555
15059TIP3    H166668   3.500   4.243  13.610  0.8229 -0.1335  0.7954
15059TIP3    H266669   3.562   4.381  13.618  0.3224  0.1814 -0.4007
15060TIP3   OH266670   2.012   2.176  16.765  0.0048 -0.4773 -0.0041
15060TIP3    H166671   1.997   2.179  16.859  2.2165  1.7224  0.3956
15060TIP3    H266672   2.107   2.185  16.755 -0.0006 -2.0191 -2.4436
15061TIP3   OH266673   3.571   6.427   1.121  0.5799 -0.3552 -0.2990
15061TIP3    H166674   3.484   6.386   1.126 -0.0525  0.8359 -0.9371
15061TIP3    H266675   3.559   6.513   1.163  1.1241  0.3054 -1.4411
15062TIP3   OH266676   1.118   4.390  11.670  0.2949 -0.0695 -0.3854
15062TIP3    H166677   1.040   4.445  11.670 -0.1359 -0.4566  2.6351
15062TIP3    H266678   1.123   4.354  11.582 -1.7691  1.5534 -1.2403
15063TIP3   OH266679   4.787   3.947   3.851  0.6565 -0.1832 -0.2084
15063TIP3    H166680   4.877   3.960   3.822  0.8699 -2.7724 -1.0033
15063TIP3    H266681   4.733   3.984   3.781  1.1203  0.2039 -0.3619
15064TIP3   OH266682   3.741   3.449  11.763 -0.1291 -0.0006  0.1104
15064TIP3    H166683   3.818   3.463  11.708  0.6417 -1.4115  0.7925
15064TIP3    H266684   3.769   3.474  11.851 -0.9450  0.9631  0.1123
15065TIP3   OH266685   4.519   1.813  13.174 -0.4628 -0.1798 -0.2203
15065TIP3    H166686   4.466   1.734  13.185 -0.2275 -0.2714  0.2561
15065TIP3    H266687   4.507   1.862  13.255  0.1617 -0.1932 -0.1172
15066TIP3   OH266688   2.664   0.644  12.853  0.0183 -0.0591  0.5922
15066TIP3    H166689   2.623   0.726  12.825  0.8328 -0.4103 -1.9122
15066TIP3    H266690   2.591   0.584  12.868 -0.5477  0.8628  1.6287
15067TIP3   OH266691   6.693   6.626  15.980 -0.1701 -0.1903  0.2182
15067TIP3    H166692   6.767   6.576  16.014  0.8044  0.1230 -1.3301
15067TIP3    H266693   6.650   6.566  15.919 -0.2098  0.1581 -0.1033
15068TIP3   OH266694   3.816   5.991  16.008  0.0713 -0.1684  0.0477
15068TIP3    H166695   3.845   6.070  16.053 -0.1594 -0.9293  1.5966
15068TIP3    H266696   3.877   5.982  15.934 -0.7213  2.1639 -0.9987
15069TIP3   OH266697   3.938   5.820   2.176  0.2386 -0.1713  0.1814
15069TIP3    H166698   4.024   5.778   2.179 -0.0449 -0.7625  0.3053
15069TIP3    H266699   3.876   5.749   2.197 -0.2661  0.2727  0.2201
15070TIP3   OH266700   5.598   5.334  13.352 -0.4655 -0.7635 -0.1076
15070TIP3    H166701   5.644   5.357  13.271  0.7904 -1.8879  0.2586
15070TIP3    H266702   5.541   5.409  13.369  1.9240  1.1369 -0.0538
15071TIP3   OH266703   2.402   0.214   0.099  0.5166  0.3162 -0.3888
15071TIP3    H166704   2.337   0.276   0.066 -1.3497 -1.2085  0.2374
15071TIP3    H266705   2.365   0.181   0.181  1.3907 -1.6721 -0.7228
15072TIP3   OH266706   4.060   0.429  11.349 -0.0515 -0.1483  0.4631
15072TIP3    H166707   4.005   0.507  11.347 -0.5127 -0.4654 -1.0865
15072TIP3    H266708   4.134   0.452  11.404 -1.3024  0.5806  1.9262
15073TIP3   OH266709   2.717   5.740   0.032  0.5608 -0.3670 -0.1799
15073TIP3    H166710   2.776   5.706   0.098  0.4481 -1.0718 -0.4362
15073TIP3    H266711   2.736   5.834   0.029 -1.6523  0.3682  3.1887
15074TIP3   OH266712   3.227   6.090  13.802  0.1161 -0.0294  0.3150
15074TIP3    H166713   3.246   6.041  13.722 -0.2797 -0.6023  0.5715
15074TIP3    H266714   3.310   6.090  13.850  0.0245 -0.7798  0.4878
15075TIP3   OH266715   3.717   6.268  14.129 -0.2219  0.4326  0.0714
15075TIP3    H166716   3.733   6.304  14.042 -1.1071 -1.0149 -0.7410
15075TIP3    H266717   3.803   6.269  14.171  0.6334 -0.5759 -1.5352
15076TIP3   OH266718   6.357   1.616  12.607 -0.4992  0.1223 -0.0293
15076TIP3    H166719   6.429   1.617  12.670  0.6953 -0.6437 -1.3127
15076TIP3    H266720   6.345   1.707  12.582  0.1163  0.2412  0.1109
15077TIP3   OH266721   4.717   3.562   4.236 -0.3402 -0.3806 -0.4731
15077TIP3    H166722   4.684   3.618   4.166 -1.3639  0.6596  0.7947
15077TIP3    H266723   4.723   3.619   4.312 -1.4297 -1.9699  0.8888
15078TIP3   OH266724   4.080   0.226   6.639  0.5609  0.3718  0.2187
15078TIP3    H166725   4.015   0.156   6.644  1.6961 -0.6638  0.9486
15078TIP3    H266726   4.047   0.284   6.570 -1.6038  0.3879  1.1743
15079TIP3   OH266727   5.620   5.505   0.210 -0.1048 -0.1671  0.4463
15079TIP3    H166728   5.630   5.535   0.300  0.8864  1.2847 -0.1002
15079TIP3    H266729   5.622   5.410   0.215  2.0705 -0.1072  1.7521
15080TIP3   OH266730   0.056   4.655  13.353 -0.0029 -0.0062  0.0879
15080TIP3    H166731  -0.013   4.663  13.286 -0.0290 -1.6320 -0.1293
15080TIP3    H266732   0.044   4.567  13.388  1.9468 -0.3103  0.0804
15081TIP3   OH266733   3.748   1.211  10.769  0.0060  0.1091 -0.4409
15081TIP3    H166734   3.782   1.274  10.706  2.4487 -0.0546  0.5837
15081TIP3    H266735   3.695   1.264  10.829 -0.1690  0.7127 -1.1145
15082TIP3   OH266736   3.646   1.786  16.379  0.0479  0.7593 -0.0642
15082TIP3    H166737   3.555   1.787  16.349 -0.0580 -1.3429  0.0813
15082TIP3    H266738   3.656   1.868  16.427 -2.2531  0.3216  1.3056
15083TIP3   OH266739   2.447   2.642  15.994 -0.1475  0.3047  0.0017
15083TIP3    H166740   2.428   2.606  15.907  0.9086  1.4227 -0.7270
15083TIP3    H266741   2.363   2.645  16.038 -0.7140 -0.2189 -1.0076
15084TIP3   OH266742   1.868   0.138   5.169  0.3576 -0.2104 -0.1495
15084TIP3    H166743   1.809   0.204   5.205 -1.0659 -0.8069 -1.3045
15084TIP3    H266744   1.902   0.177   5.088  0.9779 -0.1782  0.1156
15085TIP3   OH266745   5.480   5.908  11.869 -0.0450  0.0340  0.0691
15085TIP3    H166746   5.546   5.965  11.832  0.3371 -0.8031 -0.5654
15085TIP3    H266747   5.418   5.893  11.798 -0.6519  0.3980  0.5071
15086TIP3   OH266748   0.313   3.877  12.766 -0.4325 -0.0412  0.2744
15086TIP3    H166749   0.372   3.935  12.718 -0.7773 -0.1151 -0.2429
15086TIP3    H266750   0.271   3.824  12.699 -0.6600 -0.3883  0.6876
15087TIP3   OH266751   0.932   0.500   2.062  0.1983 -0.1357 -0.3928
15087TIP3    H166752   0.957   0.500   2.155  1.3587  0.5531 -0.6875
15087TIP3    H266753   0.851   0.550   2.059  1.6542  2.4505 -0.0852
15088TIP3   OH266754   2.663   3.741   3.657  0.3460  0.3342 -0.0678
15088TIP3    H166755   2.690   3.821   3.611  0.8050  0.2623  0.0722
15088TIP3    H266756   2.673   3.762   3.750  0.3329  0.1575 -0.0261
15089TIP3   OH266757   4.057   4.223  17.103 -0.2977  0.3546  0.4074
15089TIP3    H166758   4.105   4.229  17.021  1.9333 -1.6408  1.4220
15089TIP3    H266759   3.997   4.149  17.090 -1.1626  1.1016  0.0548
15090TIP3   OH266760   4.351   1.469   2.533 -0.2193 -0.5420 -0.2600
15090TIP3    H166761   4.358   1.564   2.521  1.5812 -0.3360  1.6874
15090TIP3    H266762   4.307   1.438   2.455 -0.6435  1.8766 -1.0691
15091TIP3   OH266763   0.958   2.485  15.263 -0.5620 -0.3611 -0.0971
15091TIP3    H166764   0.937   2.499  15.170  0.6320 -1.2425 -0.5299
15091TIP3    H266765   0.873   2.481  15.306 -1.2064 -1.2114 -1.3582
15092TIP3   OH266766   3.793   4.472  15.855 -0.4517 -0.0502  0.1378
15092TIP3    H166767   3.744   4.447  15.777 -0.3621 -1.1885  0.4233
15092TIP3    H266768   3.879   4.432  15.843  0.6319  2.3510 -0.6018
15093TIP3   OH266769   1.431   5.052   4.926  0.3877  0.0375  0.5976
15093TIP3    H166770   1.514   5.093   4.901 -0.1861 -0.0063 -1.6502
15093TIP3    H266771   1.376   5.125   4.954 -0.0765  0.6628 -1.7577
15094TIP3   OH266772   5.709   5.325  12.248 -0.8722  0.7690 -0.0828
15094TIP3    H166773   5.787   5.304  12.197 -0.7967 -1.7020  0.8857
15094TIP3    H266774   5.729   5.293  12.336 -3.1795 -0.5459  0.0562
15095TIP3   OH266775   2.133   3.482   2.045 -0.4789  0.6862  0.1328
15095TIP3    H166776   2.182   3.540   2.104 -1.8155  1.1970  0.7754
15095TIP3    H266777   2.130   3.530   1.962  0.0687  0.6580  0.0870
15096TIP3   OH266778   1.016   2.016   3.563  0.1357 -0.1456  0.0446
15096TIP3    H166779   1.094   2.063   3.593 -0.0948 -0.3457  1.0027
15096TIP3    H266780   0.964   2.003   3.643 -0.4163 -0.8822 -0.4212
15097TIP3   OH266781   4.701   5.436   4.119 -0.6629  0.3099  0.2619
15097TIP3    H166782   4.605   5.437   4.120 -0.6917  0.2003 -1.0806
15097TIP3    H266783   4.726   5.454   4.210 -1.9479  1.1293  0.4794
15098TIP3   OH266784   1.105   6.368   3.800 -0.2362 -0.0386 -0.3985
15098TIP3    H166785   1.063   6.309   3.862  0.0974  1.2859  1.1556
15098TIP3    H266786   1.160   6.311   3.746 -1.9497 -1.4611 -0.7475
15099TIP3   OH266787   5.615   3.678   1.067 -0.0949  0.1733 -0.0835
15099TIP3    H166788   5.619   3.772   1.048  2.7224  0.0467 -0.4982
15099TIP3    H266789   5.620   3.673   1.163  1.1648  0.4464 -0.1176
15100TIP3   OH266790   3.991   1.315   2.543  0.3677  0.5182 -0.4005
15100TIP3    H166791   3.906   1.347   2.573 -0.3840 -0.6043 -1.2386
15100TIP3    H266792   4.048   1.322   2.620 -0.3784  1.6067  0.0760
15101TIP3   OH266793   5.438   6.582  15.775 -0.1889  0.0560  0.1390
15101TIP3    H166794   5.492   6.514  15.737 -0.7818 -1.0411  1.1811
15101TIP3    H266795   5.485   6.610  15.854 -0.9158 -0.6130  0.8244
15102TIP3   OH266796   1.029   6.353   4.300  0.2216 -0.3289 -0.8547
15102TIP3    H166797   0.937   6.327   4.290  0.2238 -0.2125 -1.1996
15102TIP3    H266798   1.039   6.372   4.393 -0.1160 -0.2971 -0.8230
15103TIP3   OH266799   4.118   5.083   4.467 -0.1876 -0.3179 -0.1059
15103TIP3    H166800   4.144   5.174   4.459  1.3850 -0.8423 -1.3100
15103TIP3    H266801   4.052   5.083   4.537 -0.4324  1.7530 -0.2898
15104TIP3   OH266802   3.546   4.508   1.804 -0.5247  0.6312 -0.1286
15104TIP3    H166803   3.505   4.518   1.719  1.5493  3.0366 -0.9613
15104TIP3    H266804   3.499   4.568   1.862 -1.1510 -0.1168  0.1675
15105TIP3   OH266805   2.408   6.706  11.472  0.1635 -0.1194  0.3608
15105TIP3    H166806   2.417   6.645  11.400 -0.3183 -0.8716  0.9293
15105TIP3    H266807   2.329   6.678  11.519  1.5100 -0.8900  2.3251
15106TIP3   OH266808   2.559   3.756   3.204  0.0572  0.5777  0.2563
15106TIP3    H166809   2.575   3.762   3.110 -1.8562  0.9190 -0.0970
15106TIP3    H266810   2.523   3.668   3.216 -0.5742  0.8593  0.4948
15107TIP3   OH266811   2.754   1.974   3.310 -0.2786 -0.0084  0.2759
15107TIP3    H166812   2.826   1.913   3.292  0.9544  0.9390  1.7458
15107TIP3    H266813   2.743   2.023   3.229  2.0074  1.0769  0.5629
15108TIP3   OH266814   6.539   6.438   5.067 -0.2349 -0.1071  0.2029
15108TIP3    H166815   6.478   6.508   5.088 -1.7463 -1.1725 -0.4346
15108TIP3    H266816   6.519   6.368   5.130  1.5292  0.1479  1.1003
15109TIP3   OH266817   0.224   2.561   0.162  0.3402  0.0501 -0.2973
15109TIP3    H166818   0.250   2.635   0.216  0.6800 -1.2670  1.4241
15109TIP3    H266819   0.236   2.484   0.218 -1.5914 -1.1851 -1.4499
15110TIP3   OH266820   4.664   3.200   5.783 -0.2777  0.4678  0.2995
15110TIP3    H166821   4.655   3.251   5.702  1.3331 -0.1347 -0.3080
15110TIP3    H266822   4.640   3.111   5.758  1.2586  0.0648  0.1791
15111TIP3   OH266823   6.005   5.323  13.903 -0.0924  0.4529 -0.1065
15111TIP3    H166824   5.913   5.326  13.930 -0.4443  0.0916 -1.2133
15111TIP3    H266825   6.020   5.232  13.878  0.8582  0.2890  1.0003
15112TIP3   OH266826   2.238   1.608  11.285  0.2952  0.2511  0.0747
15112TIP3    H166827   2.213   1.687  11.237 -1.7266 -0.0551  0.5306
15112TIP3    H266828   2.218   1.628  11.376  1.5791 -0.1265  0.4533
15113TIP3   OH266829   2.736   6.413  15.364  0.4113 -0.2616  0.4609
15113TIP3    H166830   2.702   6.500  15.346 -0.6201 -0.8339 -0.5196
15113TIP3    H266831   2.807   6.402  15.301 -0.1040 -0.4779 -0.0996
15114TIP3   OH266832   2.771   6.616  11.878  0.1480  0.2290 -0.4032
15114TIP3    H166833   2.806   6.651  11.960  3.1744  1.0797 -1.9147
15114TIP3    H266834   2.677   6.631  11.884  0.2206  0.2653  2.8627
15115TIP3   OH266835   0.401   4.468  16.119 -0.6680 -0.4469 -0.0478
15115TIP3    H166836   0.484   4.455  16.073 -0.0713 -0.1100  0.9153
15115TIP3    H266837   0.337   4.419  16.067  0.5661 -2.8634  0.6090
15116TIP3   OH266838   4.790   4.286  12.082 -0.4671 -0.2290 -0.8080
15116TIP3    H166839   4.820   4.354  12.142  0.4860 -1.1066 -0.2624
15116TIP3    H266840   4.866   4.268  12.026 -1.0920  0.0078 -1.7530
15117TIP3   OH266841   3.426   3.269  14.362 -0.4337 -0.2420 -0.1159
15117TIP3    H166842   3.448   3.359  14.389 -1.0569  0.7384 -2.5691
15117TIP3    H266843   3.381   3.280  14.279  0.8348 -2.9373 -1.2733
15118TIP3   OH266844   4.435   6.404   2.861  0.3949  0.4029 -0.3092
15118TIP3    H166845   4.415   6.459   2.785  0.2595  2.2698  0.9873
15118TIP3    H266846   4.350   6.366   2.885  0.2251  0.6799 -0.4562
15119TIP3   OH266847   0.162   4.513   2.346  0.4144  0.9189  0.0406
15119TIP3    H166848   0.114   4.582   2.393 -2.3596  1.1320 -2.7578
15119TIP3    H266849   0.121   4.431   2.377  1.2550  0.7518  0.7507
15120TIP3   OH266850   0.299   1.280  16.445 -0.2189  0.2536 -0.0212
15120TIP3    H166851   0.374   1.334  16.472  0.3218 -0.1215 -0.7501
15120TIP3    H266852   0.296   1.289  16.350 -1.7948  1.1523  0.0871
15121TIP3   OH266853   3.602   3.218  12.429  0.1693 -0.3956 -0.3124
15121TIP3    H166854   3.516   3.195  12.392  0.3386 -0.2637 -0.7941
15121TIP3    H266855   3.656   3.141  12.410  0.5814  0.1482 -1.4163
15122TIP3   OH266856   2.456   3.746  12.998 -0.2649  0.7115 -0.4075
15122TIP3    H166857   2.371   3.756  12.956  0.3974  1.3595 -1.6401
15122TIP3    H266858   2.504   3.686  12.941  0.2391  0.6277  0.0945
15123TIP3   OH266859   4.036   4.548  14.974  0.3150 -0.2551 -0.0168
15123TIP3    H166860   3.941   4.545  14.965  0.3322  0.2555 -0.4412
15123TIP3    H266861   4.054   4.498  15.053 -0.2681 -0.7412 -0.1849
15124TIP3   OH266862   4.476   0.185   1.344 -0.1634  0.6266  0.2180
15124TIP3    H166863   4.460   0.176   1.250 -3.7954 -0.0017  0.7759
15124TIP3    H266864   4.434   0.267   1.368  1.2612  1.0977  1.2718
15125TIP3   OH266865   0.352   0.777   1.811 -0.2791 -0.6166  1.0492
15125TIP3    H166866   0.330   0.868   1.830  0.0732 -0.9921  3.6118
15125TIP3    H266867   0.402   0.781   1.730  1.4589  1.7542  2.1170
15126TIP3   OH266868   4.221   6.590  14.976 -0.4777 -0.2718 -0.4534
15126TIP3    H166869   4.151   6.626  15.030  0.9226 -1.3618  2.2513
15126TIP3    H266870   4.259   6.666  14.932 -0.5093  0.9462  1.5299
15127TIP3   OH266871   3.144   4.936   2.358 -0.0184 -0.3365 -0.0478
15127TIP3    H166872   3.056   4.908   2.384 -0.1821 -1.7543 -1.9185
15127TIP3    H266873   3.135   5.029   2.340 -1.0163 -0.3722  0.2242
15128TIP3   OH266874   0.375   2.421  16.516 -0.1796 -0.6991 -0.2448
15128TIP3    H166875   0.359   2.513  16.497 -0.0505 -0.7587 -0.6680
15128TIP3    H266876   0.318   2.400  16.590  1.9884  0.4996  1.8902
15129TIP3   OH266877   4.889   2.438   4.816  0.6184  0.1036  0.0028
15129TIP3    H166878   4.961   2.383   4.784 -0.1620 -1.2999  0.6090
15129TIP3    H266879   4.858   2.395   4.895 -2.5581 -0.8089 -1.5591
15130TIP3   OH266880   5.211   4.102   4.856 -0.0478 -0.2030  0.1310
15130TIP3    H166881   5.158   4.066   4.784 -0.1597 -2.5101  1.2506
15130TIP3    H266882   5.290   4.048   4.856  0.4291  0.4660  1.0782
15131TIP3   OH266883   2.694   0.528   2.101  0.5100 -0.6940 -0.1676
15131TIP3    H166884   2.726   0.600   2.156  1.6183 -1.7889  0.6762
15131TIP3    H266885   2.725   0.449   2.145  1.3498 -1.6252 -2.3007
15132TIP3   OH266886   3.634   0.568  14.748 -0.1721 -0.6079 -0.0313
15132TIP3    H166887   3.568   0.539  14.812  0.2086 -0.5536  0.3940
15132TIP3    H266888   3.698   0.615  14.800  0.8192 -1.6751 -0.2488
15133TIP3   OH266889   0.401   3.441   2.834 -0.3105 -0.5752 -0.3314
15133TIP3    H166890   0.347   3.403   2.903  0.1786 -0.1428  0.3154
15133TIP3    H266891   0.487   3.401   2.846 -0.3153 -0.7610 -0.9183
15134TIP3   OH266892   6.824   1.936  12.927  0.0113 -0.1433 -0.2519
15134TIP3    H166893   6.861   2.020  12.899  0.9709 -1.1338 -2.1545
15134TIP3    H266894   6.750   1.960  12.983  0.6497  1.9504 -0.2163
15135TIP3   OH266895   4.762   3.098  13.442  0.6577 -0.3996  0.9550
15135TIP3    H166896   4.674   3.108  13.405 -0.2210  0.3282  3.0630
15135TIP3    H266897   4.821   3.130  13.374 -0.7070 -0.6974 -0.4346
15136TIP3   OH266898   2.848   5.640   1.244  0.0738  0.6864 -0.2063
15136TIP3    H166899   2.805   5.723   1.224  0.6413  0.6372 -1.7461
15136TIP3    H266900   2.896   5.618   1.164  0.9756 -0.4779  0.6261
15137TIP3   OH266901   3.690   6.673  13.377  0.0833  0.2342 -0.7234
15137TIP3    H166902   3.603   6.643  13.401  0.2049  0.3101 -0.1776
15137TIP3    H266903   3.683   6.769  13.373  0.5150  0.3524  0.8711
15138TIP3   OH266904   2.221   3.745  16.668 -0.1430 -0.0695  0.3319
15138TIP3    H166905   2.181   3.731  16.582 -0.3153 -1.8172  0.6643
15138TIP3    H266906   2.226   3.657  16.707 -3.0230  0.9388  3.4370
15139TIP3   OH266907   0.831   5.463  14.662  0.3263 -0.1924  0.9162
15139TIP3    H166908   0.802   5.460  14.754 -0.8945  1.8190  0.6551
15139TIP3    H266909   0.891   5.389  14.654  0.4682 -0.4305  3.3296
15140TIP3   OH266910   6.511   5.641   4.866 -0.4869 -0.2250 -0.7250
15140TIP3    H166911   6.606   5.642   4.850 -0.4497  0.9582 -0.4685
15140TIP3    H266912   6.503   5.649   4.961 -0.8501 -1.0481 -0.6728
15141TIP3   OH266913   3.786   0.910  13.363  0.1267  1.0304 -0.0524
15141TIP3    H166914   3.768   0.956  13.446 -0.5929  1.4954 -0.4548
15141TIP3    H266915   3.838   0.972  13.313  0.3807  0.8330 -0.0311
15142TIP3   OH266916   4.270   4.810   4.387  0.4411  0.2736  0.4520
15142TIP3    H166917   4.348   4.813   4.442 -0.3731 -1.3548  1.7506
15142TIP3    H266918   4.218   4.885   4.415  0.2374 -0.2887  1.6329
15143TIP3   OH266919   2.407   4.122   2.579  0.1653  0.4376 -0.1858
15143TIP3    H166920   2.409   4.119   2.484  1.2809 -0.6625 -0.1612
15143TIP3    H266921   2.453   4.043   2.606 -0.8359  0.3118  1.2760
15144TIP3   OH266922   0.671   1.948  12.472 -0.1759  0.2493  0.0642
15144TIP3    H166923   0.702   1.888  12.539 -0.3818 -1.3190 -1.1923
15144TIP3    H266924   0.580   1.966  12.496 -0.3063 -0.4514  0.0937
15145TIP3   OH266925   3.010   6.563   1.770  0.1343 -0.5379 -0.0299
15145TIP3    H166926   2.983   6.631   1.831 -1.9231 -1.3994  0.0956
15145TIP3    H266927   3.016   6.607   1.686 -3.2352 -0.4845 -0.3733
15146TIP3   OH266928   3.780   0.667  14.930 -0.2045  0.5646  0.4019
15146TIP3    H166929   3.785   0.725  15.006 -0.5556  1.2326 -0.0743
15146TIP3    H266930   3.867   0.626  14.925  0.5607  2.1519 -0.1027
15147TIP3   OH266931   0.392   3.326   2.301 -0.0735 -0.0256  0.2241
15147TIP3    H166932   0.452   3.349   2.373  0.3098 -0.4323  0.0437
15147TIP3    H266933   0.407   3.394   2.235 -2.1204  1.7265  1.4427
15148TIP3   OH266934   0.471   4.747   2.704 -1.0601 -0.2305 -0.3848
15148TIP3    H166935   0.382   4.711   2.706 -0.8189 -0.9228 -1.4329
15148TIP3    H266936   0.523   4.685   2.755 -0.6527 -1.3997 -2.1551
15149TIP3   OH266937   3.499   1.235   4.378 -0.4277  0.2095 -0.6902
15149TIP3    H166938   3.543   1.310   4.416  0.9643 -0.0512 -1.7218
15149TIP3    H266939   3.532   1.229   4.289  0.0909 -2.0585 -0.4146
15150TIP3   OH266940   5.313   5.892   4.291  0.1124 -0.9869 -0.1326
15150TIP3    H166941   5.236   5.928   4.334 -0.5579 -1.5817 -0.8150
15150TIP3    H266942   5.386   5.916   4.349 -0.8293 -2.4258  1.7777
15151TIP3   OH266943   1.270   5.961  12.829 -0.4732 -0.1380 -0.0970
15151TIP3    H166944   1.200   5.910  12.871  0.0456 -0.4756  0.3611
15151TIP3    H266945   1.268   6.046  12.874 -0.7067 -0.0833 -0.2095
15152TIP3   OH266946   1.879   1.346  11.780 -0.5347 -0.3252 -0.5110
15152TIP3    H166947   1.806   1.394  11.821  0.1234 -1.4527  2.1961
15152TIP3    H266948   1.906   1.402  11.707 -0.8121  2.6984  1.5068
15153TIP3   OH266949   1.086   4.927   0.993 -0.1668  0.3944 -0.1334
15153TIP3    H166950   1.038   4.976   1.059 -1.2393 -1.8982  0.8689
15153TIP3    H266951   1.178   4.937   1.018 -0.3626  1.6555  0.1600
15154TIP3   OH266952   5.684   4.469   3.738 -0.6157 -0.4386 -0.7024
15154TIP3    H166953   5.744   4.523   3.789  0.3289 -1.6864 -0.4448
15154TIP3    H266954   5.653   4.526   3.667  0.0804  0.5196 -0.2483
15155TIP3   OH266955   6.009   3.943   1.535  0.0660  0.0735 -0.5871
15155TIP3    H166956   6.050   3.907   1.457 -0.9859 -0.8029 -0.7544
15155TIP3    H266957   5.926   3.896   1.543 -0.7654  1.5647 -0.0825
15156TIP3   OH266958   5.504   4.487   1.428  0.1022 -0.2709 -0.3542
15156TIP3    H166959   5.573   4.533   1.381  0.4031 -1.4227 -1.0648
15156TIP3    H266960   5.546   4.457   1.509 -0.2441  1.1521  0.3792
15157TIP3   OH266961   4.713   5.998  15.649  0.3397  0.2444 -0.1418
15157TIP3    H166962   4.768   6.043  15.713  0.1169 -0.3636  0.4865
15157TIP3    H266963   4.727   5.905  15.667 -0.0430  0.0773 -0.7061
15158TIP3   OH266964   6.235   6.297  16.560  0.3950  0.0163  0.6282
15158TIP3    H166965   6.242   6.363  16.629 -2.0842  0.6089  0.4114
15158TIP3    H266966   6.141   6.284  16.549  0.6816 -0.0432 -2.6690
15159TIP3   OH266967   3.343   1.641  14.152  0.5179  0.2616 -0.3111
15159TIP3    H166968   3.272   1.624  14.091 -0.4865  0.4362  0.7782
15159TIP3    H266969   3.349   1.737  14.156 -1.6310  0.3928  2.2605
15160TIP3   OH266970   2.196   5.622  14.412  0.1430 -0.1925  0.3655
15160TIP3    H166971   2.261   5.600  14.345 -1.9916  2.8308 -3.0165
15160TIP3    H266972   2.128   5.556  14.402 -0.6661  0.8372 -1.3476
15161TIP3   OH266973   3.701   6.223   5.210 -0.0492 -0.1813  0.0060
15161TIP3    H166974   3.621   6.171   5.203 -0.8154  0.5096  2.6464
15161TIP3    H266975   3.770   6.165   5.176 -1.3050 -1.7402 -0.0101
15162TIP3   OH266976   5.630   1.671  14.398  0.2987  0.0611  1.3732
15162TIP3    H166977   5.638   1.761  14.369  3.4237 -0.0198  1.6631
15162TIP3    H266978   5.588   1.676  14.483  1.4909  1.4073  1.9151
15163TIP3   OH266979   3.684   3.903  15.621  0.3288  0.3255  0.0211
15163TIP3    H166980   3.695   3.963  15.694  1.7419  0.6801 -0.4491
15163TIP3    H266981   3.743   3.936  15.553 -0.6036 -0.2626 -1.1159
15164TIP3   OH266982   0.181   2.043   3.109 -0.0328 -0.3054 -0.3433
15164TIP3    H166983   0.188   1.968   3.049 -0.0177 -1.1910  0.7433
15164TIP3    H266984   0.130   2.108   3.060  2.2423  0.1036 -2.3767
15165TIP3   OH266985   5.703   2.207  16.853  0.3106 -0.1619 -0.2594
15165TIP3    H166986   5.693   2.300  16.830 -3.3491 -0.2576  0.3533
15165TIP3    H266987   5.671   2.161  16.775  0.9808 -0.8991 -0.1026
15166TIP3   OH266988   3.801   4.069   3.411 -0.2372 -0.2200  0.4581
15166TIP3    H166989   3.883   4.078   3.459  0.8421  0.1178 -1.3343
15166TIP3    H266990   3.782   3.976   3.414  1.2410 -0.6108 -0.6059
15167TIP3   OH266991   2.971   1.755  14.330 -0.0500  0.1567  0.0510
15167TIP3    H166992   3.062   1.775  14.310  0.2732 -0.6968  0.5924
15167TIP3    H266993   2.930   1.840  14.345 -0.3085  0.9208 -3.8988
15168TIP3   OH266994   5.061   1.271  13.596 -0.0107 -0.2601 -0.0494
15168TIP3    H166995   5.096   1.241  13.512  0.3286 -0.9300  0.3242
15168TIP3    H266996   5.135   1.265  13.656 -0.4328 -0.4657  0.4591
15169TIP3   OH266997   0.549   4.233  16.046 -0.0375  0.5181  0.1813
15169TIP3    H166998   0.616   4.181  16.091 -0.4433 -0.3818 -0.2245
15169TIP3    H266999   0.588   4.320  16.037  1.9466 -0.4590 -1.8366
15170TIP3   OH267000   3.809   0.797  12.834  0.7039  0.3441 -0.3368
15170TIP3    H167001   3.834   0.886  12.859  2.7130 -0.6730  1.5698
15170TIP3    H267002   3.860   0.779  12.755  0.3459  0.8089 -0.6862
15171TIP3   OH267003   6.187   4.346   3.371  0.4710  1.1407 -0.7558
15171TIP3    H167004   6.272   4.375   3.338  0.1329  0.7739 -1.9913
15171TIP3    H267005   6.128   4.420   3.354  0.3618  1.0682 -0.6981
15172TIP3   OH267006   5.010   6.363  14.099 -0.3414  0.2783 -0.5477
15172TIP3    H167007   5.048   6.276  14.114  1.6698  1.4526  1.8724
15172TIP3    H267008   4.928   6.362  14.149  0.1505  0.0653  0.2700
15173TIP3   OH267009   6.649   3.072   2.057 -0.7438 -0.3022 -0.2523
15173TIP3    H167010   6.637   3.166   2.043 -0.9257 -0.3312 -0.2979
15173TIP3    H267011   6.652   3.062   2.152  2.1706  0.1098 -0.1943
15174TIP3   OH267012   4.595   1.004  16.842 -0.1727  0.0100 -0.1604
15174TIP3    H167013   4.521   1.062  16.861 -1.0634 -1.1421 -0.0045
15174TIP3    H267014   4.555   0.921  16.815  1.0678 -0.3412 -1.0380
15175TIP3   OH267015   3.705   3.763  12.616  0.5044 -0.3726  0.2886
15175TIP3    H167016   3.610   3.770  12.608  0.4514 -2.6134 -2.5239
15175TIP3    H267017   3.726   3.679  12.575  3.7839  0.3563  0.2279
15176TIP3   OH267018   2.917   4.827   2.456 -0.2276  0.5516 -0.0083
15176TIP3    H167019   2.861   4.772   2.401 -1.1203  2.0188 -0.6170
15176TIP3    H267020   2.909   4.789   2.543 -1.1165 -0.0710 -0.3402
15177TIP3   OH267021   0.354   3.365  11.063  0.4657 -0.1147  0.3642
15177TIP3    H167022   0.260   3.345  11.058  0.0095  1.9139 -0.2200
15177TIP3    H267023   0.357   3.461  11.065  2.5827 -0.1113 -0.9608
15178TIP3   OH267024   3.916   5.403  12.856  0.1285  0.5125  0.0201
15178TIP3    H167025   4.005   5.374  12.835 -0.2132  0.0874 -0.9082
15178TIP3    H267026   3.866   5.388  12.776 -0.5849  1.5975  0.2330
15179TIP3   OH267027   1.028   5.481  12.755 -0.2669  0.0639  0.1158
15179TIP3    H167028   0.971   5.404  12.757  1.0900 -0.9776  0.7736
15179TIP3    H267029   1.050   5.492  12.662  1.4424 -1.8965  0.1925
15180TIP3   OH267030   2.435   4.551   1.533  0.1549 -0.2363  0.3470
15180TIP3    H167031   2.414   4.642   1.555 -0.1058 -0.0177 -0.7351
15180TIP3    H267032   2.529   4.543   1.553  0.2053  0.3093  0.3569
15181TIP3   OH267033   5.272   0.693  15.121  0.0999  0.3470  0.3563
15181TIP3    H167034   5.277   0.757  15.050 -2.3375  1.3406  0.9524
15181TIP3    H267035   5.312   0.737  15.196 -1.9162  1.4463  0.8694
15182TIP3   OH267036   5.687   1.813   0.659 -0.3546  0.6862 -0.1612
15182TIP3    H167037   5.701   1.792   0.751  1.8700 -0.5124 -0.7042
15182TIP3    H267038   5.597   1.786   0.642 -0.5162  0.1154  1.4323
15183TIP3   OH267039   2.566   1.493   1.801 -0.1079  0.0578  0.1997
15183TIP3    H167040   2.632   1.527   1.861  0.3344  0.0544 -0.2795
15183TIP3    H267041   2.482   1.510   1.845 -0.1415  3.8340 -0.9527
15184TIP3   OH267042   4.154   1.463   3.846  0.1493  0.6596 -0.0334
15184TIP3    H167043   4.240   1.500   3.868  0.2791 -0.2140  1.0374
15184TIP3    H267044   4.108   1.535   3.804  1.4711  1.0863 -0.8198
15185TIP3   OH267045   3.564   6.192   0.770  0.3866  0.2775 -0.3585
15185TIP3    H167046   3.564   6.282   0.803 -0.4948  0.2583 -0.2626
15185TIP3    H267047   3.656   6.173   0.751  0.4303  1.7435 -1.8688
15186TIP3   OH267048   5.412   3.155   3.336 -0.1767  0.1546  0.3932
15186TIP3    H167049   5.491   3.166   3.283 -0.4049 -0.0022  0.0154
15186TIP3    H267050   5.421   3.067   3.373  0.9751  1.0065  2.2913
15187TIP3   OH267051   5.787   6.688   0.777 -0.8084  0.2586  0.4699
15187TIP3    H167052   5.766   6.594   0.779 -1.0366  0.3026  0.1063
15187TIP3    H267053   5.820   6.706   0.865 -1.4371 -0.0042  0.7684
15188TIP3   OH267054   1.551   1.897  15.284  0.0700 -0.1963  0.0886
15188TIP3    H167055   1.558   1.956  15.358  2.3233 -1.6593  1.1545
15188TIP3    H267056   1.615   1.928  15.221 -1.7465  0.9671 -1.2942
15189TIP3   OH267057   3.581   1.661  12.191  0.1154  0.4686  0.4000
15189TIP3    H167058   3.636   1.709  12.129 -0.2250 -0.3549 -0.5593
15189TIP3    H267059   3.636   1.589  12.221 -0.2648 -0.0834 -0.2036
15190TIP3   OH267060   1.663   4.215  13.132 -0.0200 -0.0939 -0.2638
15190TIP3    H167061   1.640   4.220  13.039 -0.5834 -0.4038 -0.1435
15190TIP3    H267062   1.748   4.259  13.138  0.5558 -1.0534 -1.1100
15191TIP3   OH267063   6.138   0.886   2.037  0.4355 -0.4355  0.7293
15191TIP3    H167064   6.194   0.840   2.100  2.2096  1.2842  0.4967
15191TIP3    H267065   6.188   0.885   1.956 -0.8389 -0.6787 -0.0718
15192TIP3   OH267066   5.565   4.732   0.585 -0.0729  0.2475 -0.3022
15192TIP3    H167067   5.600   4.751   0.498 -0.5061  1.5576 -0.2137
15192TIP3    H267068   5.475   4.706   0.570  0.1613 -0.5810 -0.3190
15193TIP3   OH267069   2.352   1.537  13.841 -0.0055 -0.3457 -0.3235
15193TIP3    H167070   2.388   1.572  13.922 -0.3089 -2.4459  0.7861
15193TIP3    H267071   2.428   1.523  13.785  0.5269 -1.2263  0.5769
15194TIP3   OH267072   5.882   0.364  11.334  0.1504 -0.3140  0.0219
15194TIP3    H167073   5.803   0.371  11.280 -0.2064 -0.3278  0.5441
15194TIP3    H267074   5.934   0.441  11.309 -1.2150  1.1860  1.5973
15195TIP3   OH267075   5.019   2.011  12.773 -0.1641  0.4496 -0.1001
15195TIP3    H167076   5.004   1.917  12.785  0.4037  0.2621 -0.8097
15195TIP3    H267077   5.106   2.026  12.808  0.1478  0.5213 -0.9010
15196TIP3   OH267078   2.217   4.497  13.368 -0.4795  0.0222 -0.7000
15196TIP3    H167079   2.222   4.557  13.294 -1.6349 -0.9022 -1.5657
15196TIP3    H267080   2.291   4.521  13.424  0.6024  0.5454 -2.2969
15197TIP3   OH267081   1.370   0.629   1.204  0.6082  0.3817 -0.5392
15197TIP3    H167082   1.281   0.596   1.186  0.2208  1.2969 -0.3397
15197TIP3    H267083   1.360   0.682   1.282  1.4127  0.2082 -0.3145
15198TIP3   OH267084   0.437   0.617   2.010 -0.2259 -0.4497 -0.3197
15198TIP3    H167085   0.428   0.676   1.934  0.9622 -1.0048 -0.9247
15198TIP3    H267086   0.388   0.539   1.985  1.9912 -1.5508 -1.5541
15199TIP3   OH267087   0.203   0.822   1.006 -0.3658  0.3612 -0.2254
15199TIP3    H167088   0.201   0.746   0.947  0.0475  1.1203 -1.2401
15199TIP3    H267089   0.251   0.889   0.957 -0.3073  1.1246  0.8498
15200TIP3   OH267090   5.988   6.154  14.161  0.0940  0.1890  0.2307
15200TIP3    H167091   6.024   6.145  14.073 -0.1773 -0.1779  0.1549
15200TIP3    H267092   5.946   6.070  14.179 -0.1136  0.3663  0.5922
15201TIP3   OH267093   6.639   4.803   1.965 -0.3081  0.0696 -0.5645
15201TIP3    H167094   6.584   4.793   1.887 -1.1600 -0.6363  0.1231
15201TIP3    H267095   6.726   4.777   1.935 -0.5956 -0.0653 -1.3194
15202TIP3   OH267096   1.003   2.782   4.073  0.1974  0.0333  0.1869
15202TIP3    H167097   1.065   2.836   4.121 -0.9459  0.3474  1.3887
15202TIP3    H267098   0.918   2.822   4.091 -0.3524 -0.2619 -1.5609
15203TIP3   OH267099   1.922   1.531   1.560  0.3207 -0.3010 -0.3224
15203TIP3    H167100   1.929   1.625   1.541  2.2914 -0.2167  0.5630
15203TIP3    H267101   1.863   1.526   1.636  2.3122  0.5470  1.3865
15204TIP3   OH267102   6.640   0.587  15.030  0.6633 -0.5319 -0.3434
15204TIP3    H167103   6.642   0.528  14.954  1.6782 -1.1810  0.1683
15204TIP3    H267104   6.661   0.530  15.104  2.6317  0.6237  0.0569
15205TIP3   OH267105   5.886   1.635   1.438 -0.7009 -0.2199  0.0619
15205TIP3    H167106   5.910   1.557   1.488 -0.7041 -0.2801 -0.0309
15205TIP3    H267107   5.795   1.652   1.463 -0.5145  0.1065  0.5417
15206TIP3   OH267108   4.440   2.729  11.642 -0.0514  0.1653 -0.0316
15206TIP3    H167109   4.402   2.716  11.729 -0.5107 -2.3639 -0.5232
15206TIP3    H267110   4.370   2.771  11.591 -0.3034  0.3101  0.4273
15207TIP3   OH267111   2.382   5.439   4.092 -0.3944  0.2775  0.5448
15207TIP3    H167112   2.338   5.368   4.139 -1.2784 -0.6592 -1.5778
15207TIP3    H267113   2.474   5.431   4.117 -0.8020 -0.2846  1.9529
15208TIP3   OH267114   3.783   1.832  13.199  0.2853 -0.1181 -0.5845
15208TIP3    H167115   3.839   1.909  13.195  1.9374 -1.3366 -2.2375
15208TIP3    H267116   3.745   1.824  13.112 -0.3423 -0.8378 -0.2649
15209TIP3   OH267117   1.133   1.095  14.278 -0.1806 -0.0973 -0.5450
15209TIP3    H167118   1.137   1.036  14.353 -0.6426  0.1047 -0.3541
15209TIP3    H267119   1.107   1.040  14.205 -2.0202  0.0882 -0.0899
15210TIP3   OH267120   2.606   3.495   2.983 -0.4191 -0.0944 -0.4435
15210TIP3    H167121   2.685   3.450   3.012 -0.3179  0.2990 -0.0946
15210TIP3    H267122   2.542   3.481   3.053 -0.7282 -0.5886 -0.8213
15211TIP3   OH267123   1.218   0.972  12.064 -0.0674  1.2935  0.2871
15211TIP3    H167124   1.144   0.990  12.007 -0.3912 -1.6545 -0.3554
15211TIP3    H267125   1.206   0.882  12.093  3.3492  0.5975  0.0044
15212TIP3   OH267126   1.495   5.270   2.929  1.1538 -0.1953 -1.0029
15212TIP3    H167127   1.516   5.203   2.994 -2.2139  0.1275  0.6319
15212TIP3    H267128   1.496   5.352   2.978 -1.0090  0.1093 -1.3376
15213TIP3   OH267129   0.612   1.491  11.074  0.1483 -0.1798  0.0607
15213TIP3    H167130   0.683   1.474  11.011 -0.4944  0.2253 -0.8011
15213TIP3    H267131   0.534   1.500  11.019 -1.4269 -4.5633  1.0987
15214TIP3   OH267132   6.031   4.872  15.335 -0.7297 -0.1754  0.3170
15214TIP3    H167133   5.982   4.914  15.264 -0.8237 -0.7866  0.0135
15214TIP3    H267134   6.068   4.794  15.295  0.2881  0.1468  0.6188
15215TIP3   OH267135   1.179   6.131   4.412  0.2672  0.1366 -0.1061
15215TIP3    H167136   1.248   6.094   4.357  2.1540  2.2218  0.6779
15215TIP3    H267137   1.124   6.181   4.352  0.5860  0.0305 -0.4876
15216TIP3   OH267138   6.075   0.232   1.469 -0.0243  0.2180 -0.3249
15216TIP3    H167139   6.011   0.263   1.533 -0.2797  0.7921 -0.8406
15216TIP3    H267140   6.132   0.173   1.518 -1.1088 -0.5192  0.0856
15217TIP3   OH267141   1.228   4.940  13.607 -0.7075  0.1580 -0.0292
15217TIP3    H167142   1.194   4.863  13.652  0.7524  0.2945  1.4049
15217TIP3    H267143   1.287   4.904  13.540  1.9373 -0.0533  2.2477
15218TIP3   OH267144   3.122   4.276   1.216  0.2350 -0.5514 -0.4836
15218TIP3    H167145   3.091   4.365   1.196 -2.6529 -0.8575  1.8017
15218TIP3    H267146   3.095   4.224   1.140 -0.6081  0.0844 -0.6452
15219TIP3   OH267147   3.638   0.241   5.056 -0.5683  0.0696 -0.1538
15219TIP3    H167148   3.611   0.190   4.981 -1.6204 -0.4492  0.5479
15219TIP3    H267149   3.572   0.310   5.063 -0.0394  0.5829 -0.1667
15220TIP3   OH267150   6.005   3.105  16.591  0.2308  0.5519  0.1883
15220TIP3    H167151   5.952   3.026  16.597 -1.0526  1.2941 -0.8043
15220TIP3    H267152   5.956   3.170  16.642 -1.3433  1.9817 -2.8479
15221TIP3   OH267153   3.741   3.141   6.047  0.1767  0.7046  0.7252
15221TIP3    H167154   3.702   3.136   5.959  1.8687  0.7563 -0.0611
15221TIP3    H267155   3.717   3.058   6.088 -0.0189  0.3643 -0.0520
15222TIP3   OH267156   3.977   3.360  16.895  0.5246 -0.2879  1.0797
15222TIP3    H167157   3.936   3.376  16.810  2.6093 -1.3394 -0.2091
15222TIP3    H267158   4.057   3.411  16.893  0.9500 -0.8875  2.1131
15223TIP3   OH267159   2.891   3.263  11.079  0.1638  0.3041 -0.1304
15223TIP3    H167160   2.953   3.253  11.151 -0.4532  0.7022  0.4767
15223TIP3    H267161   2.878   3.174  11.046  0.1798  0.0620  0.4975
15224TIP3   OH267162   3.070   4.486  13.549  0.3983 -0.5031 -0.4924
15224TIP3    H167163   3.008   4.556  13.568  1.0625 -0.2199  0.7652
15224TIP3    H267164   3.016   4.414  13.517 -0.2788  0.5992 -1.9128
15225TIP3   OH267165   3.829   5.447   4.748 -0.3901 -0.0055  0.2444
15225TIP3    H167166   3.839   5.526   4.695  1.2904 -0.2854  0.0881
15225TIP3    H267167   3.870   5.378   4.696  1.4145 -0.2739  1.8849
15226TIP3   OH267168   6.452   5.793  11.757  0.4101 -0.1245  0.4004
15226TIP3    H167169   6.360   5.807  11.736  0.2618 -1.7115 -0.1507
15226TIP3    H267170   6.500   5.843  11.690 -0.0527 -0.4665 -0.1924
15227TIP3   OH267171   5.872   4.814  13.724  0.4483  0.2633 -0.1673
15227TIP3    H167172   5.827   4.730  13.712  0.8134  0.2888 -2.0133
15227TIP3    H267173   5.801   4.877  13.736  0.0344  0.0536 -1.3562
15228TIP3   OH267174   5.638   5.211   3.272  0.6092 -0.3816 -0.3851
15228TIP3    H167175   5.574   5.267   3.317 -0.1793 -1.4641 -0.1158
15228TIP3    H267176   5.590   5.132   3.250  1.2874 -0.3529 -2.1676
15229TIP3   OH267177   1.834   3.506   2.489  0.2481 -0.0035  0.5086
15229TIP3    H167178   1.780   3.584   2.504  1.0006  0.3475  1.4880
15229TIP3    H267179   1.843   3.467   2.575  0.4180 -0.8224  0.1235
15230TIP3   OH267180   5.591   4.750   5.610 -0.6601 -0.2373  0.5709
15230TIP3    H167181   5.544   4.680   5.564 -0.4968 -0.9233  1.4279
15230TIP3    H267182   5.549   4.755   5.695 -1.5744  1.6594  0.0639
15231TIP3   OH267183   3.169   0.023   1.297  0.2583  0.4156  0.0096
15231TIP3    H167184   3.187   0.062   1.382  0.6244 -1.5254  0.8945
15231TIP3    H267185   3.255   0.002   1.261  0.0686 -1.3686  0.4960
15232TIP3   OH267186   6.663   2.405  14.550 -0.4079  0.1614 -0.1096
15232TIP3    H167187   6.667   2.389  14.644 -0.1009  2.0242  0.2373
15232TIP3    H267188   6.690   2.323  14.510 -0.2454 -0.5652  1.4256
15233TIP3   OH267189   3.089   6.584   6.319 -0.3035 -0.0340  0.1671
15233TIP3    H167190   3.084   6.532   6.400  0.7527  0.9444  0.9010
15233TIP3    H267191   3.002   6.624   6.311 -0.0844  0.7699  1.4763
15234TIP3   OH267192   1.048   0.604  13.722 -0.0718 -0.1724 -0.3375
15234TIP3    H167193   0.991   0.559  13.659 -0.5204  0.3175 -0.2866
15234TIP3    H267194   0.993   0.673  13.759  0.5279  0.2409 -0.2097
15235TIP3   OH267195   5.202   4.364  17.118  0.6998 -0.0920 -0.2174
15235TIP3    H167196   5.278   4.314  17.087  0.7568 -0.6520  0.7659
15235TIP3    H267197   5.131   4.300  17.124  0.2468  0.3498 -0.7621
15236TIP3   OH267198   2.297   1.096  11.430 -0.4457 -0.2376  0.5791
15236TIP3    H167199   2.272   1.068  11.342 -1.2876  2.4355 -0.1018
15236TIP3    H267200   2.326   1.015  11.472 -2.1715 -2.0244 -1.3856
15237TIP3   OH267201   6.069   4.767  16.430  0.1605  0.6930 -0.1573
15237TIP3    H167202   6.040   4.858  16.422  1.2904  0.9841 -1.2664
15237TIP3    H267203   6.066   4.733  16.340 -0.9963 -0.6241  0.3451
15238TIP3   OH267204   2.966   0.463  16.173  0.3708  0.2669 -0.6808
15238TIP3    H167205   2.926   0.542  16.138  1.0084  0.2740 -1.4023
15238TIP3    H267206   3.029   0.495  16.238 -0.9998  0.2429  0.7238
15239TIP3   OH267207   5.103   4.222   5.589  0.0766  0.0672 -0.4025
15239TIP3    H167208   5.101   4.179   5.504  1.8498 -0.8568 -0.0402
15239TIP3    H267209   5.191   4.203   5.623  0.2917  2.4534  0.5910
15240TIP3   OH267210   3.149   4.493  14.123  0.1242  0.0609 -0.1138
15240TIP3    H167211   3.156   4.582  14.089  0.2869  0.2645  0.4422
15240TIP3    H267212   3.183   4.438  14.053  0.4979  0.4759 -0.2595
15241TIP3   OH267213   1.918   6.542  11.898  0.4783 -0.2761 -0.9308
15241TIP3    H167214   1.882   6.454  11.883  1.5684 -1.0852  0.7591
15241TIP3    H267215   1.888   6.565  11.986  1.5761  0.3055 -0.6928
15242TIP3   OH267216   5.872   2.938  14.602 -0.2950  0.9767 -0.0545
15242TIP3    H167217   5.946   2.976  14.556  1.1063 -0.3456  1.0218
15242TIP3    H267218   5.804   2.929  14.534  2.0280 -1.8652 -2.2634
15243TIP3   OH267219   4.826   4.658  15.049 -0.5868  0.1507 -0.4461
15243TIP3    H167220   4.735   4.683  15.066 -0.8454 -1.9672  2.0745
15243TIP3    H267221   4.870   4.739  15.027 -2.6819  1.6052  0.3865
15244TIP3   OH267222   2.056   3.316  15.811  0.0897 -0.3537  0.1242
15244TIP3    H167223   2.047   3.318  15.906  0.2434 -0.6397  0.1463
15244TIP3    H267224   2.145   3.347  15.794  0.1196 -0.4633  0.0817
15245TIP3   OH267225   5.308   2.391  11.702  0.4868  0.7004 -0.0308
15245TIP3    H167226   5.358   2.472  11.710 -1.2174  1.7146  1.1083
15245TIP3    H267227   5.297   2.379  11.608  1.8714  1.0642 -0.2529
15246TIP3   OH267228   3.037   4.483  16.688 -0.2834  0.0243 -0.3614
15246TIP3    H167229   3.006   4.510  16.775  1.4196 -0.3802  0.4150
15246TIP3    H267230   3.099   4.552  16.663  0.6709 -0.8194 -0.3849
15247TIP3   OH267231   0.002   3.198   4.705  0.0854 -0.3896 -0.3403
15247TIP3    H167232   0.036   3.286   4.690  0.3134 -0.8639 -3.0259
15247TIP3    H267233  -0.019   3.196   4.799  2.3123  1.7034  0.3032
15248TIP3   OH267234   2.142   1.696  13.715  0.8450 -0.2363  0.9665
15248TIP3    H167235   2.199   1.725  13.644  0.0169 -0.3460  0.2396
15248TIP3    H267236   2.189   1.623  13.755  1.8856  0.6193  1.3460
15249TIP3   OH267237   3.521   1.065   4.818 -0.5785  0.0963 -0.1277
15249TIP3    H167238   3.576   1.141   4.839  0.7730 -1.3282  1.7226
15249TIP3    H267239   3.434   1.089   4.850 -0.7687  1.7537 -1.6886
15250TIP3   OH267240   1.837   3.792  14.587 -0.8071 -0.5148 -0.1471
15250TIP3    H167241   1.919   3.839  14.569 -0.5243 -0.3506  1.4084
15250TIP3    H267242   1.781   3.812  14.513  0.5803 -0.6840 -1.3011
15251TIP3   OH267243   4.439   1.730  15.288 -0.4608 -0.7836 -0.3025
15251TIP3    H167244   4.480   1.747  15.204  0.4255  0.6544  0.3901
15251TIP3    H267245   4.497   1.667  15.331 -0.0296 -0.2633 -0.1162
15252TIP3   OH267246   0.328   3.807  12.106 -0.3418  0.1435 -0.0845
15252TIP3    H167247   0.402   3.790  12.164 -2.2175 -1.8303  1.8995
15252TIP3    H267248   0.350   3.761  12.024  0.9236  0.2088  0.2100
15253TIP3   OH267249   4.967   4.868   0.293 -0.2964  0.0329 -0.2246
15253TIP3    H167250   4.950   4.896   0.203 -1.2737  0.1330 -0.0236
15253TIP3    H267251   4.879   4.857   0.331  0.0566 -1.9384  0.1173
15254TIP3   OH267252   6.021   0.304   3.644  0.0680  0.0207 -0.2411
15254TIP3    H167253   6.092   0.291   3.581  0.6921 -0.1747  0.4886
15254TIP3    H267254   5.951   0.248   3.612  0.7028 -0.7690 -0.2885
15255TIP3   OH267255   6.343   1.283   2.450 -0.2111  0.0190  0.1032
15255TIP3    H167256   6.283   1.317   2.384  0.9515  3.9837  0.8327
15255TIP3    H267257   6.291   1.281   2.531 -0.3618 -0.3454  0.0025
15256TIP3   OH267258   4.318   5.581   0.836  0.1053  0.4093 -0.1646
15256TIP3    H167259   4.351   5.670   0.826  2.0790 -0.1063  0.9825
15256TIP3    H267260   4.388   5.526   0.800  0.1402 -0.7377  1.5209
15257TIP3   OH267261   4.871   5.422  12.596 -0.1351  0.3126  0.5773
15257TIP3    H167262   4.897   5.330  12.591 -0.5373  0.1732  0.9752
15257TIP3    H267263   4.889   5.447  12.686 -0.9270  0.3453  0.7331
15258TIP3   OH267264   0.474   1.567   2.354  0.6723 -0.0718 -0.0182
15258TIP3    H167265   0.514   1.534   2.274  0.2492  0.8030 -0.6133
15258TIP3    H267266   0.548   1.594   2.409  0.9330  0.6915 -0.7309
15259TIP3   OH267267   4.121   2.793  17.141  0.3220 -0.2574  0.5724
15259TIP3    H167268   4.144   2.776  17.233 -1.3811  2.3671  1.6192
15259TIP3    H267269   4.030   2.765  17.133  0.2794  0.0616 -0.1318
15260TIP3   OH267270   5.661   3.598  10.963 -0.4472 -0.0271  0.0337
15260TIP3    H167271   5.656   3.595  10.868  0.5093 -0.5001 -0.0104
15260TIP3    H267272   5.726   3.666  10.981  0.2093 -0.7164  0.3149
15261TIP3   OH267273   2.264   5.809   3.580  0.1079 -0.1807  0.1571
15261TIP3    H167274   2.175   5.774   3.591  0.6925 -2.2618 -1.1226
15261TIP3    H267275   2.275   5.813   3.485  0.5586  2.3960  0.2685
15262TIP3   OH267276   6.461   5.405  13.364  0.0890  0.5096  0.2732
15262TIP3    H167277   6.401   5.375  13.296  0.5128 -1.4942  0.7341
15262TIP3    H267278   6.546   5.372  13.337  0.6291  1.4858  0.7272
15263TIP3   OH267279   2.597   1.782  14.282 -0.1918  0.1409 -0.3088
15263TIP3    H167280   2.502   1.768  14.273 -0.0324 -1.5446  0.2174
15263TIP3    H267281   2.605   1.858  14.339 -1.2105  1.3764 -1.7634
15264TIP3   OH267282   0.805   3.483  14.339 -0.4625  0.4235  0.7219
15264TIP3    H167283   0.839   3.559  14.387 -0.2575 -0.3079  1.7687
15264TIP3    H267284   0.854   3.409  14.376 -0.9146 -0.2549 -0.0354
15265TIP3   OH267285   4.302   5.908  10.756 -0.0270 -0.3740  0.3455
15265TIP3    H167286   4.265   5.907  10.668  0.1241  0.0129  0.2733
15265TIP3    H267287   4.260   5.984  10.798 -0.1378 -0.5872  0.6231
15266TIP3   OH267288   4.769   6.220   6.423  0.3351  0.0287  0.3511
15266TIP3    H167289   4.721   6.281   6.367 -0.9231 -2.4508 -1.4347
15266TIP3    H267290   4.730   6.231   6.510 -2.5229 -0.7797 -0.7111
15267TIP3   OH267291   1.984   4.168   5.821  1.2707 -0.3186  0.2280
15267TIP3    H167292   1.982   4.173   5.917  1.7021 -0.9503  0.2797
15267TIP3    H267293   2.011   4.078   5.803  1.0173 -0.2529 -0.4923
15268TIP3   OH267294   2.498   3.598   6.490  0.4583  0.2829 -0.0022
15268TIP3    H167295   2.452   3.617   6.572 -1.3533 -1.3136 -0.5698
15268TIP3    H267296   2.578   3.553   6.517  0.0657  0.1204  0.9294
15269TIP3   OH267297   4.166   0.378  16.755  0.0381  0.4138 -0.0267
15269TIP3    H167298   4.191   0.297  16.711 -0.0759  0.5241 -0.2949
15269TIP3    H267299   4.081   0.360  16.793 -0.5533  0.7925 -1.1262
15270TIP3   OH267300   4.058   6.819   4.766  0.1510 -0.0884 -0.0740
15270TIP3    H167301   4.120   6.749   4.783  1.9355  1.0778 -1.4215
15270TIP3    H267302   4.037   6.855   4.852  0.7610 -0.9837  0.4543
15271TIP3   OH267303   0.374   0.272   5.771  0.0970  0.1879  0.7235
15271TIP3    H167304   0.432   0.196   5.762 -0.9255 -0.9634  3.0264
15271TIP3    H267305   0.403   0.315   5.851 -0.6150  1.1170  0.5077
15272TIP3   OH267306   1.993   5.855   1.199 -0.2943  0.0474 -0.0886
15272TIP3    H167307   2.012   5.823   1.111 -0.6850  0.7393 -0.4216
15272TIP3    H267308   2.080   5.863   1.240  0.0157  1.2109 -0.9276
15273TIP3   OH267309   0.543   6.425  16.240  0.0004 -0.0878 -0.6529
15273TIP3    H167310   0.633   6.455  16.254 -0.2444  0.6884 -0.6776
15273TIP3    H267311   0.513   6.398  16.327  0.0049  0.3853 -0.5015
15274TIP3   OH267312   5.444   3.811   0.558 -0.2653 -0.3700  0.1120
15274TIP3    H167313   5.463   3.887   0.502 -0.7943 -1.6652 -1.9183
15274TIP3    H267314   5.388   3.846   0.627  1.3768  1.5280  0.5968
15275TIP3   OH267315   4.655   4.801   5.174 -0.3308  0.5663 -0.0007
15275TIP3    H167316   4.693   4.720   5.140  0.6615  0.9176  0.2265
15275TIP3    H267317   4.629   4.780   5.264 -1.6419  0.0401 -0.4774
15276TIP3   OH267318   2.654   6.162  15.311  0.2694 -0.4744  0.3649
15276TIP3    H167319   2.674   6.250  15.341 -0.3332  0.0780 -0.7833
15276TIP3    H267320   2.676   6.163  15.218  0.7664 -1.7058  0.4473
15277TIP3   OH267321   1.749   4.715   1.979  0.1215 -0.6874  0.1406
15277TIP3    H167322   1.670   4.696   2.029 -0.7957  0.8216 -0.6745
15277TIP3    H267323   1.731   4.681   1.891 -0.7720  1.9401 -0.7975
15278TIP3   OH267324   4.251   5.060   2.700  0.1704  0.1684 -0.8188
15278TIP3    H167325   4.277   5.140   2.746 -1.2531  0.3080 -0.1841
15278TIP3    H267326   4.183   5.022   2.756  0.1656 -0.9838 -1.5880
15279TIP3   OH267327   5.521   6.334   4.722  0.4534  0.3329  0.3290
15279TIP3    H167328   5.593   6.396   4.735 -0.4024  2.0000 -2.0596
15279TIP3    H267329   5.510   6.330   4.627 -0.4413 -2.5117  0.4696
15280TIP3   OH267330   5.352   2.010   1.723  0.7333  0.8642  0.0726
15280TIP3    H167331   5.338   1.916   1.734  0.8119  0.9695  1.2581
15280TIP3    H267332   5.392   2.019   1.637  0.6972 -0.1917 -0.0643
15281TIP3   OH267333   1.304   0.227  13.149  0.5295  0.0314  0.3020
15281TIP3    H167334   1.352   0.186  13.221 -0.5077  0.0193  1.0016
15281TIP3    H267335   1.284   0.155  13.089 -0.5427 -0.3548  1.1060
15282TIP3   OH267336   2.538   6.071   4.079 -0.3246 -0.9490 -0.0748
15282TIP3    H167337   2.593   6.094   4.154 -0.1979  0.7582 -0.6447
15282TIP3    H267338   2.595   6.082   4.003 -1.2165  0.1599 -0.6213
15283TIP3   OH267339   2.186   5.504   0.904  0.2825  0.0503  0.0632
15283TIP3    H167340   2.115   5.508   0.840 -0.9065  0.8876  1.3833
15283TIP3    H267341   2.222   5.416   0.895 -1.1613 -0.5117 -0.3852
15284TIP3   OH267342   1.604   3.873  15.595 -0.3445 -0.0028 -0.2765
15284TIP3    H167343   1.552   3.951  15.575  0.2244  0.0555 -1.6113
15284TIP3    H267344   1.578   3.809  15.529  2.6390  0.6782 -2.3261
15285TIP3   OH267345   6.548   6.110   0.132  0.2107  0.0268  0.0723
15285TIP3    H167346   6.515   6.091   0.044  1.4532 -1.2549 -0.1710
15285TIP3    H267347   6.553   6.024   0.174 -1.4292  0.7292  1.8295
15286TIP3   OH267348   0.618   4.702   3.796  0.6643  0.4332 -0.0920
15286TIP3    H167349   0.579   4.744   3.719  1.0498 -2.0700 -1.7645
15286TIP3    H267350   0.544   4.688   3.855 -0.4326 -0.9800 -1.6722
15287TIP3   OH267351   1.238   1.250   5.374  0.3694  0.2061  0.2376
15287TIP3    H167352   1.283   1.167   5.356 -0.1400 -0.5827  2.3390
15287TIP3    H267353   1.229   1.291   5.288  2.2855 -1.0469 -0.6322
15288TIP3   OH267354   1.844   3.511  11.899 -0.3310 -0.1792  0.0567
15288TIP3    H167355   1.853   3.460  11.979  2.1093  1.3374  0.8431
15288TIP3    H267356   1.925   3.561  11.893 -0.5858  0.0551 -3.1739
15289TIP3   OH267357   0.071   2.510   4.581  0.5304 -0.2255 -0.4325
15289TIP3    H167358   0.122   2.438   4.544 -0.1272 -0.5152 -0.8144
15289TIP3    H267359  -0.020   2.481   4.572  0.3418 -0.2216  1.2803
15290TIP3   OH267360   3.820   5.580   1.538 -0.0472  0.4062 -0.5241
15290TIP3    H167361   3.823   5.658   1.483  0.4188  0.9602  0.2706
15290TIP3    H267362   3.912   5.557   1.553  0.0115  2.0307  2.4382
15291TIP3   OH267363   6.611   3.129  16.819 -0.4835 -0.3948 -0.1455
15291TIP3    H167364   6.637   3.066  16.752  0.0013  0.4671 -0.8013
15291TIP3    H267365   6.568   3.199  16.770 -0.3522  0.1291  0.4776
15292TIP3   OH267366   1.525   4.342  10.409  0.6161 -0.1253 -0.2114
15292TIP3    H167367   1.605   4.393  10.393  1.1954 -0.7928  0.5025
15292TIP3    H267368   1.482   4.388  10.481  0.3461  0.2249 -0.5856
15293TIP3   OH267369   0.735   2.807  14.513 -0.0788  0.0682  0.0508
15293TIP3    H167370   0.701   2.863  14.443 -1.7937  1.8961  2.2278
15293TIP3    H267371   0.830   2.819  14.508 -0.3350  2.4178 -0.1955
15294TIP3   OH267372   3.671   2.529  15.462 -0.3816  0.6952 -0.2916
15294TIP3    H167373   3.709   2.496  15.381  0.3858 -2.4687  1.1717
15294TIP3    H267374   3.577   2.515  15.453 -0.3147  0.5051 -0.6889
15295TIP3   OH267375   0.283   2.164  14.991  0.0249  0.3209 -0.3057
15295TIP3    H167376   0.249   2.248  14.960 -1.2146 -0.0658 -0.0673
15295TIP3    H267377   0.215   2.100  14.968 -0.5856 -0.1269  2.3670
15296TIP3   OH267378   4.412   0.572   1.841 -0.4007  0.2416  0.7013
15296TIP3    H167379   4.330   0.619   1.825  0.9716  3.7447  2.6285
15296TIP3    H267380   4.403   0.536   1.929 -0.5543 -1.0720  0.1588
15297TIP3   OH267381   0.598   0.646   0.345  0.3048  0.2366 -0.0944
15297TIP3    H167382   0.660   0.606   0.285  0.0074  1.0705 -0.9817
15297TIP3    H267383   0.650   0.707   0.397  0.4291  0.0522  0.0015
15298TIP3   OH267384   5.597   1.703  15.468 -0.0837 -0.0759  0.1354
15298TIP3    H167385   5.605   1.612  15.496 -1.8047 -0.1873  0.3967
15298TIP3    H267386   5.604   1.700  15.373 -0.7702 -0.5914  0.0908
15299TIP3   OH267387   5.558   4.056   4.536  0.4850  0.1204 -0.1933
15299TIP3    H167388   5.555   4.146   4.570  0.2605 -0.2853  0.8817
15299TIP3    H267389   5.635   4.017   4.578  1.2817  0.1535 -1.5663
15300TIP3   OH267390   5.279   2.992   5.149  0.6384  0.0063  0.1459
15300TIP3    H167391   5.324   3.052   5.089  0.3056  2.7520  2.4349
15300TIP3    H267392   5.339   2.982   5.222 -0.7444  0.3815  1.3693
15301TIP3   OH267393   0.593   6.082  11.332 -0.3542 -0.0074 -0.2019
15301TIP3    H167394   0.525   6.091  11.400 -0.4607 -3.2352  0.2413
15301TIP3    H267395   0.549   6.035  11.261  0.9800 -0.6682 -0.6042
15302TIP3   OH267396   4.571   0.292  12.231 -0.1528  0.5425 -0.0767
15302TIP3    H167397   4.535   0.220  12.179  2.2390  0.0698 -1.1936
15302TIP3    H267398   4.551   0.268  12.322  0.0061 -1.1904 -0.4695
15303TIP3   OH267399   1.632   3.918   3.373 -0.5120 -0.2270 -0.2724
15303TIP3    H167400   1.619   3.916   3.279 -2.0753 -1.8613 -0.0915
15303TIP3    H267401   1.553   3.961   3.407  0.1983  0.6687  0.2790
15304TIP3   OH267402   6.026   1.324  11.246 -0.3166 -0.7539 -0.0679
15304TIP3    H167403   5.997   1.357  11.161  0.6361  0.3836  0.0283
15304TIP3    H267404   5.999   1.232  11.246 -0.6758 -0.6766 -1.4375
15305TIP3   OH267405   5.344   4.373   0.568 -0.1136  0.3826 -0.2852
15305TIP3    H167406   5.293   4.376   0.486  0.9153  1.8338 -0.9254
15305TIP3    H267407   5.284   4.335   0.632 -0.8529 -1.0854 -1.7675
15306TIP3   OH267408   6.505   3.643   4.175  0.1917 -0.1887 -0.6243
15306TIP3    H167409   6.546   3.558   4.194  0.1112 -0.0977 -0.0537
15306TIP3    H267410   6.456   3.665   4.254 -1.0273 -0.3221 -1.3071
15307TIP3   OH267411   5.476   2.585  14.560 -0.4595 -0.6218  0.5782
15307TIP3    H167412   5.461   2.608  14.652 -2.3689 -0.9985  0.3939
15307TIP3    H267413   5.413   2.638  14.512  0.5237 -0.4329 -0.5495
15308TIP3   OH267414   4.516   6.151   2.288  0.1429  1.0333  0.1002
15308TIP3    H167415   4.545   6.064   2.264  0.9364  1.6600 -1.3462
15308TIP3    H267416   4.461   6.138   2.365  1.4666 -0.5596  0.8235
15309TIP3   OH267417   6.669   6.483  15.575  0.4316  0.1785  0.2798
15309TIP3    H167418   6.638   6.475  15.485  2.7554  0.4890 -0.6101
15309TIP3    H267419   6.755   6.442  15.575  1.2180  1.6853  1.9549
15310TIP3   OH267420   0.546   0.663  16.403 -0.3265 -0.0674 -0.5808
15310TIP3    H167421   0.631   0.643  16.365 -0.2748  0.4357 -0.7474
15310TIP3    H267422   0.533   0.597  16.471 -0.4080 -0.9675 -1.4414
15311TIP3   OH267423   4.960   1.756  13.843 -0.4321 -0.2775 -0.3582
15311TIP3    H167424   4.950   1.798  13.759  0.3227 -1.2551 -0.9666
15311TIP3    H267425   4.905   1.807  13.903 -0.3520  0.8998 -1.2626
15312TIP3   OH267426   3.698   3.979  16.024  0.7560 -0.6271 -0.4634
15312TIP3    H167427   3.703   4.019  15.937 -1.0350  0.3725 -0.1559
15312TIP3    H267428   3.746   4.039  16.081  2.3259 -1.5131 -0.7821
15313TIP3   OH267429   4.771   1.585   5.836  0.4239  0.6243 -0.0090
15313TIP3    H167430   4.709   1.652   5.809  1.6049  1.0552 -1.8967
15313TIP3    H267431   4.753   1.511   5.777 -0.1932 -0.3552  1.3702
15314TIP3   OH267432   5.547   3.407  10.726 -0.6608 -0.1572  0.1609
15314TIP3    H167433   5.598   3.446  10.656  0.7074 -0.5683  0.8825
15314TIP3    H267434   5.547   3.313  10.707 -3.0214  0.0156 -0.9867
15315TIP3   OH267435   4.614   4.985  16.641 -0.4027  0.0033 -0.1250
15315TIP3    H167436   4.667   5.065  16.644  1.0591 -0.9400  1.1982
15315TIP3    H267437   4.641   4.941  16.561  0.9244 -0.4866  0.5551
15316TIP3   OH267438   6.617   0.616   3.775  0.1230 -0.0741 -0.4022
15316TIP3    H167439   6.669   0.540   3.800 -0.9292 -0.8394 -0.4727
15316TIP3    H267440   6.675   0.666   3.717  2.1294  1.0848  2.3926
15317TIP3   OH267441   0.395   1.214   4.959 -0.4408  0.2363 -0.4033
15317TIP3    H167442   0.387   1.173   4.872  0.9477  1.9893 -1.4303
15317TIP3    H267443   0.398   1.308   4.941  2.1423  0.5861  1.2972
15318TIP3   OH267444   1.253   3.744  15.024  0.1083  0.1098  0.4643
15318TIP3    H167445   1.239   3.690  14.946 -1.0862  1.3162 -0.1954
15318TIP3    H267446   1.210   3.696  15.095 -0.0670 -0.2977  0.0863
15319TIP3   OH267447   2.013   4.640  16.907 -0.8289  0.4476 -0.4465
15319TIP3    H167448   2.036   4.548  16.920 -0.1300  0.7546  0.6217
15319TIP3    H267449   2.034   4.657  16.816  0.2870 -0.1189 -0.3152
15320TIP3   OH267450   2.917   0.859  11.311  0.1107 -0.0897 -0.5636
15320TIP3    H167451   2.929   0.771  11.275  0.5999  0.3749 -1.5794
15320TIP3    H267452   2.852   0.900  11.254 -0.8749 -0.1111  0.5087
15321TIP3   OH267453   5.226   1.926  14.512 -0.5942  0.1689  0.3580
15321TIP3    H167454   5.222   1.996  14.447 -1.5497  0.3373  0.5841
15321TIP3    H267455   5.136   1.914  14.540 -0.4438 -1.1721  0.3114
15322TIP3   OH267456   5.457   2.740  12.365  0.1800  0.0315  0.1671
15322TIP3    H167457   5.501   2.660  12.334  0.3799  0.0186  0.4826
15322TIP3    H267458   5.456   2.731  12.460 -0.6678 -0.0486  0.1541
15323TIP3   OH267459   1.284   4.908  11.585  0.1614  0.0756  0.2545
15323TIP3    H167460   1.241   4.824  11.596 -0.9651  0.6248  0.2035
15323TIP3    H267461   1.359   4.905  11.644 -0.6953 -0.4215  1.3528
15324TIP3   OH267462   0.165   3.815  16.603  0.2614  0.3610  0.0228
15324TIP3    H167463   0.180   3.748  16.537  2.0582  0.8130 -0.0692
15324TIP3    H267464   0.089   3.784  16.653 -0.7898 -0.2528 -1.8873
15325TIP3   OH267465   1.601   0.236  15.697  0.5761 -0.7488  0.3374
15325TIP3    H167466   1.673   0.175  15.683  0.3065 -0.9657 -0.1277
15325TIP3    H267467   1.526   0.181  15.720  0.7894 -0.4613  1.8380
15326TIP3   OH267468   3.517   3.264   1.452  0.3577  0.2307  0.3562
15326TIP3    H167469   3.593   3.312   1.418  0.2471 -0.3212 -0.7205
15326TIP3    H267470   3.542   3.171   1.444 -1.0459 -0.0286 -1.6009
15327TIP3   OH267471   0.609   5.275   5.557 -0.1233 -0.0224  0.0766
15327TIP3    H167472   0.529   5.249   5.603 -0.5731  1.0837 -0.0412
15327TIP3    H267473   0.619   5.368   5.577  1.1804 -0.1532  0.1340
15328TIP3   OH267474   5.213   3.981  12.207 -0.0331  0.3973 -0.5605
15328TIP3    H167475   5.252   3.909  12.256 -2.0306  0.3161  1.0327
15328TIP3    H267476   5.237   4.060  12.255  0.0420  0.5727 -0.8772
15329TIP3   OH267477   4.808   1.908  14.950  0.2930  0.1298 -0.3200
15329TIP3    H167478   4.784   1.822  14.982 -1.0619  0.5628 -0.0975
15329TIP3    H267479   4.817   1.962  15.029  1.4592  0.1254 -0.4353
15330TIP3   OH267480   0.033   3.088   3.512  0.1832 -0.3258  0.2336
15330TIP3    H167481   0.082   3.095   3.430 -0.4341  0.0166 -0.1112
15330TIP3    H267482   0.039   3.176   3.551  0.5451 -0.5091  0.6022
15331TIP3   OH267483   2.396   5.542  16.573  0.3820 -0.3121  0.2776
15331TIP3    H167484   2.397   5.491  16.654  0.7832  0.1745  0.5932
15331TIP3    H267485   2.480   5.588  16.573 -0.3177  1.0206  0.4515
15332TIP3   OH267486   4.963   2.916   0.079  0.3885 -0.2569  0.2212
15332TIP3    H167487   5.034   2.934   0.141  1.3951  0.3494 -1.0600
15332TIP3    H267488   4.972   2.822   0.059 -0.3808 -0.6198  1.4916
15333TIP3   OH267489   1.397   6.183   4.915  0.2982  0.0293 -0.3596
15333TIP3    H167490   1.482   6.154   4.882 -0.2026 -0.0358 -1.6907
15333TIP3    H267491   1.346   6.200   4.836 -0.6989  0.7551  0.4135
15334TIP3   OH267492   5.566   0.675  15.915  0.2172 -0.2193 -0.0354
15334TIP3    H167493   5.496   0.612  15.900  0.0170 -0.3870  1.4560
15334TIP3    H267494   5.646   0.626  15.896 -0.0262 -0.1633 -1.2950
15335TIP3   OH267495   4.228   1.054  16.673 -0.5609  0.3366  0.0739
15335TIP3    H167496   4.228   0.994  16.747  2.0127  0.5558  0.3421
15335TIP3    H267497   4.243   0.997  16.597 -1.5242  0.2940 -0.0922
15336TIP3   OH267498   5.964   5.635  16.920 -0.4243  0.4319  0.0161
15336TIP3    H167499   5.968   5.625  17.015 -1.4645  2.3551  0.3144
15336TIP3    H267500   5.973   5.546  16.886  0.0802 -0.2809  1.8958
15337TIP3   OH267501   5.325   4.744   5.274 -0.0041  0.2206 -0.1024
15337TIP3    H167502   5.329   4.688   5.196 -0.5967 -1.4520  1.0102
15337TIP3    H267503   5.414   4.741   5.310  0.2905  1.0566 -0.7174
15338TIP3   OH267504   6.153   5.381   0.430  0.1660  0.8078  0.2301
15338TIP3    H167505   6.136   5.388   0.524  0.3001  1.6931  0.2004
15338TIP3    H267506   6.203   5.460   0.409  0.4030  0.4655 -0.5292
15339TIP3   OH267507   5.108   6.434   0.537 -0.2873  0.1825  0.0064
15339TIP3    H167508   5.127   6.352   0.583 -0.2007  1.0161  1.5473
15339TIP3    H267509   5.013   6.433   0.524 -0.3797  0.1156  0.6267
15340TIP3   OH267510   4.547   0.989   4.327  0.2989 -0.0773 -0.1728
15340TIP3    H167511   4.579   1.072   4.291  1.7031  0.0631  1.2880
15340TIP3    H267512   4.457   1.008   4.353  0.5542  0.9843  0.0232
15341TIP3   OH267513   3.460   0.277   6.767 -0.3041 -0.4516  0.1156
15341TIP3    H167514   3.371   0.305   6.746 -0.9093 -1.9030  0.6396
15341TIP3    H267515   3.484   0.329   6.844  0.5961  2.3256 -1.8644
15342TIP3   OH267516   1.949   5.216  11.327 -0.0541 -0.1331  0.1396
15342TIP3    H167517   2.016   5.149  11.339  0.4643  0.4728  0.6959
15342TIP3    H267518   1.929   5.247  11.415 -0.6946  0.0547 -0.0641
15343TIP3   OH267519   0.064   2.973  14.035  0.2216 -0.3444  0.4283
15343TIP3    H167520   0.096   3.047  13.983 -1.4808  1.7294  2.1074
15343TIP3    H267521   0.088   2.895  13.985  0.4474  1.4100 -2.3979
15344TIP3   OH267522   2.459   2.483   3.371 -0.1781 -0.3044 -0.3063
15344TIP3    H167523   2.376   2.487   3.324 -1.0661  1.3046  1.2924
15344TIP3    H267524   2.462   2.563   3.423  2.8233  0.1799 -0.9923
15345TIP3   OH267525   4.010   3.555   5.319 -0.3401 -0.3974  0.2272
15345TIP3    H167526   3.997   3.515   5.405 -0.3910 -0.8872 -0.0028
15345TIP3    H267527   4.036   3.482   5.263  1.7937  0.2353  0.2870
15346TIP3   OH267528   0.842   2.647   1.566  0.9730  0.4102  0.1045
15346TIP3    H167529   0.885   2.597   1.635  0.3809  0.3576  0.4432
15346TIP3    H267530   0.773   2.695   1.611 -0.7409 -1.1569 -0.7153
15347TIP3   OH267531   1.304   1.860  10.757  0.8010 -0.2105  0.1949
15347TIP3    H167532   1.371   1.797  10.731 -0.1944 -0.7585 -1.1656
15347TIP3    H267533   1.221   1.813  10.744 -0.0428  1.6729 -1.8871
15348TIP3   OH267534   1.639   6.212  11.701  0.2896  0.6110  0.3197
15348TIP3    H167535   1.665   6.231  11.791 -0.4388 -0.0619  0.6888
15348TIP3    H267536   1.716   6.169  11.663 -0.5277 -2.3112  1.7099
15349TIP3   OH267537   2.844   0.132   2.458 -0.1549  0.2202 -0.4742
15349TIP3    H167538   2.913   0.175   2.407  0.4323 -0.1589 -0.0045
15349TIP3    H267539   2.868   0.148   2.549  1.5208 -3.1832 -0.1632
15350TIP3   OH267540   5.636   1.230   6.342 -0.6619  0.3779 -0.4897
15350TIP3    H167541   5.571   1.162   6.323 -0.0742  0.4146 -3.0175
15350TIP3    H267542   5.606   1.305   6.290 -0.8335  1.8230  1.5979
15351TIP3   OH267543   2.735   1.177   3.791  0.0132 -0.4367  1.1102
15351TIP3    H167544   2.797   1.159   3.721 -0.3317 -0.4669  0.8129
15351TIP3    H267545   2.741   1.102   3.849  0.8081 -0.0940  1.4826
15352TIP3   OH267546   4.557   3.761  14.350  1.0851 -0.5608 -0.2748
15352TIP3    H167547   4.549   3.856  14.339  0.1493 -0.5496  0.4771
15352TIP3    H267548   4.647   3.749  14.381  1.5170 -0.0145 -1.2395
15353TIP3   OH267549   5.321   0.288  14.111 -0.4420 -0.0478  0.2039
15353TIP3    H167550   5.279   0.204  14.127 -0.1398 -0.1539  0.4623
15353TIP3    H267551   5.301   0.340  14.189  0.1694 -0.2101  0.4760
15354TIP3   OH267552   0.001   4.057   1.378 -0.0226 -0.0656  0.1194
15354TIP3    H167553   0.027   4.089   1.292  1.4801 -2.5525 -0.4641
15354TIP3    H267554   0.030   4.125   1.439  4.0389 -0.6085 -0.9214
15355TIP3   OH267555   2.222   3.384  13.588 -0.0742 -0.0825  0.3848
15355TIP3    H167556   2.294   3.363  13.527 -0.5070 -2.6365  0.6634
15355TIP3    H267557   2.266   3.425  13.663  1.1607 -1.7207  0.6140
15356TIP3   OH267558   1.353   3.457   3.346 -0.0080 -0.5331  0.2010
15356TIP3    H167559   1.342   3.539   3.298  0.1837 -1.7874 -2.1156
15356TIP3    H267560   1.312   3.474   3.431  1.4201  2.4335  0.4041
15357TIP3   OH267561   2.651   4.969  15.816 -0.3325 -0.2203  0.5373
15357TIP3    H167562   2.580   4.930  15.764 -0.0234  1.5980 -1.3836
15357TIP3    H267563   2.617   5.055  15.842  0.5849  0.0353  0.9354
15358TIP3   OH267564   3.438   3.871   3.108 -0.0032  0.1202 -0.1980
15358TIP3    H167565   3.471   3.949   3.064 -1.5764 -0.0962 -1.8519
15358TIP3    H267566   3.375   3.904   3.171  0.6782  0.2743  0.4256
15359TIP3   OH267567   6.508   5.045   0.535  0.3342 -0.1588 -0.4616
15359TIP3    H167568   6.456   4.970   0.508 -2.2370  0.9350  1.0694
15359TIP3    H267569   6.506   5.105   0.460  1.1472 -0.9454 -1.1364
15360TIP3   OH267570   1.175   4.948  10.664  0.5585 -0.1040  0.1184
15360TIP3    H167571   1.191   4.947  10.569 -0.3129 -1.6656 -0.0459
15360TIP3    H267572   1.086   4.982  10.672 -0.5793 -2.8379  0.0956
15361TIP3   OH267573   6.157   5.028  16.715  0.1742  0.3428 -0.3348
15361TIP3    H167574   6.093   5.093  16.688 -0.6097  0.2884  1.2815
15361TIP3    H267575   6.188   5.058  16.801  3.8664  1.4747 -1.8688
15362TIP3   OH267576   6.486   4.720  11.861  0.5499 -0.3595  0.8868
15362TIP3    H167577   6.453   4.636  11.830 -0.2386 -0.4028  1.7985
15362TIP3    H267578   6.419   4.783  11.833  0.6727 -0.1694  1.0230
15363TIP3   OH267579   2.332   2.140  16.858  0.8790  0.7518 -0.7258
15363TIP3    H167580   2.403   2.186  16.813  0.7205  1.3348 -0.3912
15363TIP3    H267581   2.285   2.209  16.905  0.5909  0.2541 -0.2778
15364TIP3   OH267582   0.118   3.496   1.794 -0.1622 -0.1884  0.0243
15364TIP3    H167583   0.170   3.573   1.771  0.8050 -0.6610  0.5274
15364TIP3    H267584   0.181   3.423   1.789 -0.8626 -0.8267  0.3357
15365TIP3   OH267585   0.381   4.977  16.889  0.2864 -0.3292  0.3113
15365TIP3    H167586   0.293   5.003  16.862 -0.2007 -0.1776  1.9317
15365TIP3    H267587   0.369   4.940  16.977  2.0083  0.9416  1.1393
15366TIP3   OH267588   2.595   1.350   2.775  0.1322 -0.0982  0.1619
15366TIP3    H167589   2.674   1.301   2.799 -0.5198 -1.0742  0.3248
15366TIP3    H267590   2.522   1.296   2.805 -0.6573 -0.0897 -1.6025
15367TIP3   OH267591   4.771   2.434  16.730 -0.8705 -0.4080 -0.1416
15367TIP3    H167592   4.757   2.359  16.787 -3.2784 -2.1887 -2.7407
15367TIP3    H267593   4.692   2.488  16.741 -0.3283  0.4043 -0.1545
15368TIP3   OH267594   4.053   6.434  17.006  0.0408  0.0889 -0.1608
15368TIP3    H167595   4.110   6.401  17.076  0.3127 -0.2773 -0.5561
15368TIP3    H267596   4.048   6.528  17.022  0.3932  0.0574  0.1397
15369TIP3   OH267597   5.205   1.633   2.692 -0.2025  0.5252 -0.7031
15369TIP3    H167598   5.297   1.619   2.669 -0.1310  1.0315 -0.7428
15369TIP3    H267599   5.157   1.611   2.612 -0.0671  0.8510 -0.8760
15370TIP3   OH267600   0.209   1.685   3.410  0.3916  0.0315  0.0608
15370TIP3    H167601   0.164   1.763   3.374 -0.7142 -0.8245 -0.4951
15370TIP3    H267602   0.148   1.651   3.476  0.6751 -0.5796  0.0134
15371TIP3   OH267603   4.039   5.649   4.130 -0.5126 -0.2055  0.3028
15371TIP3    H167604   4.097   5.578   4.158  0.5184  0.7920  0.7569
15371TIP3    H267605   3.998   5.615   4.050  1.5225 -0.5669 -0.6838
15372TIP3   OH267606   0.462   1.175   0.655  0.7988 -0.4139 -0.2675
15372TIP3    H167607   0.494   1.230   0.584  1.3643  0.3578  0.5696
15372TIP3    H267608   0.538   1.122   0.679  1.2218  0.7756  1.1138
15373TIP3   OH267609   3.894   6.779  16.518 -0.6490  0.0649 -0.4400
15373TIP3    H167610   3.920   6.795  16.427 -0.6537 -0.3472 -0.5184
15373TIP3    H267611   3.946   6.840  16.569  1.5647 -1.6858 -0.4498
15374TIP3   OH267612   0.721   1.517   4.496  0.0441  0.1233  0.4156
15374TIP3    H167613   0.762   1.575   4.432  1.1994  0.3149  1.2891
15374TIP3    H267614   0.681   1.448   4.444 -0.3849  1.1026 -0.5833
15375TIP3   OH267615   0.351   4.041   0.407  0.1342  0.4956 -0.1655
15375TIP3    H167616   0.356   3.952   0.443  0.8070  0.3953 -0.4873
15375TIP3    H267617   0.287   4.035   0.337 -0.0936  0.3491  0.0529
15376TIP3   OH267618   4.059   1.531   0.336 -0.0290  0.1523  0.3333
15376TIP3    H167619   4.116   1.472   0.385  0.7879  0.5202 -0.1579
15376TIP3    H267620   4.109   1.554   0.258 -0.5780  1.0111  0.2178
15377TIP3   OH267621   0.599   0.759  12.152 -0.1564  0.2574  0.5217
15377TIP3    H167622   0.692   0.739  12.152  0.2470  1.9998 -0.7067
15377TIP3    H267623   0.568   0.724  12.236  0.9599 -2.9475 -0.2433
15378TIP3   OH267624   5.846   1.794   4.688 -0.1741  0.4023  0.4880
15378TIP3    H167625   5.892   1.716   4.657 -1.5125 -0.3250  0.2652
15378TIP3    H267626   5.762   1.762   4.721 -0.5628  1.6938  0.8349
15379TIP3   OH267627   5.233   2.835   5.768 -0.3511 -0.4629 -0.0638
15379TIP3    H167628   5.277   2.751   5.778 -1.1377 -0.9236 -0.4248
15379TIP3    H267629   5.258   2.884   5.847  1.2255 -0.5052 -0.5038
15380TIP3   OH267630   5.681   6.718  14.952 -0.0842  0.1995  0.0755
15380TIP3    H167631   5.607   6.678  14.907  1.0245 -1.8198 -0.0933
15380TIP3    H267632   5.742   6.646  14.966  1.5283  1.6425  0.8930
15381TIP3   OH267633   0.686   0.877  14.396 -0.2889 -0.1918  0.3220
15381TIP3    H167634   0.734   0.804  14.434  0.0714  0.4838  1.2161
15381TIP3    H267635   0.624   0.837  14.335 -0.3721 -1.2697  1.0823
15382TIP3   OH267636   5.898   6.406  12.716  0.0926  0.5066 -0.2968
15382TIP3    H167637   5.878   6.496  12.692  0.5031  0.3656 -1.1973
15382TIP3    H267638   5.823   6.356  12.682  0.5740  0.3335 -1.1313
15383TIP3   OH267639   6.611   1.233  16.224  0.2621 -0.0212 -0.0661
15383TIP3    H167640   6.615   1.211  16.131  0.2720 -0.6524  0.0835
15383TIP3    H267641   6.643   1.155  16.269  2.1835  0.9633  0.3947
15384TIP3   OH267642   2.253   5.829  15.208  0.2048  0.3426 -0.9960
15384TIP3    H167643   2.249   5.809  15.302 -0.7796 -1.1403 -1.3128
15384TIP3    H267644   2.328   5.887  15.199  0.4364  0.3599  0.6900
15385TIP3   OH267645   5.834   2.463  15.292  0.5948 -0.5875 -0.0175
15385TIP3    H167646   5.852   2.466  15.386 -1.3627  1.2735  0.3879
15385TIP3    H267647   5.856   2.374  15.266  2.4495 -0.7683  1.8984
15386TIP3   OH267648   3.221   0.208   6.059 -0.2182 -0.1955 -0.0972
15386TIP3    H167649   3.248   0.291   6.020 -1.6501  0.2809 -0.1380
15386TIP3    H267650   3.126   0.213   6.062 -0.3944 -2.2062 -0.8996
15387TIP3   OH267651   4.461   4.501   0.697  0.2244  0.6335 -0.2772
15387TIP3    H167652   4.523   4.564   0.735 -1.2781  3.9863 -2.8859
15387TIP3    H267653   4.505   4.470   0.617 -0.4256  1.0256 -0.7887
15388TIP3   OH267654   1.340   6.693  14.255  0.5662  0.0538  1.8865
15388TIP3    H167655   1.335   6.665  14.346  0.5387  0.3431  1.9755
15388TIP3    H267656   1.343   6.789  14.260 -1.6918  0.2132  1.5057
15389TIP3   OH267657   5.580   6.014  14.118  0.3377 -0.3796 -0.2427
15389TIP3    H167658   5.607   6.005  14.027  0.7418  0.1454 -0.1834
15389TIP3    H267659   5.653   5.980  14.169  0.4357  0.0400 -0.1001
15390TIP3   OH267660   4.455   1.224  13.627 -0.3053 -0.6445 -0.4157
15390TIP3    H167661   4.463   1.290  13.696  0.8397 -0.7345 -0.4428
15390TIP3    H267662   4.457   1.141  13.675  1.6756 -0.7471 -0.6103
15391TIP3   OH267663   0.367   1.513   6.229 -0.1609  0.4013  0.0494
15391TIP3    H167664   0.430   1.542   6.162  0.6131 -2.0889 -0.3978
15391TIP3    H267665   0.417   1.514   6.311  0.0381 -0.1580 -0.0605
15392TIP3   OH267666   2.993   2.689  14.228 -0.1867 -0.0920  0.1283
15392TIP3    H167667   2.906   2.714  14.197  0.7854  1.2510 -1.6925
15392TIP3    H267668   3.006   2.743  14.306 -0.8514 -0.0606  0.2298
15393TIP3   OH267669   4.543   1.712  11.717 -0.8327  0.2737 -0.1987
15393TIP3    H167670   4.501   1.711  11.804  0.0264 -1.4367  0.2386
15393TIP3    H267671   4.634   1.687  11.734 -0.4983  0.5010 -1.5426
15394TIP3   OH267672   4.875   1.178  11.049  0.0230 -0.3260  0.2459
15394TIP3    H167673   4.834   1.217  10.972  2.5448 -0.6060 -1.3486
15394TIP3    H267674   4.849   1.086  11.046  2.3230 -1.0195 -2.0237
15395TIP3   OH267675   3.460   2.578  11.771 -0.2451  0.1981  0.4398
15395TIP3    H167676   3.522   2.519  11.727 -1.8144 -0.4601 -1.0048
15395TIP3    H267677   3.450   2.541  11.859  0.0047 -0.7664  0.0780
15396TIP3   OH267678   6.702   5.067  15.468 -0.3596  0.2231  0.4054
15396TIP3    H167679   6.623   5.015  15.483  1.1884 -2.2194  0.6135
15396TIP3    H267680   6.677   5.128  15.398 -2.7222  0.3353  1.2393
15397TIP3   OH267681   1.746   4.889  13.190  0.6166 -0.2666  0.1499
15397TIP3    H167682   1.668   4.928  13.150  0.6642 -1.5577 -1.3086
15397TIP3    H267683   1.750   4.801  13.153  3.4138  0.1349 -0.7064
15398TIP3   OH267684   1.988   3.835   4.654 -0.3643  0.1390 -0.1260
15398TIP3    H167685   2.022   3.839   4.565 -0.5452 -2.3352 -0.3697
15398TIP3    H267686   1.975   3.742   4.671 -5.0642  0.6824  0.6697
15399TIP3   OH267687   0.641   0.561  13.092 -0.0783  0.1564 -0.2943
15399TIP3    H167688   0.587   0.638  13.109 -1.4054  0.2008 -3.9208
15399TIP3    H267689   0.727   0.597  13.071 -0.4932  0.6437 -1.2270
15400TIP3   OH267690   6.442   3.898   2.626 -0.4281 -0.0070  0.2994
15400TIP3    H167691   6.506   3.968   2.636 -0.1774 -0.0574 -0.8318
15400TIP3    H267692   6.388   3.925   2.552  0.6028 -1.6762 -1.1471
15401TIP3   OH267693   5.234   3.564   3.297 -0.4912 -0.0187 -0.2339
15401TIP3    H167694   5.311   3.558   3.241 -0.2031  0.1659  0.1373
15401TIP3    H267695   5.260   3.521   3.379  0.0932  2.2129  0.8263
15402TIP3   OH267696   0.136   6.121  16.109  0.6845  0.2758 -0.2041
15402TIP3    H167697   0.189   6.057  16.157 -0.1968 -0.8284 -0.6726
15402TIP3    H267698   0.200   6.172  16.059  1.4112 -0.1471  0.2700
15403TIP3   OH267699   1.687   4.371   4.991 -0.3805  0.2557 -0.3648
15403TIP3    H167700   1.615   4.402   5.045 -1.1169  0.5717 -1.4922
15403TIP3    H267701   1.663   4.282   4.966  0.4556 -0.2812  0.6586
15404TIP3   OH267702   2.976   2.793  11.861  0.0249 -0.1444 -0.1067
15404TIP3    H167703   2.932   2.711  11.881  0.0687 -0.4491 -1.1607
15404TIP3    H267704   2.977   2.841  11.943 -2.0791 -0.2141  0.0129
15405TIP3   OH267705   3.621   6.304  16.453 -0.2821  0.7952  0.3488
15405TIP3    H167706   3.529   6.277  16.447 -0.1476  0.2335  0.7140
15405TIP3    H267707   3.633   6.328  16.545  0.6625 -1.9031  1.0107
15406TIP3   OH267708   3.586   6.293  16.161  0.5555 -0.0747 -0.0232
15406TIP3    H167709   3.663   6.289  16.104  0.9664  0.4983  0.4793
15406TIP3    H267710   3.621   6.280  16.249 -0.1870 -1.9298  0.0370
15407TIP3   OH267711   0.949   5.990   2.379 -0.5736 -0.0902 -0.7251
15407TIP3    H167712   1.005   6.038   2.319  0.6967 -0.3204  0.2345
15407TIP3    H267713   0.933   6.051   2.451 -1.5634 -0.0315 -0.9814
15408TIP3   OH267714   4.529   5.440  14.338 -0.0366  0.1094 -0.5049
15408TIP3    H167715   4.551   5.429  14.430 -0.6525 -1.0687 -0.4803
15408TIP3    H267716   4.505   5.533  14.330  2.8253  1.0030 -0.1299
15409TIP3   OH267717   6.659   2.384   3.602 -0.1164  0.1018 -0.1967
15409TIP3    H167718   6.578   2.405   3.647  0.0192 -0.6058  0.3930
15409TIP3    H267719   6.664   2.447   3.530 -0.6782  0.8015  0.3667
15410TIP3   OH267720   1.119   4.443  16.965 -0.4333  0.0777 -0.6637
15410TIP3    H167721   1.052   4.380  16.939 -0.8054 -0.1841  0.8438
15410TIP3    H267722   1.200   4.392  16.966 -0.3049  0.2339 -1.8288
15411TIP3   OH267723   4.665   3.876  15.394  0.2426 -0.2417  0.6249
15411TIP3    H167724   4.636   3.909  15.309 -0.9714 -2.5149  0.0603
15411TIP3    H267725   4.612   3.924  15.458 -1.1049 -0.6905 -0.1174
15412TIP3   OH267726   5.343   4.483   3.500  0.3649  0.5751 -0.1181
15412TIP3    H167727   5.358   4.559   3.556  0.2528  0.8215 -0.4245
15412TIP3    H267728   5.430   4.449   3.482  0.3422 -0.5855  1.6825
15413TIP3   OH267729   6.440   2.508  11.267  0.7802  0.5417  0.3934
15413TIP3    H167730   6.346   2.511  11.249  1.0634  1.7171 -0.9997
15413TIP3    H267731   6.451   2.430  11.322 -0.8051 -0.4383 -0.6085
15414TIP3   OH267732   5.898   3.233   3.152 -0.2137 -0.4791  0.4327
15414TIP3    H167733   5.863   3.145   3.166 -1.9276  0.2106  0.6975
15414TIP3    H267734   5.972   3.220   3.093  0.8104 -2.3136  2.0022
15415TIP3   OH267735   6.572   1.349  15.290 -0.2332 -0.4342  0.9476
15415TIP3    H167736   6.531   1.383  15.369  0.4810 -0.7084  1.4468
15415TIP3    H267737   6.601   1.261  15.314  1.2445  0.0052  0.8184
15416TIP3   OH267738   5.518   0.489   2.727  0.4597  0.6825 -0.2388
15416TIP3    H167739   5.483   0.503   2.815 -0.0987  0.0730 -0.3590
15416TIP3    H267740   5.446   0.451   2.678  0.6780  1.3049 -1.0576
15417TIP3   OH267741   1.775   1.096   5.998  0.1363  0.6765 -0.7336
15417TIP3    H167742   1.772   1.163   6.067  0.2086  1.7500 -1.7508
15417TIP3    H267743   1.795   1.015   6.045  0.5455  1.4456  0.4734
15418TIP3   OH267744   2.080   6.808   5.229  0.2370  0.2687 -0.0614
15418TIP3    H167745   2.085   6.754   5.150 -0.2915 -0.3434  0.3062
15418TIP3    H267746   2.005   6.866   5.214 -0.6248 -0.6616  0.4519
15419TIP3   OH267747   1.190   3.610  16.387  0.6651  0.3714  0.0443
15419TIP3    H167748   1.095   3.623  16.381  0.7747  2.0519  1.4631
15419TIP3    H267749   1.219   3.604  16.296 -0.8524 -0.7401 -0.4032
15420TIP3   OH267750   6.027   6.723   3.675 -0.0417  0.2544  0.5024
15420TIP3    H167751   6.104   6.750   3.626  0.2156  0.0730  0.8027
15420TIP3    H267752   6.041   6.630   3.693 -0.5748  0.0919  0.1127
15421TIP3   OH267753   4.616   4.383  11.050 -0.0725  0.5222  0.0418
15421TIP3    H167754   4.706   4.350  11.042 -0.6445 -1.4448  1.0446
15421TIP3    H267755   4.618   4.437  11.129  0.4066  1.2581 -0.4539
15422TIP3   OH267756   3.254   6.276   3.213  0.5353  0.0609  0.2545
15422TIP3    H167757   3.177   6.272   3.156 -0.4795  0.1645  1.5674
15422TIP3    H267758   3.219   6.272   3.301  2.0859 -0.3442  0.8943
15423TIP3   OH267759   6.115   5.262  12.363  0.0045 -0.0200 -0.3117
15423TIP3    H167760   6.110   5.166  12.360  1.4892 -0.1444  0.4615
15423TIP3    H267761   6.032   5.289  12.403 -1.1411 -0.8578 -2.0019
15424TIP3   OH267762   0.904   1.826   4.085  0.0211  0.5280 -0.3977
15424TIP3    H167763   0.870   1.913   4.066 -0.9795  0.0024 -1.0691
15424TIP3    H267764   0.969   1.810   4.017 -0.1006  0.5755 -0.5247
15425TIP3   OH267765   5.594   5.195  13.594  0.9265  0.0257 -0.1762
15425TIP3    H167766   5.610   5.244  13.513  1.1150  0.5845  0.1919
15425TIP3    H267767   5.535   5.251  13.644 -0.5327 -1.0611 -0.6138
15426TIP3   OH267768   4.388   3.781  12.984  0.1833  0.3103 -0.2959
15426TIP3    H167769   4.393   3.875  13.000  1.7449  0.4384 -1.3227
15426TIP3    H267770   4.294   3.762  12.981 -0.1573  1.9112 -0.5495
15427TIP3   OH267771   6.221   3.536   0.384 -0.0535  0.7904  0.1364
15427TIP3    H167772   6.307   3.496   0.373 -0.4008  0.1562 -0.3084
15427TIP3    H267773   6.162   3.483   0.330 -0.9790  0.3678  1.5069
15428TIP3   OH267774   1.370   4.875  13.340 -0.0636 -0.0520  0.5822
15428TIP3    H167775   1.453   4.860  13.385  0.4025  2.4476  0.7018
15428TIP3    H267776   1.385   4.953  13.287 -1.5495 -1.1048 -1.5523
15429TIP3   OH267777   0.354   3.437   3.191 -0.0243  0.0792  0.3120
15429TIP3    H167778   0.442   3.400   3.201 -0.0347  0.4304  1.9088
15429TIP3    H267779   0.312   3.380   3.127  1.8677  0.8816 -1.7827
15430TIP3   OH267780   3.066   0.578  14.006  0.4380 -0.0316  0.1698
15430TIP3    H167781   3.096   0.564  14.096  1.0044 -3.7234 -0.4275
15430TIP3    H267782   3.128   0.528  13.952 -1.8805 -0.9030 -1.9072
15431TIP3   OH267783   4.633   3.794   3.654  0.1043  0.1180 -0.0512
15431TIP3    H167784   4.717   3.754   3.630  0.2832  0.9701 -0.8863
15431TIP3    H267785   4.578   3.719   3.678  1.3525 -0.3968  1.4228
15432TIP3   OH267786   2.584   2.755  14.431 -0.5582  0.1167  0.2374
15432TIP3    H167787   2.569   2.787  14.520 -0.6245 -0.4705  0.4396
15432TIP3    H267788   2.533   2.675  14.425  1.7418 -1.4882  0.6639
15433TIP3   OH267789   4.207   6.386   0.364 -0.5158  0.2946  0.4001
15433TIP3    H167790   4.123   6.362   0.406 -1.4924  1.3329 -0.8819
15433TIP3    H267791   4.257   6.305   0.365 -0.8004  0.0500  2.7932
15434TIP3   OH267792   2.840   3.020  11.520 -0.3277  0.1047  0.4002
15434TIP3    H167793   2.793   3.032  11.437 -0.4910  0.3768  0.5312
15434TIP3    H267794   2.931   3.042  11.499 -0.7025  2.1848  0.7550
15435TIP3   OH267795   4.896   2.099   2.776 -0.0867 -0.1192 -0.3812
15435TIP3    H167796   4.950   2.052   2.839 -1.4931 -0.4301  0.6441
15435TIP3    H267797   4.893   2.189   2.809 -1.4673 -0.4488  0.5107
15436TIP3   OH267798   1.198   1.503  16.741 -0.4312  0.5765  0.2344
15436TIP3    H167799   1.209   1.570  16.673 -0.3958 -0.9096 -1.2924
15436TIP3    H267800   1.277   1.449  16.736 -1.1121 -0.4722  0.3836
15437TIP3   OH267801   0.272   0.267  12.604  0.1482 -0.2482 -0.0938
15437TIP3    H167802   0.294   0.325  12.531  1.0864 -0.0286  0.3464
15437TIP3    H267803   0.330   0.192  12.594  0.3987 -0.1448  0.4981
15438TIP3   OH267804   0.792   0.635  16.248  0.1770 -0.1371 -0.4662
15438TIP3    H167805   0.859   0.697  16.222 -0.3840  0.2068 -1.1229
15438TIP3    H267806   0.813   0.555  16.201  1.6210 -0.8929  1.3151
15439TIP3   OH267807   4.058   2.214   1.860  0.5721 -0.0059 -0.2549
15439TIP3    H167808   4.019   2.194   1.774 -2.1829  0.1490  0.8545
15439TIP3    H267809   4.040   2.136   1.913  0.0961  0.8275  0.8466
15440TIP3   OH267810   0.877   1.653   1.382  0.3580 -0.0659 -0.1808
15440TIP3    H167811   0.823   1.729   1.408 -0.2461 -1.0835  1.7363
15440TIP3    H267812   0.828   1.613   1.310 -0.2241  0.3691 -0.0404
15441TIP3   OH267813   5.374   3.525   4.006  0.3070 -0.6265 -0.3215
15441TIP3    H167814   5.415   3.610   3.990 -3.5807  1.6697  0.6188
15441TIP3    H267815   5.343   3.497   3.920 -2.9706  1.7234 -0.1058
15442TIP3   OH267816   0.147   5.694  14.820 -0.7432 -0.5535  0.0260
15442TIP3    H167817   0.174   5.751  14.892  0.1404 -3.0406  1.8195
15442TIP3    H267818   0.073   5.739  14.780 -0.1689  1.7523  1.3832
15443TIP3   OH267819   4.693   1.952  11.370 -0.6571  0.4349  0.4251
15443TIP3    H167820   4.744   1.955  11.451 -1.1478  0.0076  0.7538
15443TIP3    H267821   4.607   1.984  11.394 -0.5664  1.1036 -0.1193
15444TIP3   OH267822   1.595   4.614  14.765 -0.6747  0.2984  0.0472
15444TIP3    H167823   1.505   4.616  14.732 -0.3531 -0.1723 -0.8578
15444TIP3    H267824   1.616   4.521  14.773  0.1793  0.3864 -0.9925
15445TIP3   OH267825   2.075   3.360   0.073  0.8082 -0.1831 -0.0613
15445TIP3    H167826   2.050   3.449   0.098 -1.9201 -1.0370  0.5796
15445TIP3    H267827   2.061   3.357  -0.022  0.8254  0.0499 -0.0721
15446TIP3   OH267828   1.065   6.821  15.981 -0.0318  0.1035  0.1694
15446TIP3    H167829   1.160   6.816  15.994  0.4365  2.7787 -1.4094
15446TIP3    H267830   1.049   6.773  15.900 -0.0049 -0.1921  0.3382
15447TIP3   OH267831   2.713   3.670  12.236  0.2226  0.3255  0.2683
15447TIP3    H167832   2.639   3.612  12.218  0.9984 -0.3754 -0.7767
15447TIP3    H267833   2.673   3.748  12.275 -0.7635 -1.2782  2.7864
15448TIP3   OH267834   4.501   2.635   0.315  0.2750 -0.3579 -0.3334
15448TIP3    H167835   4.469   2.611   0.402 -0.1003  0.2082 -0.3100
15448TIP3    H267836   4.589   2.668   0.329 -0.2902  1.0748  0.0392
15449TIP3   OH267837   2.239   2.411   5.597  0.1845 -0.6819  0.6650
15449TIP3    H167838   2.289   2.329   5.598 -0.0262 -1.2031 -4.4192
15449TIP3    H267839   2.147   2.383   5.595  0.0366 -0.2195  0.8684
15450TIP3   OH267840   4.127   1.024   2.228 -0.3924  0.4688  0.0728
15450TIP3    H167841   4.202   1.044   2.173 -0.9796  2.4744 -0.1045
15450TIP3    H267842   4.100   0.936   2.203  0.8653  0.3918 -1.0562
15451TIP3   OH267843   5.582   3.951   0.996 -0.4236 -0.3701 -0.8367
15451TIP3    H167844   5.568   4.002   0.917 -0.1654  0.9486 -0.0722
15451TIP3    H267845   5.661   3.988   1.035 -0.7346 -0.7628  0.2093
15452TIP3   OH267846   2.138   6.154   1.437  0.1640  0.5554 -0.0584
15452TIP3    H167847   2.211   6.139   1.497  0.5155  0.4851 -0.4944
15452TIP3    H267848   2.071   6.092   1.464  0.1871  0.7625  0.4771
15453TIP3   OH267849   2.693   5.696   2.060 -0.0537 -0.4052 -0.0398
15453TIP3    H167850   2.745   5.707   1.981  0.8032 -0.9596  0.4422
15453TIP3    H267851   2.639   5.775   2.063  0.3682 -0.0722 -0.8287
15454TIP3   OH267852   6.520   1.924   2.633 -0.1519 -0.1641 -0.2409
15454TIP3    H167853   6.576   1.897   2.560 -0.8137 -0.7963 -0.5225
15454TIP3    H267854   6.558   2.007   2.663  0.1879  0.0531 -1.2414
15455TIP3   OH267855   5.586   0.578   4.813 -0.4088  0.1440 -0.0626
15455TIP3    H167856   5.649   0.599   4.744 -1.6547 -2.0992 -2.0328
15455TIP3    H267857   5.634   0.519   4.871 -0.6378 -1.6766 -1.6357
15456TIP3   OH267858   1.611   5.722  16.797  0.2801  0.2603 -0.4913
15456TIP3    H167859   1.657   5.651  16.752  1.1356 -0.9755  2.1659
15456TIP3    H267860   1.673   5.794  16.797  1.2866 -0.5667  0.8348
15457TIP3   OH267861   5.760   6.213   0.880  0.3181 -0.0396  0.5657
15457TIP3    H167862   5.739   6.283   0.942  0.5267 -0.5232  1.1970
15457TIP3    H267863   5.837   6.170   0.917 -1.0582 -1.9727  1.3620
15458TIP3   OH267864   5.758   2.678  11.064 -0.5024  0.6591  0.1391
15458TIP3    H167865   5.677   2.630  11.079  0.0609 -0.7443 -1.0334
15458TIP3    H267866   5.804   2.674  11.148 -0.4568 -0.9249  0.0629
15459TIP3   OH267867   4.758   1.996   0.825 -0.4934 -0.4974  0.4859
15459TIP3    H167868   4.836   2.041   0.856  0.0358  0.5115 -2.0389
15459TIP3    H267869   4.788   1.948   0.747 -2.2743 -0.4593 -0.2640
15460TIP3   OH267870   4.715   0.068  10.982  0.2718 -0.3692 -0.2238
15460TIP3    H167871   4.620   0.071  10.966  0.3920  0.7004 -0.7917
15460TIP3    H267872   4.750   0.019  10.907  0.1574 -0.9128  0.0719
15461TIP3   OH267873   2.837   4.016  15.919 -0.4665 -0.7714 -0.5480
15461TIP3    H167874   2.846   4.081  15.849 -2.1497  0.8103  0.6215
15461TIP3    H267875   2.919   4.023  15.968 -0.7552  0.7683 -0.2334
15462TIP3   OH267876   1.495   1.162   1.198 -0.1037 -0.0229  0.6356
15462TIP3    H167877   1.462   1.172   1.287  0.7065 -1.1317  1.0917
15462TIP3    H267878   1.588   1.142   1.210 -0.1331 -0.8812 -0.4198
15463TIP3   OH267879   4.271   3.014   4.690  0.0904  0.4211  0.2753
15463TIP3    H167880   4.250   2.942   4.631 -0.7773  1.3279 -0.5506
15463TIP3    H267881   4.186   3.051   4.715  0.5131  1.1090  0.7535
15464TIP3   OH267882   0.440   6.777   3.268 -0.5336 -0.1432  0.4833
15464TIP3    H167883   0.502   6.724   3.218 -1.2794 -0.5371 -0.0462
15464TIP3    H267884   0.361   6.723   3.275 -0.9474  0.4818  0.8366
15465TIP3   OH267885   5.614   3.340   1.630 -0.5606  0.4342  0.0588
15465TIP3    H167886   5.690   3.310   1.580 -1.1851  0.8590 -1.1692
15465TIP3    H267887   5.618   3.290   1.712  0.8489  0.2115 -0.1247
15466TIP3   OH267888   0.422   5.108  15.303  0.8210  0.0671 -0.3747
15466TIP3    H167889   0.427   5.075  15.393  0.8249 -0.0001 -0.3989
15466TIP3    H267890   0.506   5.084  15.264  0.5824 -0.4558 -0.5806
15467TIP3   OH267891   5.618   6.668   4.300  0.2184  0.0429 -0.3045
15467TIP3    H167892   5.534   6.632   4.271 -0.0058 -0.2639  0.6792
15467TIP3    H267893   5.672   6.670   4.221 -0.8471  0.6426 -1.0390
15468TIP3   OH267894   2.589   2.936   4.722 -0.0841 -0.4106 -0.3383
15468TIP3    H167895   2.534   3.014   4.730 -0.9189 -0.7980 -1.8354
15468TIP3    H267896   2.654   2.944   4.792 -0.2991  1.5022 -0.3157
15469TIP3   OH267897   1.250   0.434   0.759  0.3151 -0.8690 -0.3773
15469TIP3    H167898   1.232   0.388   0.842  1.3608  1.1675  1.0623
15469TIP3    H267899   1.340   0.410   0.737  0.8240  0.3424  0.3183
15470TIP3   OH267900   2.770   5.234  16.806  0.1878 -0.6364 -0.5729
15470TIP3    H167901   2.728   5.181  16.738 -0.3578  0.6097 -1.2402
15470TIP3    H267902   2.822   5.297  16.758 -1.3945  1.2504  0.0607
15471TIP3   OH267903   6.609   2.587   4.813 -0.1015 -0.3453 -0.3286
15471TIP3    H167904   6.704   2.587   4.797 -0.5192 -1.7868 -3.4712
15471TIP3    H267905   6.583   2.678   4.797  0.7622  0.1960  1.1141
15472TIP3   OH267906   0.521   3.364  16.236 -0.0862  0.0982  0.0723
15472TIP3    H167907   0.434   3.324  16.232 -0.0786  0.2056 -1.7106
15472TIP3    H267908   0.520   3.431  16.168  1.6006 -0.3097 -0.3932
15473TIP3   OH267909   4.094   1.882   0.453 -0.0075  0.6359 -0.4743
15473TIP3    H167910   4.159   1.951   0.461 -0.3345  0.7712  1.4136
15473TIP3    H267911   4.044   1.905   0.375  2.5365  0.1811 -2.3469
15474TIP3   OH267912   1.250   6.369  16.056 -0.3275  0.0269  0.1979
15474TIP3    H167913   1.210   6.426  16.122 -0.3820 -1.0023  1.0924
15474TIP3    H267914   1.191   6.294  16.051  0.6240 -0.7506  0.3401
15475TIP3   OH267915   1.878   2.212  15.667  0.0553  0.0979 -0.3170
15475TIP3    H167916   1.969   2.193  15.691 -0.2037  0.7873  1.3258
15475TIP3    H267917   1.868   2.173  15.580  1.1682 -2.2564  0.5077
15476TIP3   OH267918   6.431   4.110  14.581  0.2211 -0.1102  0.2983
15476TIP3    H167919   6.382   4.033  14.608  0.6872 -0.2146  0.8873
15476TIP3    H267920   6.365   4.178  14.568 -0.2074 -0.6412 -0.3805
15477TIP3   OH267921   3.800   3.434   5.747  0.4397 -0.1579 -0.6222
15477TIP3    H167922   3.821   3.407   5.836 -1.8537 -0.3643 -0.0954
15477TIP3    H267923   3.744   3.364   5.712 -1.8372  1.6451 -0.8309
15478TIP3   OH267924   5.866   6.163   4.488  0.3655 -0.1439  0.4360
15478TIP3    H167925   5.854   6.255   4.465  1.6437 -0.9880 -4.8334
15478TIP3    H267926   5.934   6.163   4.556  1.6005  2.7643 -0.6572
15479TIP3   OH267927   1.014   1.566  13.823 -0.6764  0.0347  0.3323
15479TIP3    H167928   1.108   1.554  13.809 -0.5621  1.0674  0.0716
15479TIP3    H267929   1.003   1.565  13.918 -0.3840 -0.0186  0.3659
15480TIP3   OH267930   5.638   0.513  13.821  0.0752 -0.4115  0.6385
15480TIP3    H167931   5.657   0.538  13.912 -3.3552 -0.0417  1.3720
15480TIP3    H267932   5.661   0.590  13.769 -0.6409  0.4696  1.5922
15481TIP3   OH267933   2.156   2.035   4.395  0.6613 -0.1611 -0.2650
15481TIP3    H167934   2.179   2.115   4.348  2.4504 -0.9561 -0.8372
15481TIP3    H267935   2.240   1.992   4.411 -0.0973 -1.0058  1.7310
15482TIP3   OH267936   5.946   3.377   5.011 -0.4698 -0.0301 -0.3165
15482TIP3    H167937   6.020   3.389   5.070 -0.1966  0.7857 -0.8057
15482TIP3    H267938   5.933   3.282   5.009  0.5201 -0.1870 -0.1682
15483TIP3   OH267939   5.666   6.342  11.285  0.0246 -0.1452 -0.1131
15483TIP3    H167940   5.614   6.378  11.214  0.3692  0.5004 -0.0527
15483TIP3    H267941   5.604   6.291  11.337 -0.3678 -0.0747 -0.5021
15484TIP3   OH267942   5.380   3.918   4.763  0.1243 -0.0830  0.3440
15484TIP3    H167943   5.439   3.855   4.806  0.2911 -0.9100 -1.0397
15484TIP3    H267944   5.436   3.967   4.703 -0.2275  0.5882  0.5505
15485TIP3   OH267945   1.940   6.092   6.900  0.6132  0.3350  0.3591
15485TIP3    H167946   1.971   6.179   6.874  0.7819  0.1104 -0.1888
15485TIP3    H267947   1.850   6.088   6.867 -0.2237  1.1751  2.3634
15486TIP3   OH267948   0.210   2.723   4.692  0.3298  0.3712  0.5506
15486TIP3    H167949   0.150   2.686   4.627 -0.7530  3.8085 -0.6589
15486TIP3    H267950   0.178   2.690   4.776 -1.2885 -0.4211 -0.3277
15487TIP3   OH267951   3.434   1.446  15.738  0.4940 -0.0197 -0.4163
15487TIP3    H167952   3.450   1.541  15.737 -2.8993  0.7463  1.4360
15487TIP3    H267953   3.507   1.410  15.786  0.0273  2.2649  2.2678
15488TIP3   OH267954   6.541   2.869  16.982 -0.3136  0.5268  0.2512
15488TIP3    H167955   6.569   2.833  16.898  0.7826  1.4478  0.1817
15488TIP3    H267956   6.475   2.935  16.959  0.5447  1.3296  0.0201
15489TIP3   OH267957   6.028   2.106  15.153  0.6929  0.2726 -0.0433
15489TIP3    H167958   5.938   2.110  15.184  0.3746 -1.8927 -0.5247
15489TIP3    H267959   6.061   2.022  15.185  2.6122  1.0803  0.2460
15490TIP3   OH267960   5.691   2.452  12.460 -0.1388 -0.0410  0.9987
15490TIP3    H167961   5.663   2.381  12.403 -0.5484  1.3135 -0.5873
15490TIP3    H267962   5.720   2.521  12.400  1.2754  0.7291  2.4888
15491TIP3   OH267963   5.773   6.804  15.369  0.0558 -0.5027 -0.4261
15491TIP3    H167964   5.776   6.840  15.280  0.1438 -0.9566 -0.6141
15491TIP3    H267965   5.810   6.716  15.360 -0.1337 -0.6321  0.0203
15492TIP3   OH267966   1.618   2.689   2.450  0.1345 -0.2005  0.2081
15492TIP3    H167967   1.681   2.681   2.378  1.5720 -3.0195  1.6475
15492TIP3    H267968   1.648   2.766   2.499 -0.2345  1.1133 -1.5080
15493TIP3   OH267969   6.663   2.820   1.526  0.3036  0.3681  0.2672
15493TIP3    H167970   6.661   2.768   1.445 -0.8928 -1.6682  1.5162
15493TIP3    H267971   6.745   2.869   1.521 -0.4798  1.6255 -2.9138
15494TIP3   OH267972   1.621   3.444  13.124 -0.6068  0.0488  0.7378
15494TIP3    H167973   1.673   3.402  13.056 -1.0101 -0.5492  0.7969
15494TIP3    H267974   1.602   3.531  13.088 -0.4176 -0.0913  0.2908
15495TIP3   OH267975   3.661   1.624  15.226 -0.4363 -0.0363  0.5038
15495TIP3    H167976   3.566   1.607  15.222 -0.8516  1.8549  1.4240
15495TIP3    H267977   3.680   1.674  15.147 -0.3055  0.0818  0.6113
15496TIP3   OH267978   2.570   3.050   2.416  0.7223 -0.1321 -0.0587
15496TIP3    H167979   2.577   3.090   2.330 -2.3558 -0.8028 -0.7253
15496TIP3    H267980   2.553   2.958   2.399 -1.1905 -0.0695  1.1485
15497TIP3   OH267981   6.258   1.639  12.339 -0.5270 -0.1109  0.6306
15497TIP3    H167982   6.276   1.706  12.273  0.7570  1.6174  2.6117
15497TIP3    H267983   6.206   1.684  12.406 -0.5374 -1.3906  1.5219
15498TIP3   OH267984   4.562   5.233   5.166  0.1658  0.1231 -0.5508
15498TIP3    H167985   4.527   5.159   5.116  0.6841 -0.1480 -0.5209
15498TIP3    H267986   4.609   5.286   5.102 -2.4526  1.9301 -1.1437
15499TIP3   OH267987   0.704   6.415   0.447 -0.5188 -0.1929  0.4748
15499TIP3    H167988   0.721   6.370   0.530  0.9233 -0.4704  0.0590
15499TIP3    H267989   0.789   6.418   0.404 -1.1870  0.2329 -0.8644
15500TIP3   OH267990   6.291   0.043   0.274 -0.8473  0.0918  0.1158
15500TIP3    H167991   6.303  -0.017   0.348 -2.5547  1.2381  1.3855
15500TIP3    H267992   6.369   0.099   0.277 -0.2309 -0.7452  0.1780
15501TIP3   OH267993   1.885   2.144  15.945 -0.0158  0.2992 -0.3143
15501TIP3    H167994   1.974   2.178  15.946  0.1395 -0.0848  1.1262
15501TIP3    H267995   1.844   2.186  15.869  0.7488  2.1300  0.2370
15502TIP3   OH267996   3.820   3.775   1.034 -0.3428  0.3315  0.5540
15502TIP3    H167997   3.910   3.802   1.054 -0.5531  1.0171  0.5975
15502TIP3    H267998   3.779   3.764   1.120 -0.1389 -0.5852  0.5497
15503TIP3   OH267999   6.759   0.595   2.054  0.1746 -0.1055  0.2305
15503TIP3    H168000   6.755   0.688   2.073 -0.9517 -0.3709  1.4412
15503TIP3    H268001   6.813   0.589   1.976  1.4786  1.4348  0.9517
15504TIP3   OH268002   5.037   1.789  14.285  0.0329  0.1333  0.2013
15504TIP3    H168003   4.991   1.799  14.368 -1.4923 -0.1371 -0.5768
15504TIP3    H268004   4.969   1.764  14.223  1.0665  0.7228 -1.2225
15505TIP3   OH268005   0.215   2.272  12.016 -0.5507  0.2363  0.4778
15505TIP3    H168006   0.195   2.194  12.067 -0.4771 -0.0889  0.0179
15505TIP3    H268007   0.229   2.341  12.081  0.6495 -0.4262  0.9491
15506TIP3   OH268008   6.824   5.005  15.865  0.1955 -0.1820  0.3655
15506TIP3    H168009   6.789   5.043  15.784 -0.0582  0.2639  0.6812
15506TIP3    H268010   6.919   5.013  15.856  0.1390  2.1808  1.1839
15507TIP3   OH268011   4.734   2.744  13.834 -0.2440 -0.1049  0.5901
15507TIP3    H168012   4.765   2.757  13.744  0.3403 -0.9098  0.6572
15507TIP3    H268013   4.653   2.794  13.839  0.4308  1.0861  0.0432
15508TIP3   OH268014   1.081   5.205   5.662 -0.1459  0.5337 -0.2896
15508TIP3    H168015   1.004   5.260   5.651 -0.8459 -0.5127 -0.7912
15508TIP3    H268016   1.109   5.220   5.753 -2.0975 -0.5115  0.5348
15509TIP3   OH268017   5.789   3.863   2.664  0.1924 -0.3650 -0.1948
15509TIP3    H168018   5.773   3.917   2.586 -0.8863 -1.8257 -1.0381
15509TIP3    H268019   5.877   3.888   2.692 -0.1742  1.6389 -0.6719
15510TIP3   OH268020   3.412   2.862  11.711  0.9943  0.1096  0.3544
15510TIP3    H168021   3.398   2.770  11.733  2.1583 -0.7760 -2.2576
15510TIP3    H268022   3.325   2.895  11.689  0.6344 -0.4945  0.8524
15511TIP3   OH268023   5.547   3.912   5.401  0.4735  0.4845  0.1436
15511TIP3    H168024   5.611   3.951   5.460 -0.8506  2.0381  0.6505
15511TIP3    H268025   5.591   3.906   5.317  2.2483 -1.3152  1.0947
15512TIP3   OH268026   5.232   5.205   4.709 -0.0681 -0.0001  0.2994
15512TIP3    H168027   5.282   5.210   4.791 -1.2298  2.2859  0.9640
15512TIP3    H268028   5.158   5.264   4.723 -0.8960 -0.4000 -2.0177
15513TIP3   OH268029   0.580   3.882  16.248  0.3514 -0.3467 -0.0718
15513TIP3    H168030   0.626   3.877  16.164  2.2489 -0.2743  0.8919
15513TIP3    H268031   0.501   3.933  16.230  0.6496 -0.4635 -1.8273
15514TIP3   OH268032   3.213   0.978  14.767  0.0654 -0.2002 -0.2958
15514TIP3    H168033   3.298   1.004  14.803  0.0915 -1.0997  0.3072
15514TIP3    H268034   3.152   1.046  14.798  0.3281 -0.2587  0.3662
15515TIP3   OH268035   6.240   3.736   2.190  0.0578 -0.4229 -0.2656
15515TIP3    H168036   6.295   3.719   2.266  0.6313  0.0635 -0.5651
15515TIP3    H268037   6.292   3.707   2.115 -0.1056  0.0125 -0.5495
15516TIP3   OH268038   4.793   6.602  13.118 -0.1222  0.0876 -0.8565
15516TIP3    H168039   4.887   6.601  13.100  0.4895 -0.4943  1.8911
15516TIP3    H268040   4.771   6.511  13.139 -1.0305  0.4089 -0.3234
15517TIP3   OH268041   3.792   2.461   4.027 -0.0938  0.7359  0.4302
15517TIP3    H168042   3.716   2.519   4.024 -0.4878  0.3996  2.4927
15517TIP3    H268043   3.844   2.493   4.101  2.5498  1.8100 -1.6942
15518TIP3   OH268044   3.859   5.266  14.388 -0.6087 -0.0269  0.2964
15518TIP3    H168045   3.868   5.329  14.317 -1.6729  0.0445  0.1997
15518TIP3    H268046   3.863   5.318  14.467  0.2688 -0.0665  0.2826
15519TIP3   OH268047   0.124   6.829   3.042 -0.2498 -0.1400  0.2949
15519TIP3    H168048   0.133   6.812   3.136  0.0743  1.2079  0.5314
15519TIP3    H268049   0.188   6.770   3.002 -2.1871 -2.6813  0.6412
15520TIP3   OH268050   4.958   0.186   5.961  0.2378 -0.3468 -0.0605
15520TIP3    H168051   5.046   0.198   5.925 -0.2569  0.6656 -1.0156
15520TIP3    H268052   4.906   0.255   5.919 -1.1632 -1.3614 -0.0604
15521TIP3   OH268053   0.099   3.578  12.906  0.2740  0.0234 -0.5674
15521TIP3    H168054   0.166   3.510  12.912 -1.0560 -1.3020 -0.3586
15521TIP3    H268055   0.141   3.656  12.943  1.9924 -0.5286 -1.2519
15522TIP3   OH268056   6.083   6.422   3.162 -0.3408 -0.2535 -0.1648
15522TIP3    H168057   6.078   6.416   3.258  0.4405  0.4214 -0.0684
15522TIP3    H268058   6.052   6.338   3.131 -0.6208 -0.4782  0.6868
15523TIP3   OH268059   1.355   0.493  13.344  0.1551 -0.3644 -0.0167
15523TIP3    H168060   1.307   0.521  13.266  0.1176 -0.5631 -0.0663
15523TIP3    H268061   1.444   0.526  13.330 -0.2525  1.1053  0.6626
15524TIP3   OH268062   3.992   3.534  11.709 -0.1837  0.1500  0.5172
15524TIP3    H168063   4.078   3.516  11.671 -0.1314  0.1455  0.6357
15524TIP3    H268064   3.991   3.629  11.721  0.3211  0.0215  1.7170
15525TIP3   OH268065   0.984   3.743  11.654  0.1307  0.0337  0.1980
15525TIP3    H168066   0.912   3.744  11.591  0.0164 -2.0405  0.2296
15525TIP3    H268067   1.063   3.750  11.600 -0.0303  1.2326  0.0847
15526TIP3   OH268068   5.739   0.650   2.739 -0.0915  0.1360  0.6378
15526TIP3    H168069   5.809   0.603   2.692 -0.2160 -2.0248  2.4796
15526TIP3    H268070   5.662   0.594   2.730 -0.9473  1.2489  0.7860
15527TIP3   OH268071   5.394   1.160  15.744  0.2410  0.3158 -0.2997
15527TIP3    H168072   5.346   1.243  15.749  2.6182  1.7550  1.4055
15527TIP3    H268073   5.339   1.097  15.789 -0.4492  1.6988  0.8939
15528TIP3   OH268074   0.618   3.620   6.412  0.3170  0.7819 -0.3706
15528TIP3    H168075   0.684   3.562   6.374  0.9823 -0.1927  2.0673
15528TIP3    H268076   0.663   3.703   6.424  1.3902 -0.0697  1.8950
15529TIP3   OH268077   2.244   4.946   6.075  0.1320 -0.0789 -0.3505
15529TIP3    H168078   2.265   4.853   6.084  1.0177  0.2337  1.1899
15529TIP3    H268079   2.330   4.990   6.076 -0.3373  0.8744  0.8635
15530TIP3   OH268080   4.427   6.037  14.057 -0.5549 -0.1090  0.3026
15530TIP3    H168081   4.361   5.968  14.063 -0.8906  0.2361  0.6362
15530TIP3    H268082   4.462   6.030  13.968  0.2822 -1.4997  0.7182
15531TIP3   OH268083   4.815   0.878   0.764  0.2379  0.7963  0.0704
15531TIP3    H168084   4.846   0.954   0.715 -0.9099  0.9261 -0.4843
15531TIP3    H268085   4.832   0.804   0.707 -0.2692  0.8481 -0.1578
15532TIP3   OH268086   0.701   3.931   4.444 -0.7501  0.1407  0.0883
15532TIP3    H168087   0.614   3.958   4.476 -0.9208  0.7275 -0.8307
15532TIP3    H268088   0.751   3.915   4.524 -1.1870  1.4851  0.6683
15533TIP3   OH268089   4.535   3.164   1.499  0.3456 -0.5177 -0.4291
15533TIP3    H168090   4.618   3.201   1.529 -1.0966 -0.4329  4.2910
15533TIP3    H268091   4.549   3.069   1.498  0.7475 -0.4592 -0.7201
15534TIP3   OH268092   4.071   2.564   3.824 -0.0445 -0.3633  0.3123
15534TIP3    H168093   4.116   2.545   3.741  0.7862 -0.4055  0.7571
15534TIP3    H268094   4.130   2.529   3.891  0.0812  1.0976  1.0014
15535TIP3   OH268095   4.314   6.339  14.515  0.0712  0.0311 -0.0014
15535TIP3    H168096   4.330   6.434  14.511  1.0949 -0.1807 -1.4856
15535TIP3    H268097   4.307   6.312  14.424 -0.6125 -1.2764  0.4216
15536TIP3   OH268098   0.177   3.088  12.809  0.0102  0.1583 -0.1479
15536TIP3    H168099   0.187   2.993  12.815  0.6068  0.1220 -1.4241
15536TIP3    H268100   0.141   3.114  12.893  0.0354 -1.1783  0.2896
15537TIP3   OH268101   2.170   6.187  14.492 -0.1264  0.2033 -0.4412
15537TIP3    H168102   2.090   6.173  14.442 -1.0340  2.1276  0.3709
15537TIP3    H268103   2.180   6.108  14.544 -2.5146  0.6081  0.7500
15538TIP3   OH268104   3.886   1.346   4.975 -1.0496 -0.3324 -0.1084
15538TIP3    H168105   3.856   1.269   4.926  0.8741 -0.0148 -1.9338
15538TIP3    H268106   3.971   1.319   5.011 -2.3049 -0.4812  3.0262
15539TIP3   OH268107   0.456   5.585   1.013  0.4987 -0.2620 -0.1847
15539TIP3    H168108   0.461   5.545   1.100  1.5266  0.1797 -0.0293
15539TIP3    H268109   0.504   5.667   1.021  0.7239 -0.2794 -1.2066
15540TIP3   OH268110   0.966   2.968   3.063 -0.5408 -0.4452 -0.1250
15540TIP3    H168111   1.010   2.952   3.147 -0.5853  1.1670  0.2359
15540TIP3    H268112   1.014   2.914   3.001  0.8810 -0.0449  0.5695
15541TIP3   OH268113   0.268   6.384   1.864 -0.2610 -0.9814 -0.3285
15541TIP3    H168114   0.275   6.466   1.816 -1.6178 -0.1115  0.9072
15541TIP3    H268115   0.317   6.399   1.945 -1.2068 -1.0868  0.2748
15542TIP3   OH268116   6.361   6.746  14.826 -0.3319  0.3739 -0.2190
15542TIP3    H168117   6.437   6.688  14.835  0.9859  2.2142  1.4132
15542TIP3    H268118   6.286   6.688  14.841  0.7840 -1.2619 -0.5989
15543TIP3   OH268119   2.344   1.960   0.917 -0.5483  0.4435 -0.4008
15543TIP3    H168120   2.305   1.914   0.842  0.8644 -0.9493 -0.3433
15543TIP3    H268121   2.406   1.897   0.953  0.0755  1.7460  0.8804
15544TIP3   OH268122   4.187   0.037  12.193  0.9727 -0.1692 -0.1400
15544TIP3    H168123   4.231   0.094  12.256 -0.7903  0.3151  0.7030
15544TIP3    H268124   4.116  -0.004  12.243 -1.9969  1.9952 -2.2422
15545TIP3   OH268125   3.185   4.607   1.878 -0.1045 -0.2085  0.0925
15545TIP3    H168126   3.269   4.612   1.923 -0.6959 -1.9203  1.4896
15545TIP3    H268127   3.131   4.673   1.921  0.1499  0.0662 -0.0012
15546TIP3   OH268128   6.612   1.361  13.320 -0.3617 -0.2683 -0.1948
15546TIP3    H168129   6.655   1.335  13.239 -0.6581 -0.7989 -0.1892
15546TIP3    H268130   6.519   1.362  13.299 -0.4659 -0.7208  0.2116
15547TIP3   OH268131   4.471   4.106   5.484  0.4609  0.0329 -0.4156
15547TIP3    H168132   4.387   4.063   5.501  0.5947 -0.3401 -0.6845
15547TIP3    H268133   4.513   4.111   5.569  0.7330 -0.9897 -0.4708
15548TIP3   OH268134   2.189   0.240  11.298 -0.3336  0.1225 -0.1756
15548TIP3    H168135   2.244   0.207  11.369 -1.2572 -0.8707  0.1015
15548TIP3    H268136   2.180   0.334  11.316  2.0010  0.5084 -0.7467
15549TIP3   OH268137   1.589   5.383   4.033  0.0301 -0.3541 -0.1392
15549TIP3    H168138   1.659   5.361   4.094 -0.9088  1.2022  1.5968
15549TIP3    H268139   1.518   5.323   4.055 -1.3963  2.0176  2.4958
15550TIP3   OH268140   0.343   4.603  10.984 -0.0350 -0.3456  0.6895
15550TIP3    H168141   0.291   4.606  11.065 -1.4455  0.8337 -0.2244
15550TIP3    H268142   0.279   4.595  10.914  1.0991 -0.0788 -0.4231
15551TIP3   OH268143   0.203   1.054  12.081  0.3411  0.8513 -0.2338
15551TIP3    H168144   0.112   1.042  12.051  1.0400 -0.1672 -2.1021
15551TIP3    H268145   0.221   0.975  12.132  0.7911  0.0482 -1.5851
15552TIP3   OH268146   2.094   6.694   4.966 -0.0598  0.0966  0.0280
15552TIP3    H168147   2.034   6.741   4.908  0.8312  0.8444 -0.3244
15552TIP3    H268148   2.105   6.608   4.925  0.3971  0.5459 -0.8216
15553TIP3   OH268149   5.097   2.529   1.627  0.4030 -0.4267  0.5142
15553TIP3    H168150   5.165   2.461   1.633 -1.1629 -2.1479 -0.4350
15553TIP3    H268151   5.131   2.601   1.681  3.1706 -1.0165 -0.2663
15554TIP3   OH268152   6.388   4.917  14.056  0.3078  0.1584 -0.2292
15554TIP3    H168153   6.419   5.003  14.028  0.3399  0.3100  0.2644
15554TIP3    H268154   6.443   4.855  14.009 -0.0121  0.3992 -0.9361
15555TIP3   OH268155   2.696   5.911  16.686 -0.0448 -0.2419  0.2029
15555TIP3    H168156   2.740   5.975  16.630 -1.3998  0.6444  0.0822
15555TIP3    H268157   2.757   5.895  16.757 -0.2753  2.5419  1.1737
15556TIP3   OH268158   3.161   1.946  13.029 -0.0869  0.3414 -0.0910
15556TIP3    H168159   3.153   1.930  12.935  0.2160  1.5996 -0.3476
15556TIP3    H268160   3.076   1.982  13.055 -0.3262 -0.4285  0.2200
15557TIP3   OH268161   3.302   1.804  11.994 -0.0157 -0.4767  0.0196
15557TIP3    H168162   3.392   1.782  11.970 -0.0396  0.2548 -0.8144
15557TIP3    H268163   3.249   1.738  11.950  0.0013  0.3170 -1.2530
15558TIP3   OH268164   4.265   0.204  15.911 -0.1329  0.4415  0.6969
15558TIP3    H168165   4.278   0.272  15.845  1.4388 -0.3753  0.1174
15558TIP3    H268166   4.184   0.159  15.884 -1.0137  1.8391  0.9117
15559TIP3   OH268167   2.631   3.311  16.830  0.5042 -0.1170  0.1913
15559TIP3    H168168   2.557   3.274  16.780  0.3238  2.0510 -1.2446
15559TIP3    H268169   2.611   3.288  16.921 -0.1901 -2.4409 -0.4573
15560TIP3   OH268170   4.670   2.757   3.542  0.0413  0.3416  0.2273
15560TIP3    H168171   4.635   2.826   3.599  0.0349 -0.8721  1.7310
15560TIP3    H268172   4.658   2.676   3.591 -1.0224 -0.9197 -1.9893
15561TIP3   OH268173   1.685   2.444  11.435  0.1789  0.1617  0.2735
15561TIP3    H168174   1.629   2.396  11.374  0.5934 -1.0116  0.8065
15561TIP3    H268175   1.767   2.396  11.436  1.0206  1.5123 -0.0180
15562TIP3   OH268176   3.683   5.102   4.692 -0.5482 -0.0150  0.3732
15562TIP3    H168177   3.715   5.164   4.757  0.2054 -1.0733  1.0443
15562TIP3    H268178   3.645   5.031   4.744 -0.2482 -0.7088 -0.3431
15563TIP3   OH268179   4.343   2.566  13.011 -0.2748  0.6749  0.4331
15563TIP3    H168180   4.344   2.621  12.933  0.4125 -0.1828 -0.1859
15563TIP3    H268181   4.261   2.517  13.004  0.3131 -0.2235 -0.3633
15564TIP3   OH268182   4.087   2.364  11.672  0.2478 -0.0816 -0.2972
15564TIP3    H168183   4.023   2.313  11.722  1.5022 -2.9315 -1.3469
15564TIP3    H268184   4.162   2.372  11.730  0.4411 -0.4093 -0.4951
15565TIP3   OH268185   0.860   1.055  15.065  0.1398 -0.1948 -0.5714
15565TIP3    H168186   0.779   1.017  15.030 -2.0028  2.0533  1.5513
15565TIP3    H268187   0.846   1.057  15.160  1.7912  2.1883 -0.3014
15566TIP3   OH268188   5.712   3.979   5.782  0.1028 -0.1774 -0.1507
15566TIP3    H168189   5.630   3.973   5.831 -0.5862  1.6117 -0.9731
15566TIP3    H268190   5.752   4.061   5.811  0.3251  0.2504 -1.5429
15567TIP3   OH268191   6.038   1.379   0.932 -0.0806  0.3068 -0.2330
15567TIP3    H168192   6.039   1.464   0.976 -0.8396 -0.4451  1.3111
15567TIP3    H268193   6.115   1.333   0.967  1.2776  0.8942 -2.2790
15568TIP3   OH268194   6.613   0.905  11.632 -0.1866 -0.3981 -0.2225
15568TIP3    H168195   6.560   0.890  11.710 -0.6341  0.5615 -0.3256
15568TIP3    H268196   6.631   0.999  11.633  1.5979 -0.6890 -0.1536
15569TIP3   OH268197   2.934   2.017  15.026 -0.1076 -0.1387  0.0577
15569TIP3    H168198   2.870   1.971  15.080 -0.0177 -0.7051 -0.2968
15569TIP3    H268199   2.889   2.096  14.996 -0.5535 -0.4062  0.0180
15570TIP3   OH268200   2.814   6.556   4.261  0.5354 -0.5602  0.4229
15570TIP3    H168201   2.721   6.534   4.258  0.1602  0.9448 -0.4368
15570TIP3    H268202   2.855   6.484   4.308 -0.9387 -1.6696  0.0680
15571TIP3   OH268203   5.717   2.425   3.017 -0.0508 -0.7682 -0.3016
15571TIP3    H168204   5.657   2.390   3.083 -0.0855  0.1718  0.1925
15571TIP3    H268205   5.801   2.384   3.036  0.7201  1.7089  2.3431
15572TIP3   OH268206   5.005   3.185  12.600  0.2421 -0.0242 -0.2042
15572TIP3    H168207   4.956   3.167  12.681  0.6997 -1.6616 -0.2538
15572TIP3    H268208   4.983   3.275  12.579 -2.9675 -0.7192 -0.3513
15573TIP3   OH268209   0.899   1.964   5.243 -0.4254 -0.5304 -0.2113
15573TIP3    H168210   0.861   2.031   5.300 -0.8145 -0.4133 -0.6109
15573TIP3    H268211   0.923   1.893   5.303 -0.5946 -0.3013  0.1314
15574TIP3   OH268212   0.438   2.273   0.959 -0.7247  0.4987 -0.2496
15574TIP3    H168213   0.426   2.224   1.040 -0.2053 -0.1381 -0.5392
15574TIP3    H268214   0.444   2.364   0.986 -0.8260  0.3198  0.3954
15575TIP3   OH268215   6.071   0.429  12.379 -0.6206  1.1274 -0.2283
15575TIP3    H168216   6.068   0.341  12.340 -0.5114  0.3749  1.3990
15575TIP3    H268217   5.985   0.466  12.359 -0.7864  0.5395 -0.6531
15576TIP3   OH268218   1.730   5.661   3.616  0.0789  0.8162 -0.0983
15576TIP3    H168219   1.710   5.712   3.695 -0.7266  1.2733 -0.5830
15576TIP3    H268220   1.726   5.570   3.645 -0.5132  0.9732  0.3293
15577TIP3   OH268221   2.022   4.289  15.558 -0.5686 -0.0629  0.4374
15577TIP3    H168222   1.971   4.329  15.487 -0.4778  0.0278  0.4234
15577TIP3    H268223   1.986   4.200  15.565 -0.6666 -0.0297  0.3659
15578TIP3   OH268224   4.054   5.463  11.360  0.1851 -0.0491 -0.8419
15578TIP3    H168225   4.000   5.445  11.437 -0.3501 -0.0352 -1.2109
15578TIP3    H268226   4.034   5.553  11.336  0.3624 -0.0478 -0.9896
15579TIP3   OH268227   1.306   1.910   0.406  0.0315  0.0027  0.1231
15579TIP3    H168228   1.244   1.983   0.402  0.2460  0.1427 -0.9750
15579TIP3    H268229   1.303   1.881   0.497 -1.6988 -0.0541  0.0855
15580TIP3   OH268230   6.424   6.217   0.364  0.0159  0.3592 -0.0921
15580TIP3    H168231   6.491   6.199   0.429  0.9564  0.2834 -1.0535
15580TIP3    H268232   6.463   6.190   0.281 -1.5247 -0.4987 -0.5768
15581TIP3   OH268233   3.284   2.631   4.255  0.0993  0.4894  0.1816
15581TIP3    H168234   3.221   2.583   4.309  1.0585  0.1368  1.0249
15581TIP3    H268235   3.243   2.717   4.241 -0.8548  0.0409  0.1316
15582TIP3   OH268236   1.719   2.730   5.639 -0.3342 -0.3851  0.4999
15582TIP3    H168237   1.796   2.788   5.639 -0.2482 -0.4974  0.2231
15582TIP3    H268238   1.649   2.783   5.675 -0.4490  0.1500 -0.4953
15583TIP3   OH268239   3.967   0.844   0.122  0.1138  0.7440  0.3147
15583TIP3    H168240   3.885   0.819   0.080 -0.3802  2.1626  0.3851
15583TIP3    H268241   4.014   0.761   0.133 -0.8425  0.0329 -0.6825
15584TIP3   OH268242   2.909   3.133   1.119  0.1135 -1.0354 -0.5679
15584TIP3    H168243   2.933   3.226   1.120 -2.1208 -0.3830 -1.1015
15584TIP3    H268244   2.969   3.094   1.055  0.2373  0.3162 -1.3305
15585TIP3   OH268245   0.875   5.781  11.771 -0.0457 -0.7000 -0.3355
15585TIP3    H168246   0.785   5.793  11.739 -0.1362 -0.4066  0.0268
15585TIP3    H268247   0.896   5.691  11.747 -0.6062 -0.9278 -0.0118
15586TIP3   OH268248   3.137   0.613   4.309  0.0449  0.1639  1.0067
15586TIP3    H168249   3.171   0.647   4.392 -1.4538 -0.7447  2.0419
15586TIP3    H268250   3.082   0.538   4.335  0.5915 -0.9683 -0.9170
15587TIP3   OH268251   2.485   4.221   1.980 -0.0130  0.3848  0.0696
15587TIP3    H168252   2.394   4.193   1.967 -0.0533 -0.4554  1.8649
15587TIP3    H268253   2.530   4.143   2.010  1.1641  0.9622 -0.1484
15588TIP3   OH268254   2.900   0.531   0.585 -0.2191 -0.0530 -0.3976
15588TIP3    H168255   2.819   0.501   0.544  0.1618  0.4163 -1.5505
15588TIP3    H268256   2.937   0.593   0.522  0.8267  0.0615  0.2958
15589TIP3   OH268257   2.366   6.062   2.274  0.1291  0.1688  0.7068
15589TIP3    H168258   2.346   6.102   2.359 -1.4174 -1.1865  1.0164
15589TIP3    H268259   2.385   5.970   2.294 -0.2696 -0.1736 -0.4064
15590TIP3   OH268260   5.890   5.677   3.502  0.1184 -0.4056 -0.0129
15590TIP3    H168261   5.852   5.602   3.457 -0.1306 -0.3074  0.0294
15590TIP3    H268262   5.963   5.641   3.552  1.0248 -0.3780 -1.2489
15591TIP3   OH268263   6.146   6.481   5.938 -0.6220 -0.1530  0.2454
15591TIP3    H168264   6.231   6.475   5.982 -1.1683  1.7894  1.6919
15591TIP3    H268265   6.163   6.535   5.861 -0.3771 -0.6110 -0.0328
15592TIP3   OH268266   3.356   5.268   5.169 -0.2197  0.4045  0.3798
15592TIP3    H168267   3.377   5.303   5.082  1.2613 -0.1347  0.4928
15592TIP3    H268268   3.391   5.332   5.230 -0.1715  0.1853  0.5843
15593TIP3   OH268269   0.717   5.187   1.999  0.3510 -0.2828  0.2958
15593TIP3    H168270   0.798   5.214   2.042  0.9715 -0.1902 -0.8966
15593TIP3    H268271   0.734   5.097   1.971  0.3955  0.0613 -0.7995
15594TIP3   OH268272   1.943   1.652  15.967 -0.5506 -0.0663  0.2751
15594TIP3    H168273   1.962   1.633  15.875  0.4978 -1.4782  0.7582
15594TIP3    H268274   1.878   1.723  15.963 -0.8387 -0.3714 -1.5460
15595TIP3   OH268275   2.084   5.349  17.113  0.2906  0.0165 -0.3570
15595TIP3    H168276   2.026   5.279  17.141 -1.1467  0.9562 -0.8909
15595TIP3    H268277   2.161   5.340  17.169 -2.3565  1.8472  4.1539
15596TIP3   OH268278   2.750   6.510  16.628 -0.1152  0.3851 -0.4121
15596TIP3    H168279   2.707   6.540  16.708 -1.4354 -2.1514 -0.0752
15596TIP3    H268280   2.843   6.505  16.652 -0.5181 -0.5967  1.0880
15597TIP3   OH268281   0.325   4.561   1.992 -0.1092 -0.2471  0.1908
15597TIP3    H168282   0.370   4.536   2.073  0.2864  0.2897  0.1402
15597TIP3    H268283   0.395   4.587   1.932 -0.5097  1.2913  0.3513
15598TIP3   OH268284   5.367   4.672   1.028 -0.3870 -0.4812 -0.0882
15598TIP3    H168285   5.405   4.711   0.949  0.5829  0.3339  0.7515
15598TIP3    H268286   5.282   4.639   1.000 -0.5687  0.8393 -1.2024
15599TIP3   OH268287   4.141   3.126   3.843 -0.3531 -0.0683 -0.7636
15599TIP3    H168288   4.217   3.175   3.874 -1.1122  1.6213 -1.4813
15599TIP3    H268289   4.166   3.034   3.855  0.9761  0.4536  0.9423
15600TIP3   OH268290   3.865   2.219   3.026  0.2647  1.4804  0.4264
15600TIP3    H168291   3.889   2.166   2.951 -0.3377  1.7213  0.0577
15600TIP3    H268292   3.863   2.158   3.100 -0.6232  0.9566 -0.0302
15601TIP3   OH268293   3.463   5.881  16.008  0.2446 -0.4740  0.1306
15601TIP3    H168294   3.520   5.811  16.040 -0.4627 -0.8945  0.4946
15601TIP3    H268295   3.419   5.844  15.932 -0.9474 -0.8396  0.9591
15602TIP3   OH268296   4.960   1.590  13.018  0.3161  0.0858  0.2886
15602TIP3    H168297   4.983   1.514  12.965 -0.2988 -1.4127  2.0717
15602TIP3    H268298   4.885   1.562  13.069  1.3784  1.1476  2.5676
15603TIP3   OH268299   3.615   0.557  17.035  0.0779 -1.2156  0.5216
15603TIP3    H168300   3.620   0.563  17.130 -0.5475  1.0537  0.4828
15603TIP3    H268301   3.522   0.571  17.015  0.5271  0.6478 -0.4822
15604TIP3   OH268302   0.608   5.229   3.197  0.3647  0.5247  0.0796
15604TIP3    H168303   0.516   5.241   3.220  0.2234  0.4799 -0.4561
15604TIP3    H268304   0.645   5.178   3.270 -0.3905 -0.7951 -0.4323
15605TIP3   OH268305   5.669   2.805   3.788  0.5155  0.1258 -0.3360
15605TIP3    H168306   5.726   2.774   3.717  1.6672 -0.6306  0.8833
15605TIP3    H268307   5.714   2.881   3.824  0.5839 -0.2471  0.3874
15606TIP3   OH268308   2.145   4.722   0.827  0.1106 -0.0185  0.1234
15606TIP3    H168309   2.232   4.761   0.828 -0.2990  0.9012  0.9315
15606TIP3    H268310   2.159   4.632   0.796  1.7069 -0.7308  2.6901
15607TIP3   OH268311   0.161   3.075  12.179  0.1584  0.2365 -0.1057
15607TIP3    H168312   0.169   3.154  12.233 -0.1890 -0.1923  0.5751
15607TIP3    H268313   0.142   3.109  12.091  0.3489  0.9229  0.1088
15608TIP3   OH268314   2.890   6.272   1.304 -0.2721  0.1416  0.2709
15608TIP3    H168315   2.797   6.286   1.322 -0.5955 -1.6761  0.2946
15608TIP3    H268316   2.933   6.353   1.330 -2.1788  2.2950 -2.7011
15609TIP3   OH268317   6.697   2.323   4.552 -0.3634 -0.0331  0.5469
15609TIP3    H168318   6.657   2.263   4.615  0.3644 -0.2916  0.7756
15609TIP3    H268319   6.737   2.265   4.487  1.4388  0.1373  1.4369
15610TIP3   OH268320   4.052   3.201  12.730 -0.0177  0.0457 -0.4067
15610TIP3    H168321   4.109   3.234  12.661 -0.1791 -1.4849 -1.3231
15610TIP3    H268322   4.079   3.110  12.742  0.4114  0.4422  2.0077
15611TIP3   OH268323   0.583   2.474  11.340 -0.0355  0.4958 -0.0833
15611TIP3    H168324   0.654   2.538  11.338  0.7701 -0.3990 -1.6472
15611TIP3    H268325   0.521   2.510  11.404  2.4597  0.5895  2.4788
15612TIP3   OH268326   3.071   6.311   5.215 -0.3791 -0.3200  0.4922
15612TIP3    H168327   3.076   6.291   5.309 -0.3682  0.7687  0.7342
15612TIP3    H268328   3.076   6.225   5.172  1.6518 -0.7107  1.3946
15613TIP3   OH268329   1.333   2.997  14.763 -0.4817 -0.0152 -0.0566
15613TIP3    H168330   1.305   2.907  14.746 -2.5380  0.3597  1.0596
15613TIP3    H268331   1.251   3.047  14.770  0.4819  1.3863  2.3289
15614TIP3   OH268332   2.483   6.352   1.491  0.3041 -0.1616 -0.6599
15614TIP3    H168333   2.528   6.433   1.518  0.0587 -0.1692 -0.2200
15614TIP3    H268334   2.476   6.301   1.571  1.6320 -1.2178 -1.1679
15615TIP3   OH268335   6.786   4.556   3.185  0.1071 -0.3544  0.0563
15615TIP3    H168336   6.721   4.496   3.149 -0.2714  0.2677 -0.3048
15615TIP3    H268337   6.859   4.552   3.124  0.0566 -0.4024 -0.0018
15616TIP3   OH268338   2.470   4.608  13.417 -0.2393 -0.2734 -0.0476
15616TIP3    H168339   2.514   4.610  13.502 -2.2785 -0.2316  1.0739
15616TIP3    H268340   2.505   4.683  13.370  1.8716 -1.0319  0.2083
15617TIP3   OH268341   3.255   4.427  13.352 -0.1468 -0.1390  0.0788
15617TIP3    H168342   3.318   4.500  13.347 -0.8634  0.5974  1.2517
15617TIP3    H268343   3.215   4.437  13.438 -0.0613 -2.1179  0.3789
15618TIP3   OH268344   0.485   6.037  14.351 -0.0156  0.6547 -0.1669
15618TIP3    H168345   0.579   6.050  14.364  0.1035  0.1517 -0.4728
15618TIP3    H268346   0.474   6.039  14.256 -0.1255 -0.4873 -0.1889
15619TIP3   OH268347   5.991   1.139  12.652  0.2914  0.5241  0.2165
15619TIP3    H168348   5.959   1.224  12.681 -3.0691  0.0687 -1.6215
15619TIP3    H268349   5.933   1.076  12.696 -0.2198 -0.4950 -1.7884
15620TIP3   OH268350   5.864   5.056  14.669 -0.3056 -0.4621 -0.1224
15620TIP3    H168351   5.944   5.055  14.722 -0.2268  3.1028  0.0729
15620TIP3    H268352   5.795   5.031  14.730  0.3326 -1.0727  0.3743
15621TIP3   OH268353   3.462   3.783   5.441  0.4688  0.1580 -0.4665
15621TIP3    H168354   3.479   3.876   5.446 -0.8123  0.3506  0.8621
15621TIP3    H268355   3.461   3.764   5.347  0.5694  1.5100 -0.7574
15622TIP3   OH268356   5.092   3.346  15.553 -0.1962 -0.0645  0.0200
15622TIP3    H168357   5.132   3.334  15.467  0.6310  1.5313  0.1485
15622TIP3    H268358   5.003   3.373  15.535 -0.5221 -1.2657 -0.2916
15623TIP3   OH268359   0.366   5.071  16.412 -0.5941 -0.6125 -0.3004
15623TIP3    H168360   0.335   5.070  16.322 -2.3386 -1.7370  0.2492
15623TIP3    H268361   0.321   5.145  16.453 -0.0741 -0.3111 -0.2666
15624TIP3   OH268362   6.784   3.489   0.971  0.6031  0.1067 -0.2975
15624TIP3    H168363   6.830   3.405   0.959 -1.1931 -1.1013  0.8249
15624TIP3    H268364   6.699   3.465   1.007  0.1677  2.4611  0.4244
15625TIP3   OH268365   6.555   2.463  11.824 -0.5816  0.2234  0.0244
15625TIP3    H168366   6.535   2.371  11.841 -0.3173  0.6869  3.3784
15625TIP3    H268367   6.585   2.497  11.908 -0.4724  3.3504 -1.1750
15626TIP3   OH268368   2.216   6.427  11.365 -0.0803 -0.0927  0.5486
15626TIP3    H168369   2.193   6.364  11.296  1.3143 -1.4963  1.2940
15626TIP3    H268370   2.285   6.480  11.327 -1.1055  0.8908 -0.0040
15627TIP3   OH268371   1.802   2.648  16.709 -0.1445 -0.3437 -0.2371
15627TIP3    H168372   1.814   2.598  16.789  2.7075  1.1113  0.3698
15627TIP3    H268373   1.736   2.714  16.731 -0.3183 -0.7450  0.4698
15628TIP3   OH268374   5.435   2.140  13.722  0.2091  0.1799  0.2091
15628TIP3    H168375   5.508   2.079  13.735 -2.1937 -2.4662  2.6352
15628TIP3    H268376   5.370   2.090  13.674 -1.0697  1.5410  0.4477
15629TIP3   OH268377   4.141   3.913  14.123 -0.4987 -0.2853 -0.0290
15629TIP3    H168378   4.189   3.905  14.041 -0.6613 -0.9041 -0.0720
15629TIP3    H268379   4.053   3.879  14.103 -0.0659 -1.9986  0.8023
15630TIP3   OH268380   5.697   3.477  14.571  0.7255  0.4713 -0.6067
15630TIP3    H168381   5.744   3.395  14.584  1.3096  0.8788 -0.0456
15630TIP3    H268382   5.762   3.545  14.589  0.3399  1.0657 -1.3815
15631TIP3   OH268383   1.500   0.336   4.590 -0.2626 -0.5807  0.5261
15631TIP3    H168384   1.581   0.313   4.544 -1.6724 -3.1274 -0.9358
15631TIP3    H268385   1.509   0.295   4.676  0.2790 -0.2378  0.6369
15632TIP3   OH268386   5.550   2.915  16.487  0.1613  0.0720  0.3709
15632TIP3    H168387   5.480   2.861  16.522 -1.4590  0.1291 -2.5122
15632TIP3    H268388   5.621   2.854  16.469 -0.4816 -0.5958  0.0498
15633TIP3   OH268389   6.701   4.739  16.012 -0.1603  0.4549 -0.0647
15633TIP3    H168390   6.702   4.809  15.947 -2.4361  1.5824  0.9747
15633TIP3    H268391   6.752   4.668  15.973 -0.8395  1.3471 -2.7494
15634TIP3   OH268392   4.570   2.811  11.909 -0.3769 -0.2325  0.1571
15634TIP3    H168393   4.640   2.769  11.859 -1.3598  0.0949 -1.5966
15634TIP3    H268394   4.533   2.876  11.849 -2.4848 -0.7194  0.8228
15635TIP3   OH268395   5.121   1.871   1.525 -0.2965 -0.2147  0.3388
15635TIP3    H168396   5.128   1.855   1.619 -1.7359 -0.9835  0.3422
15635TIP3    H268397   5.057   1.942   1.517 -0.5947 -0.5218 -0.0730
15636TIP3   OH268398   1.707   6.350  15.392 -0.2732 -0.3187 -0.6823
15636TIP3    H168399   1.766   6.337  15.467  0.4012 -0.5716 -1.2529
15636TIP3    H268400   1.763   6.343  15.315 -1.1830 -1.4549 -1.2839
15637TIP3   OH268401   6.696   4.744   1.488 -0.5029  0.1429  0.0131
15637TIP3    H168402   6.652   4.696   1.418  0.1161 -0.4227 -0.0002
15637TIP3    H268403   6.755   4.803   1.443 -1.1558  0.8221  0.0335
15638TIP3   OH268404   2.582   2.961  15.887  0.4185  0.1372  0.2371
15638TIP3    H168405   2.535   2.939  15.968 -0.4757  1.1863  0.0326
15638TIP3    H268406   2.579   2.880  15.835  0.7223 -0.4489  1.1082
15639TIP3   OH268407   3.879   3.524  13.416  0.1431 -0.2493 -0.1411
15639TIP3    H168408   3.973   3.536  13.425  0.3029 -1.0975 -0.6035
15639TIP3    H268409   3.868   3.430  13.398 -0.8643 -0.3943  1.0324
15640TIP3   OH268410   6.439   0.495  16.980  0.2896  0.0774 -0.2574
15640TIP3    H168411   6.445   0.424  16.916  1.1991  0.6819 -0.8631
15640TIP3    H268412   6.424   0.574  16.928  1.0524  0.5823  0.2649
15641TIP3   OH268413   5.501   1.385  12.930 -0.0081  0.4289 -0.1713
15641TIP3    H168414   5.478   1.477  12.945 -0.9198  0.1463  0.2035
15641TIP3    H268415   5.587   1.389  12.888 -0.3242  1.4811 -0.7683
15642TIP3   OH268416   0.596   5.556  11.144  0.0250 -0.2743 -0.1731
15642TIP3    H168417   0.670   5.572  11.085  0.3413 -0.2409  0.2212
15642TIP3    H268418   0.562   5.471  11.117  1.6688 -1.4109  1.1066
15643TIP3   OH268419   4.948   5.308   4.921 -0.0575  0.4065  0.2687
15643TIP3    H168420   4.902   5.227   4.943  0.1335  0.7190  1.9449
15643TIP3    H268421   4.999   5.329   4.999  2.6918  0.2785 -1.3717
15644TIP3   OH268422   2.745   5.282  13.624 -0.2509  0.1623 -0.0609
15644TIP3    H168423   2.840   5.288  13.609 -0.1850 -1.1305 -0.2478
15644TIP3    H268424   2.707   5.280  13.536 -0.6648  2.8128 -0.0479
15645TIP3   OH268425   6.796   5.092   2.545  0.1929  0.0315 -0.3295
15645TIP3    H168426   6.804   5.157   2.476 -0.0914  0.6378  0.1944
15645TIP3    H268427   6.882   5.050   2.549 -0.2786 -1.2187 -2.1948
15646TIP3   OH268428   5.295   3.543  14.087  0.1812  0.9898 -0.1061
15646TIP3    H168429   5.324   3.533  13.997 -0.6362 -2.6086 -0.1522
15646TIP3    H268430   5.204   3.573  14.080  0.1272  0.7436 -0.5031
15647TIP3   OH268431   5.588   5.207  12.518 -0.1890  0.2172  0.2930
15647TIP3    H168432   5.524   5.142  12.547  0.8695 -0.5378  1.0454
15647TIP3    H268433   5.666   5.188  12.571  0.2727  1.8652  0.2500
15648TIP3   OH268434   5.155   5.479  15.971  0.1596  0.2663 -0.2344
15648TIP3    H168435   5.160   5.470  15.876  0.0505 -0.5576 -0.1665
15648TIP3    H268436   5.214   5.412  16.005 -0.3043  0.1123  0.2876
15649TIP3   OH268437   3.391   3.536   3.392 -0.1339 -0.0526  0.3812
15649TIP3    H168438   3.426   3.547   3.304  2.8589  0.7447  1.5232
15649TIP3    H268439   3.305   3.496   3.380  1.6000 -3.4243 -2.7429
15650TIP3   OH268440   1.272   4.404  16.367 -0.3358  0.5581  0.0453
15650TIP3    H168441   1.203   4.400  16.433 -0.1953  0.0761  0.1653
15650TIP3    H268442   1.353   4.389  16.417  0.0839  3.0427  0.2434
15651TIP3   OH268443   4.912   5.399   0.939 -0.5331 -0.0329  0.3408
15651TIP3    H168444   4.915   5.371   0.848 -0.1422  2.0122 -0.3265
15651TIP3    H268445   4.826   5.440   0.949 -0.1456  0.7337  0.5723
15652TIP3   OH268446   3.271   1.223   0.136  0.1196 -0.1713 -0.1690
15652TIP3    H168447   3.295   1.310   0.169 -0.0937  0.1995 -0.9411
15652TIP3    H268448   3.339   1.165   0.170 -0.2626  0.1322  1.1293
15653TIP3   OH268449   5.599   3.432  16.062 -0.2407  0.3916  0.4460
15653TIP3    H168450   5.631   3.432  15.972 -0.2424 -1.2325  0.4097
15653TIP3    H268451   5.674   3.402  16.114 -0.3771  0.8712  0.9264
15654TIP3   OH268452   6.277   1.655   0.499 -0.3821  0.6162 -0.1613
15654TIP3    H168453   6.196   1.621   0.462  0.0436 -0.9217  0.2415
15654TIP3    H268454   6.314   1.709   0.429 -2.1464  2.0732 -0.0391
15655TIP3   OH268455   0.272   3.692   4.819 -0.2375  0.2329 -0.5012
15655TIP3    H168456   0.299   3.744   4.743 -0.2244  1.5819  0.3758
15655TIP3    H268457   0.306   3.741   4.894 -0.6075 -0.8445  0.3976
15656TIP3   OH268458   6.067   1.498   2.043 -0.4272 -0.5344  0.6383
15656TIP3    H168459   6.154   1.469   2.071  0.7406 -0.2835 -2.3359
15656TIP3    H268460   6.061   1.589   2.074  1.0050 -0.0872 -0.2819
15657TIP3   OH268461   2.306   6.282  16.072  0.5406 -0.0935 -0.3232
15657TIP3    H168462   2.304   6.290  15.977  0.2220  0.5634 -0.2692
15657TIP3    H268463   2.391   6.241  16.091  1.2587  1.0948 -0.8143
15658TIP3   OH268464   4.019   1.075  15.863 -0.3637 -0.2227  0.3173
15658TIP3    H168465   4.028   1.087  15.769 -0.4285 -0.6818  0.2499
15658TIP3    H268466   4.083   1.134  15.902  1.8452 -2.1929 -0.0945
15659TIP3   OH268467   5.226   5.409   3.602 -0.5336  0.5174 -0.8126
15659TIP3    H168468   5.248   5.317   3.612 -0.1025  0.6936 -0.0591
15659TIP3    H268469   5.234   5.446   3.690 -1.1963  1.1675 -1.0134
15660TIP3   OH268470   2.839   3.478   5.568  0.0232 -0.3868  0.1524
15660TIP3    H168471   2.907   3.436   5.620 -0.6243 -0.5406  0.8879
15660TIP3    H268472   2.797   3.406   5.520  0.2526 -0.3150 -0.1601
15661TIP3   OH268473   5.988   3.304   3.488 -0.4368  0.3216 -0.6545
15661TIP3    H168474   5.897   3.315   3.459 -0.9799 -3.2214 -0.7244
15661TIP3    H268475   5.981   3.290   3.583 -0.3220 -2.0243 -0.9215
15662TIP3   OH268476   1.514   0.276  14.591 -0.8046 -0.0796  0.1529
15662TIP3    H168477   1.508   0.283  14.495  0.7846 -0.4668 -0.0145
15662TIP3    H268478   1.605   0.300  14.610 -1.2954  0.6701  1.6507
15663TIP3   OH268479   2.287   0.724   5.631 -0.2696 -0.4814 -0.6591
15663TIP3    H168480   2.282   0.684   5.718  3.0758  2.4807  1.1795
15663TIP3    H268481   2.204   0.771   5.622 -0.4478 -0.3120  1.2886
15664TIP3   OH268482   0.354   2.866   1.184 -0.1140  0.0425 -0.0509
15664TIP3    H168483   0.401   2.945   1.209 -0.4363  0.2658 -0.1481
15664TIP3    H268484   0.299   2.845   1.260 -0.8723  0.5539 -0.4409
15665TIP3   OH268485   2.520   0.253   3.868  0.4808 -0.1630 -0.2437
15665TIP3    H168486   2.505   0.164   3.899  0.4791 -0.4738 -1.1097
15665TIP3    H268487   2.504   0.309   3.945 -1.5147 -0.7421 -0.1792
15666TIP3   OH268488   5.954   2.074   3.410  0.4862  0.4523 -0.7235
15666TIP3    H168489   6.028   2.032   3.368  0.7565 -0.4620  0.5816
15666TIP3    H268490   5.966   2.056   3.504 -1.1331  0.6568 -0.4327
15667TIP3   OH268491   2.566   4.686   4.359 -0.5486  0.2295  0.1033
15667TIP3    H168492   2.652   4.726   4.349 -0.7489  0.2536 -1.9092
15667TIP3    H268493   2.562   4.660   4.451  0.7208  2.2254  0.7807
15668TIP3   OH268494   4.054   2.557  14.786 -0.1277 -0.2029  0.2249
15668TIP3    H168495   4.030   2.581  14.697 -1.8152 -0.9500  0.4505
15668TIP3    H268496   4.028   2.465  14.794  1.7166 -0.7150  0.9125
15669TIP3   OH268497   5.875   4.481   1.082 -0.1002 -0.0087  0.9510
15669TIP3    H168498   5.791   4.438   1.096 -0.2423 -0.1520 -0.2165
15669TIP3    H268499   5.879   4.549   1.149 -2.2100  1.5430 -0.3606
15670TIP3   OH268500   3.882   3.230  14.982  0.0277 -0.0626  0.8525
15670TIP3    H168501   3.880   3.319  15.018 -0.4059 -0.2192  1.2191
15670TIP3    H268502   3.822   3.180  15.037 -0.2353 -0.4343  0.2351
15671TIP3   OH268503   5.319   6.373  12.208 -0.4627  0.5154 -0.0427
15671TIP3    H168504   5.313   6.449  12.267  0.2342  0.1145  0.5660
15671TIP3    H268505   5.298   6.298  12.264 -0.8925  0.2282 -0.5796
15672TIP3   OH268506   4.473   2.562   4.835 -0.4347 -0.1368 -0.3306
15672TIP3    H168507   4.404   2.607   4.786 -1.3344 -1.8127 -0.6811
15672TIP3    H268508   4.527   2.520   4.769 -1.4318 -2.0971  0.0300
15673TIP3   OH268509   4.788   6.753  10.775 -0.2614  0.1880 -0.4595
15673TIP3    H168510   4.726   6.709  10.717 -0.6050 -0.9341  0.7198
15673TIP3    H268511   4.858   6.782  10.717 -1.1341  0.0974 -1.5896
15674TIP3   OH268512   4.207   0.653  16.932 -0.1340 -0.4547 -0.5754
15674TIP3    H168513   4.194   0.746  16.911 -0.2609 -0.1204  0.8790
15674TIP3    H268514   4.190   0.608  16.849  1.7624  0.9209 -1.8007
15675TIP3   OH268515   6.493   2.097  11.372 -0.3755  0.1962 -0.9182
15675TIP3    H168516   6.428   2.071  11.307 -1.5601  1.8052 -0.4437
15675TIP3    H268517   6.485   2.193  11.376  1.0236  0.2906  0.2032
15676TIP3   OH268518   0.630   4.567  14.093 -0.3385 -0.0529  0.0017
15676TIP3    H168519   0.544   4.551  14.132 -0.2769 -0.1517  0.0971
15676TIP3    H268520   0.650   4.658  14.115 -0.7384  0.1977 -0.6397
15677TIP3   OH268521   5.607   6.132   4.022  0.1918  0.1683 -0.1354
15677TIP3    H168522   5.571   6.090   4.100 -0.6174  0.2344 -0.4650
15677TIP3    H268523   5.681   6.076   3.997  1.0838  0.6683  1.2244
15678TIP3   OH268524   5.543   5.199   3.771 -0.0859  0.5188 -0.6547
15678TIP3    H168525   5.565   5.160   3.855  1.0769 -0.0307 -1.2046
15678TIP3    H268526   5.605   5.271   3.761  0.4860 -0.0726 -1.5056
15679TIP3   OH268527   6.030   1.464  14.222  0.0739 -0.0465 -0.2277
15679TIP3    H168528   5.961   1.452  14.288  0.0961 -0.4575 -0.2756
15679TIP3    H268529   5.989   1.436  14.140  0.6589 -1.4196 -0.0705
15680TIP3   OH268530   3.128   0.355   2.727 -0.6001  0.1155  0.0365
15680TIP3    H168531   3.039   0.339   2.695  0.3117 -2.6153 -1.5381
15680TIP3    H268532   3.175   0.390   2.651 -0.0563  0.3791  0.4876
15681TIP3   OH268533   5.324   5.427  14.466 -0.7282  0.2160 -0.4870
15681TIP3    H168534   5.325   5.355  14.402  2.9914 -1.3390  1.0442
15681TIP3    H268535   5.243   5.413  14.516 -1.1089 -1.6958 -1.5553
15682TIP3   OH268536   0.655   4.957   2.677  0.0519  0.2028 -0.0894
15682TIP3    H168537   0.600   4.882   2.700 -0.9604  1.0425  0.3209
15682TIP3    H268538   0.600   5.009   2.618  1.6408 -0.6052 -2.4243
15683TIP3   OH268539   5.310   0.105   3.340  0.4952  0.1488  0.3977
15683TIP3    H168540   5.291   0.035   3.276 -1.2326 -0.3291  1.3975
15683TIP3    H268541   5.368   0.165   3.292 -1.2372  0.1502 -1.8659
15684TIP3   OH268542   3.269   1.816  13.861 -0.6014  0.4006 -0.7118
15684TIP3    H168543   3.316   1.894  13.892  0.9230  0.0123 -1.9530
15684TIP3    H268544   3.178   1.832  13.886  0.1222  1.2206  1.6896
15685TIP3   OH268545   6.481   5.019   2.344 -0.3679 -0.4667 -0.5865
15685TIP3    H168546   6.508   5.092   2.288 -0.4925  1.2681  1.4580
15685TIP3    H268547   6.556   5.004   2.402 -1.0128 -0.6754  0.2196
15686TIP3   OH268548   6.188   4.173   3.604  0.3939 -0.1922 -0.0919
15686TIP3    H168549   6.210   4.218   3.523 -0.0636  3.6003  1.6744
15686TIP3    H268550   6.263   4.116   3.622  1.0158 -0.2164 -2.5231
15687TIP3   OH268551   2.617   3.261  15.978 -0.0229  0.0552 -0.0008
15687TIP3    H168552   2.672   3.182  15.978  1.3615  0.9661 -1.6738
15687TIP3    H268553   2.563   3.252  15.899  0.8249  1.1983 -0.7343
15688TIP3   OH268554   3.324   3.387  11.524  0.1761 -0.2121  0.0877
15688TIP3    H168555   3.387   3.415  11.590 -0.8070 -0.7038  1.2791
15688TIP3    H268556   3.241   3.380  11.572 -0.2309 -2.2330 -0.8189
15689TIP3   OH268557   6.084   5.138  11.484 -0.1891  0.5486 -0.3564
15689TIP3    H168558   6.020   5.107  11.547  0.9373 -1.4035 -0.0823
15689TIP3    H268559   6.162   5.158  11.537  0.8530 -1.3446 -1.0783
15690TIP3   OH268560   4.218   0.692  14.157  0.5208  0.5989  0.1010
15690TIP3    H168561   4.140   0.637  14.158 -2.7430  4.7656  0.1454
15690TIP3    H268562   4.244   0.699  14.249  0.3117  0.0955  0.2037
15691TIP3   OH268563   0.315   3.060   1.477  0.0472  0.2393  0.3871
15691TIP3    H168564   0.342   3.025   1.562  1.6478 -0.4022 -0.3691
15691TIP3    H268565   0.381   3.126   1.456 -2.4708  3.3796  1.4282
15692TIP3   OH268566   2.960   2.600   2.277  0.4254 -0.3467 -0.6327
15692TIP3    H168567   2.902   2.592   2.201 -0.2936  1.3454 -0.2902
15692TIP3    H268568   3.024   2.667   2.251  1.7809 -1.6121 -0.6967
15693TIP3   OH268569   4.869   3.161   4.296  0.9444 -0.0260  0.2511
15693TIP3    H168570   4.884   3.243   4.344 -0.9873  0.1477  0.6367
15693TIP3    H268571   4.902   3.092   4.353  0.3442  0.3172  1.0232
15694TIP3   OH268572   0.327   2.845   2.292 -0.3683  0.6682  0.8407
15694TIP3    H168573   0.324   2.861   2.387  2.1003  1.6609  0.8139
15694TIP3    H268574   0.291   2.925   2.254 -1.8910  0.0481  0.8935
15695TIP3   OH268575   5.971   6.541  13.150 -0.5445  0.2358 -0.2936
15695TIP3    H168576   6.023   6.597  13.092 -0.2469  0.3135  0.0434
15695TIP3    H268577   5.970   6.588  13.233 -0.3345 -0.2356 -0.0222
15696TIP3   OH268578   1.477   6.449   0.981 -0.2101  0.3977 -0.2111
15696TIP3    H168579   1.450   6.528   0.934 -0.3237  1.2277  1.1633
15696TIP3    H268580   1.458   6.469   1.073 -0.3628 -1.2991  0.1592
15697TIP3   OH268581   1.153   4.381   2.956  0.1238 -0.0142  0.1008
15697TIP3    H168582   1.092   4.455   2.948 -0.3400 -0.3312  0.6895
15697TIP3    H268583   1.239   4.423   2.961  0.1905  0.3827 -2.7798
15698TIP3   OH268584   2.145   0.932   2.361 -0.3227  0.2057  0.3210
15698TIP3    H168585   2.138   0.861   2.297  0.2792  0.0262  0.4546
15698TIP3    H268586   2.109   0.896   2.442 -2.3750  0.8600 -0.2222
15699TIP3   OH268587   2.428   6.084   3.389 -0.5734 -1.1573  0.5197
15699TIP3    H168588   2.340   6.114   3.415 -0.7951 -1.4369  0.1098
15699TIP3    H268589   2.414   5.995   3.356 -0.3023 -0.8360 -0.5051
15700TIP3   OH268590   2.710   5.086  16.585  0.2979 -0.5885 -0.1320
15700TIP3    H168591   2.788   5.051  16.542 -0.6566 -1.8027 -0.9366
15700TIP3    H268592   2.658   5.124  16.514 -0.3772 -0.8449  0.2050
15701TIP3   OH268593   2.821   3.422   4.072 -0.2720 -0.0444  0.1470
15701TIP3    H168594   2.861   3.407   4.157 -0.6226 -1.4242  0.0890
15701TIP3    H268595   2.762   3.348   4.059  0.9952 -0.7813 -2.0186
15702TIP3   OH268596   6.445   5.942  16.372  0.4258  0.0286  0.5390
15702TIP3    H168597   6.409   6.030  16.378 -1.3660 -0.6365  0.2156
15702TIP3    H268598   6.535   5.955  16.343 -0.0255  1.7174 -0.2368
15703TIP3   OH268599   0.081   1.718   3.077  0.2253 -0.2946  0.0942
15703TIP3    H168600   0.048   1.670   3.001 -0.8917  0.3498  0.1521
15703TIP3    H268601   0.011   1.780   3.099  0.8573  0.0712  1.1660
15704TIP3   OH268602   0.074   3.069  13.068  0.0107 -0.5434  0.3727
15704TIP3    H168603   0.038   3.088  13.155 -0.5717 -0.6153  0.1534
15704TIP3    H268604   0.039   2.982  13.047 -1.5467  0.3078 -0.7903
15705TIP3   OH268605   1.993   1.073  16.247 -0.4284  0.0573  0.1719
15705TIP3    H168606   1.974   0.980  16.236  1.5642 -0.2696 -1.0708
15705TIP3    H268607   1.951   1.115  16.172  0.3425 -0.1199 -0.3650
15706TIP3   OH268608   6.224   6.499   2.711 -0.0149 -0.0429  0.3930
15706TIP3    H168609   6.234   6.469   2.620  0.9459  0.4152  0.3307
15706TIP3    H268610   6.314   6.509   2.743 -0.2657 -2.9792  2.3729
15707TIP3   OH268611   6.132   1.759  14.762 -0.2785  0.3304 -0.2939
15707TIP3    H168612   6.200   1.692  14.763  0.4573  1.0422 -0.8609
15707TIP3    H268613   6.090   1.749  14.676 -0.8745 -0.0802  0.0371
15708TIP3   OH268614   6.012   4.743  12.122 -0.1148  0.2800 -0.1924
15708TIP3    H168615   6.054   4.799  12.056 -0.1426 -1.1835 -1.5279
15708TIP3    H268616   5.923   4.777  12.129  0.0929  0.8859 -0.4061
15709TIP3   OH268617   0.334   2.053  13.588 -0.3886 -0.2960 -0.1138
15709TIP3    H168618   0.417   2.056  13.542 -0.1774 -0.8477  0.2229
15709TIP3    H268619   0.343   1.979  13.649 -0.3436  0.9096  1.3997
15710TIP3   OH268620   2.651   3.146   6.405  0.4084  0.5681  0.4140
15710TIP3    H168621   2.606   3.084   6.462  1.3807 -0.5087  0.0469
15710TIP3    H268622   2.708   3.092   6.350  0.0965  1.6432 -1.0434
15711TIP3   OH268623   5.223   3.040  12.537  0.2396 -0.5201  0.2452
15711TIP3    H168624   5.286   3.112  12.531  0.8635 -1.1838 -3.8566
15711TIP3    H268625   5.139   3.082  12.552  0.7304  1.0428 -1.0940
15712TIP3   OH268626   4.700   6.037   0.475  0.2172 -0.0051 -0.3287
15712TIP3    H168627   4.647   6.072   0.404 -1.3635 -1.5947 -0.0149
15712TIP3    H268628   4.741   5.959   0.438  1.1759  0.3922 -0.1285
15713TIP3   OH268629   3.482   1.300   5.357 -0.3163  0.4537 -0.0239
15713TIP3    H168630   3.556   1.271   5.305  0.3033 -0.7020  1.4180
15713TIP3    H268631   3.405   1.278   5.303  0.2637 -1.3398 -0.2066
15714TIP3   OH268632   2.174   4.091  13.632  0.3039 -0.2148  0.2613
15714TIP3    H168633   2.128   4.066  13.712  0.6820 -2.9598 -0.2972
15714TIP3    H268634   2.256   4.042  13.634  0.0513 -0.8517 -2.0639
15715TIP3   OH268635   6.522   5.752   0.842  0.0623 -0.4573  0.1868
15715TIP3    H168636   6.475   5.817   0.791 -1.4671  0.5653  2.6782
15715TIP3    H268637   6.453   5.706   0.891  1.4699 -0.4061  2.3586
15716TIP3   OH268638   0.464   5.607   4.495  0.5603 -0.0679  0.3146
15716TIP3    H168639   0.409   5.655   4.557  1.7983  0.1636  1.2725
15716TIP3    H268640   0.455   5.516   4.521 -0.4898 -0.2009 -0.4565
15717TIP3   OH268641   1.335   0.344  12.735 -0.0761 -0.0791 -0.2237
15717TIP3    H168642   1.428   0.359  12.752 -0.2500  2.3962 -1.0593
15717TIP3    H268643   1.292   0.368  12.817  0.0402 -2.0843  0.4614
15718TIP3   OH268644   4.414   6.582  12.361 -0.0159 -0.7397 -0.2060
15718TIP3    H168645   4.359   6.657  12.382 -0.7311 -1.6510  1.4037
15718TIP3    H268646   4.504   6.614  12.374 -0.3461 -0.7629  3.0673
15719TIP3   OH268647   4.753   3.629  15.148  0.4904  0.0533  0.3601
15719TIP3    H168648   4.823   3.584  15.195  0.4220 -1.2993 -0.7335
15719TIP3    H268649   4.731   3.569  15.076 -1.0590  0.9244  0.0552
15720TIP3   OH268650   4.458   4.522  12.737 -0.6962 -0.7465  0.0150
15720TIP3    H168651   4.546   4.558  12.755 -0.2308 -0.9606 -1.6383
15720TIP3    H268652   4.426   4.493  12.822  0.2484  0.6311  0.8915
15721TIP3   OH268653   5.275   3.143   2.261 -0.3716 -0.2541 -0.0477
15721TIP3    H168654   5.297   3.217   2.317 -1.8258  0.2077 -0.0317
15721TIP3    H268655   5.356   3.093   2.253  0.8750  1.7741 -0.7559
15722TIP3   OH268656   6.534   6.454  16.837 -0.1873 -0.1060  0.0703
15722TIP3    H168657   6.495   6.460  16.750  1.0426  1.4333 -0.4148
15722TIP3    H268658   6.625   6.431  16.821 -0.0996 -0.4719  1.0022
15723TIP3   OH268659   1.419   4.843  14.093 -0.6816 -0.8978 -0.4950
15723TIP3    H168660   1.470   4.856  14.173 -1.2896 -0.6384 -0.1444
15723TIP3    H268661   1.484   4.817  14.027  0.2312  1.3252 -0.5642
15724TIP3   OH268662   3.565   5.130   5.724 -0.5385 -0.0768  0.1053
15724TIP3    H168663   3.481   5.162   5.690 -1.5106 -2.6695 -0.2160
15724TIP3    H268664   3.542   5.087   5.807  1.1540  2.5118  2.0595
15725TIP3   OH268665   6.480   0.576   1.995 -0.0095  0.5865 -0.2041
15725TIP3    H168666   6.475   0.485   1.965 -0.8063  1.3664 -2.6764
15725TIP3    H268667   6.572   0.588   2.019  0.2844 -0.6458 -0.6286
15726TIP3   OH268668   1.395   1.547   4.493 -0.6356  0.0202  0.2075
15726TIP3    H168669   1.336   1.583   4.427  1.0691  2.5814 -0.1013
15726TIP3    H268670   1.454   1.490   4.445 -0.5421  0.4285 -0.1661
15727TIP3   OH268671   5.403   2.475  13.179 -0.1225  0.3383  0.1272
15727TIP3    H168672   5.395   2.475  13.274  1.4860  3.1709  0.3762
15727TIP3    H268673   5.455   2.553  13.159 -0.6675  0.0259 -3.1117
15728TIP3   OH268674   0.511   5.211   4.986  0.3344  0.2897  0.2033
15728TIP3    H168675   0.538   5.195   5.076 -1.7703 -0.3253  0.7931
15728TIP3    H268676   0.438   5.273   4.993  0.3776  0.5264 -1.1155
15729TIP3   OH268677   3.878   1.286  10.565  0.1018  0.3320 -0.1833
15729TIP3    H168678   3.952   1.235  10.532 -0.2568 -0.6059  0.4179
15729TIP3    H268679   3.846   1.333  10.488  0.3246 -0.5017 -0.8058
15730TIP3   OH268680   5.059   5.198  16.652 -0.4600  0.6264 -0.4153
15730TIP3    H168681   5.065   5.134  16.581 -0.7755  2.1037 -1.8304
15730TIP3    H268682   5.092   5.279  16.615  0.1428  1.2645  1.4058
15731TIP3   OH268683   2.682   2.151   5.222  0.4993  0.3106  0.4562
15731TIP3    H168684   2.690   2.109   5.307 -0.2668 -1.0552 -0.1277
15731TIP3    H268685   2.629   2.091   5.169  2.6691  0.1028 -1.6550
15732TIP3   OH268686   2.442   4.393  11.846  0.4595  0.1308  0.4188
15732TIP3    H168687   2.425   4.432  11.760  0.5583 -0.6049  0.0591
15732TIP3    H268688   2.364   4.414  11.898 -0.3900 -0.9157 -0.3886
15733TIP3   OH268689   3.352   2.229   3.344 -0.4739  0.0704 -0.1074
15733TIP3    H168690   3.320   2.224   3.254 -0.4281 -3.0214 -0.0298
15733TIP3    H268691   3.286   2.280   3.391 -2.1970 -1.0853 -1.2141
15734TIP3   OH268692   4.982   3.749  12.619  0.5618 -0.3552  0.3317
15734TIP3    H168693   4.889   3.770  12.630  0.7974  0.4030  0.9757
15734TIP3    H268694   4.989   3.716  12.529 -0.6967 -2.5786  0.9738
15735TIP3   OH268695   4.658   2.460   1.749 -0.2185  0.3427 -0.2684
15735TIP3    H168696   4.585   2.459   1.811 -1.2624  3.2156 -1.2888
15735TIP3    H268697   4.701   2.545   1.764  2.8422 -1.1460  0.1302
15736TIP3   OH268698   1.379   5.096   6.784  0.3333  0.0342  0.2578
15736TIP3    H168699   1.373   5.001   6.794  2.0626 -0.0776  0.4974
15736TIP3    H268700   1.423   5.110   6.701 -0.5790  0.6636 -0.1401
15737TIP3   OH268701   0.894   3.970   1.629 -0.5052  0.8277  0.0441
15737TIP3    H168702   0.829   3.903   1.611  0.1525  0.1799  0.0163
15737TIP3    H268703   0.848   4.053   1.619 -1.2916  0.3803 -0.0638
15738TIP3   OH268704   1.948   3.282   5.953 -0.0574  0.2917  0.0363
15738TIP3    H168705   1.925   3.192   5.975  0.6350  0.2558  0.6710
15738TIP3    H268706   1.881   3.311   5.892 -2.7760  0.7625  3.0049
15739TIP3   OH268707   3.294   4.620  14.347 -0.1268 -0.5842 -0.5084
15739TIP3    H168708   3.350   4.542  14.343  0.8121 -0.0185  0.9607
15739TIP3    H268709   3.208   4.586  14.374  0.5877 -1.0104  1.3742
15740TIP3   OH268710   4.468   6.411  11.049  0.1522  0.0144  0.4488
15740TIP3    H168711   4.530   6.483  11.054 -1.7722  1.7323  0.9869
15740TIP3    H268712   4.402   6.440  10.986 -0.8626 -1.1094  0.9461
15741TIP3   OH268713   2.684   1.130  16.668 -0.3544 -0.3003  0.2706
15741TIP3    H168714   2.611   1.107  16.725 -1.4469  1.4904 -0.2963
15741TIP3    H268715   2.689   1.059  16.604  0.3758 -1.9325  2.0462
15742TIP3   OH268716   4.355   6.153   3.190  0.2937 -0.3699 -0.4955
15742TIP3    H168717   4.289   6.204   3.143 -1.2347 -0.6331  1.2778
15742TIP3    H268718   4.422   6.217   3.214 -1.1987  0.7131  0.9929
15743TIP3   OH268719   6.116   5.183   5.283 -0.3060  0.0769  0.0605
15743TIP3    H168720   6.024   5.210   5.283  0.2635  2.1960  0.5037
15743TIP3    H268721   6.112   5.088   5.288 -2.4737  0.0593 -0.5765
15744TIP3   OH268722   1.767   3.197  13.353  0.4183 -0.5357 -0.3655
15744TIP3    H168723   1.797   3.153  13.434  1.6278  1.8126  0.5654
15744TIP3    H268724   1.683   3.235  13.376 -0.0217 -1.2585 -0.7600
15745TIP3   OH268725   3.670   1.507  16.963  0.3702  0.1910  0.1864
15745TIP3    H168726   3.639   1.581  16.910  0.7751  0.9233  0.9419
15745TIP3    H268727   3.594   1.483  17.016 -1.0754 -2.6166 -2.8450
15746TIP3   OH268728   0.255   3.492   5.653  0.2034  0.2060  0.4044
15746TIP3    H168729   0.271   3.505   5.746 -0.7557  0.1935  0.5837
15746TIP3    H268730   0.161   3.472   5.647  0.4189 -0.6140 -0.4825
15747TIP3   OH268731   3.319   5.054  16.679  0.5143  0.0966  0.1473
15747TIP3    H168732   3.313   5.069  16.774 -0.8172  2.2872 -0.1988
15747TIP3    H268733   3.250   4.990  16.661 -0.2436  0.7760  0.5195
15748TIP3   OH268734   4.424   4.882  10.733 -0.0288  0.4400 -0.2795
15748TIP3    H168735   4.389   4.793  10.744  0.3382  0.5258  2.2323
15748TIP3    H268736   4.518   4.872  10.750  0.1019  1.2247 -0.5209
15749TIP3   OH268737   4.290   4.944  12.614  0.4198 -0.2927 -0.0733
15749TIP3    H168738   4.247   4.859  12.626  0.2316 -0.1867 -0.0020
15749TIP3    H268739   4.221   5.002  12.582  0.1094  0.2974  1.5491
15750TIP3   OH268740   0.935   3.289  16.855 -0.1770 -0.0984 -0.0676
15750TIP3    H168741   0.990   3.259  16.782  0.3456  2.2383 -0.7180
15750TIP3    H268742   0.985   3.361  16.894 -0.8620 -0.7182  2.0760
15751TIP3   OH268743   5.995   1.213   3.116 -0.0977  0.4346 -0.5308
15751TIP3    H168744   5.900   1.207   3.128  0.0053  0.8662  0.5603
15751TIP3    H268745   6.016   1.138   3.061 -0.9452 -0.2228  0.0109
15752TIP3   OH268746   0.112   5.328  14.986 -0.2751 -0.2822 -0.2727
15752TIP3    H168747   0.126   5.272  15.063  0.7922  1.4307  0.8371
15752TIP3    H268748   0.198   5.330  14.942  0.2889  2.0187  0.8157
15753TIP3   OH268749   5.549   4.488  13.622  0.2797  0.0741 -0.2487
15753TIP3    H168750   5.519   4.418  13.564  2.2872  0.4316 -1.8380
15753TIP3    H268751   5.478   4.499  13.685 -0.7113 -2.3889 -0.8109
15754TIP3   OH268752   0.494   2.710   5.306 -0.3047  0.1361  0.0654
15754TIP3    H168753   0.484   2.617   5.327 -1.1923  0.1540 -0.2346
15754TIP3    H268754   0.496   2.713   5.211  1.8536  0.2420  0.0544
15755TIP3   OH268755   2.645   3.352  12.157 -0.7477  0.3056  0.7437
15755TIP3    H168756   2.629   3.273  12.209  0.9569 -1.0503 -0.6809
15755TIP3    H268757   2.731   3.338  12.117 -0.5947  2.6981  0.0567
15756TIP3   OH268758   0.406   5.740  11.462 -0.5137 -0.1270 -0.1682
15756TIP3    H168759   0.418   5.717  11.369 -0.6384 -2.3859  0.3120
15756TIP3    H268760   0.314   5.719  11.479 -0.9305  1.8083  0.1052
15757TIP3   OH268761   2.920   0.408   1.918  0.3886  0.0460  0.2269
15757TIP3    H168762   2.910   0.425   1.825  0.5733 -2.3255 -0.2960
15757TIP3    H268763   2.898   0.491   1.961 -1.8783  0.5755 -1.7850
15758TIP3   OH268764   0.707   0.500   2.457 -0.3784  0.1342  0.0743
15758TIP3    H168765   0.675   0.490   2.368 -1.0956  2.2834  0.0508
15758TIP3    H268766   0.662   0.577   2.491  2.3331  1.3631  1.1638
15759TIP3   OH268767   1.400   2.676  13.622 -0.3331 -0.2769  0.3148
15759TIP3    H168768   1.345   2.715  13.555  1.1935 -1.7415 -1.9449
15759TIP3    H268769   1.456   2.747  13.653  0.6250 -0.0455 -1.8132
15760TIP3   OH268770   5.783   6.728   5.640  0.1809  0.5556 -0.9384
15760TIP3    H168771   5.776   6.793   5.570  1.8956  0.9418 -0.7955
15760TIP3    H268772   5.815   6.649   5.598  0.6252  0.6019 -0.6941
15761TIP3   OH268773   0.297   3.460  14.400  0.3666  0.8358  0.0996
15761TIP3    H168774   0.339   3.378  14.376 -0.1833  0.7725 -0.6976
15761TIP3    H268775   0.362   3.527  14.380  0.2674  0.7055 -0.6865
15762TIP3   OH268776   5.876   6.544   5.417 -0.3096 -0.0901  0.1126
15762TIP3    H168777   5.957   6.498   5.442 -0.1636  0.5838  0.9343
15762TIP3    H268778   5.845   6.497   5.340 -0.3927 -1.8329  1.1544
15763TIP3   OH268779   3.410   6.063   3.259 -0.6865 -0.0605 -0.0290
15763TIP3    H168780   3.343   6.124   3.230 -0.5096  0.6502  1.0040
15763TIP3    H268781   3.488   6.116   3.271  0.2625 -0.9764 -1.7742
15764TIP3   OH268782   2.618   2.981   5.380 -0.3239 -0.1804 -0.4236
15764TIP3    H168783   2.579   3.024   5.456  0.7516  1.1185 -0.5651
15764TIP3    H268784   2.711   2.974   5.402 -0.4174 -2.2786 -0.5035
15765TIP3   OH268785   5.643   0.367  17.188 -0.1246  0.1446 -0.4156
15765TIP3    H168786   5.633   0.376  17.093  3.5627 -3.4305 -1.3905
15765TIP3    H268787   5.585   0.295  17.211  0.2804 -0.1514 -0.3125
15766TIP3   OH268788   0.980   4.734  17.062 -0.2541  0.6360 -0.4495
15766TIP3    H168789   1.020   4.741  17.149  0.9132  0.4263 -0.9440
15766TIP3    H268790   0.979   4.640  17.043 -3.3195  0.3470  0.5502
15767TIP3   OH268791   5.430   0.089   2.988 -0.1600  0.2627  0.5814
15767TIP3    H168792   5.371   0.105   2.914 -0.5582  0.9872  1.0405
15767TIP3    H268793   5.399   0.007   3.026 -0.1141  0.0204  0.1055
15768TIP3   OH268794   0.619   1.088  13.196 -0.0878 -0.1413 -0.1894
15768TIP3    H168795   0.670   1.007  13.198 -1.7541 -1.2132  1.1913
15768TIP3    H268796   0.542   1.070  13.249 -0.2584  2.5510  0.6547
15769TIP3   OH268797   1.050   2.692   2.305 -0.0077 -0.1984  0.0303
15769TIP3    H168798   1.141   2.685   2.333 -0.0554 -1.4950 -0.0901
15769TIP3    H268799   1.018   2.602   2.302 -0.6354  0.0257 -2.0823
15770TIP3   OH268800   4.722   0.168   0.536 -0.2252  0.4405 -0.4700
15770TIP3    H168801   4.691   0.225   0.607 -1.4358  1.4102 -1.7033
15770TIP3    H268802   4.704   0.079   0.566  0.7091  0.7482  1.0596
15771TIP3   OH268803   1.325   6.020   4.217  0.1044  0.0486  0.2324
15771TIP3    H168804   1.418   6.018   4.242  0.0455  1.7247  0.6873
15771TIP3    H268805   1.315   6.102   4.168 -0.7044 -1.1305 -1.6824
15772TIP3   OH268806   3.640   0.630   3.011  0.0202  0.1040 -0.4126
15772TIP3    H168807   3.715   0.580   3.040 -2.1322 -1.6630  2.7318
15772TIP3    H268808   3.639   0.708   3.067 -0.8796 -0.2925  0.1535
15773TIP3   OH268809   6.315   2.776  14.180 -0.5331 -0.4719  0.2167
15773TIP3    H168810   6.344   2.765  14.270 -0.1043  2.7206  0.5920
15773TIP3    H268811   6.225   2.808  14.187  0.0559  1.4524 -0.3201
15774TIP3   OH268812   6.199   2.847  11.173  0.0393 -0.2453  0.1722
15774TIP3    H168813   6.290   2.876  11.179  0.0065 -0.3646  1.4031
15774TIP3    H268814   6.165   2.853  11.262 -1.2977  0.2209 -0.3326
15775TIP3   OH268815   6.170   1.569   4.550  0.3814 -0.0267 -1.0136
15775TIP3    H168816   6.197   1.652   4.588 -0.1241 -0.3035 -0.0107
15775TIP3    H268817   6.236   1.506   4.581 -0.1062 -0.2793 -0.4743
15776TIP3   OH268818   4.915   3.463  17.090  0.4515  0.2726  0.5752
15776TIP3    H168819   4.905   3.558  17.098  0.1305  0.2176  0.8236
15776TIP3    H268820   4.946   3.435  17.176  0.9496  0.2026  0.3753
15777TIP3   OH268821   6.196   5.041  12.922 -0.2904 -0.1690 -0.5401
15777TIP3    H168822   6.157   4.970  12.974 -1.5698  0.7348 -0.1982
15777TIP3    H268823   6.120   5.086  12.884  0.3882  1.9280  0.4857
15778TIP3   OH268824   0.117   1.964   3.994  0.2099  0.4669 -0.1330
15778TIP3    H168825   0.134   2.009   4.077  0.9595  0.5889 -0.3534
15778TIP3    H268826   0.030   1.994   3.968 -0.8839 -0.9842  1.5484
15779TIP3   OH268827   4.097   3.414  14.531 -0.6355 -0.0011 -0.5016
15779TIP3    H168828   4.135   3.482  14.586 -1.5831 -0.0518  0.2438
15779TIP3    H268829   4.028   3.375  14.585 -0.8005 -0.8497 -1.2962
15780TIP3   OH268830   0.335   0.937  16.540 -0.3562 -0.0333 -0.3174
15780TIP3    H168831   0.243   0.962  16.531 -0.9948 -1.1140  2.3160
15780TIP3    H268832   0.346   0.865  16.478 -1.4092 -0.1720 -0.3701
15781TIP3   OH268833   1.512   0.135  10.714  0.2224 -0.2772 -0.0775
15781TIP3    H168834   1.572   0.199  10.753  0.9122  1.0841 -3.1196
15781TIP3    H268835   1.442   0.187  10.676 -0.8051 -1.5890 -0.0794
15782TIP3   OH268836   2.728   2.157   0.449  0.4796 -0.3405  0.6432
15782TIP3    H168837   2.684   2.138   0.532 -1.3364 -0.1199 -0.2197
15782TIP3    H268838   2.716   2.078   0.397 -0.1644  0.2430 -0.1203
15783TIP3   OH268839   1.068   2.515  14.066 -0.4968 -0.1110  0.5220
15783TIP3    H168840   1.043   2.430  14.031 -0.2991  0.1848 -0.3598
15783TIP3    H268841   1.005   2.531  14.136 -1.7141 -0.1488 -0.5242
15784TIP3   OH268842   6.193   4.431  16.549  0.0586 -0.4993  0.5394
15784TIP3    H168843   6.107   4.469  16.533 -1.2120 -2.4905  2.1629
15784TIP3    H268844   6.224   4.475  16.628  0.6768  0.3710 -0.1648
15785TIP3   OH268845   3.232   4.492  14.849  0.3902 -0.4876  0.4298
15785TIP3    H168846   3.148   4.449  14.861  0.2315 -0.3305 -0.0785
15785TIP3    H268847   3.211   4.584  14.834  0.2824 -0.9525 -3.4858
15786TIP3   OH268848   2.123   4.886  14.646  0.4709  0.3056  0.0732
15786TIP3    H168849   2.110   4.800  14.688 -1.0646 -0.5511 -1.9586
15786TIP3    H268850   2.059   4.943  14.689  0.2158 -0.0726  0.2050
15787TIP3   OH268851   6.793   1.020   3.455  0.0945 -0.2488  0.0826
15787TIP3    H168852   6.882   1.025   3.421  0.1986 -1.1383  0.2071
15787TIP3    H268853   6.787   1.091   3.519  0.4261  0.3760 -0.5773
15788TIP3   OH268854   2.260   4.407  15.409  0.9596 -0.0229  0.2947
15788TIP3    H168855   2.331   4.419  15.345  1.2152  0.8640  0.7207
15788TIP3    H268856   2.182   4.393  15.356  0.8820  2.2588 -0.2992
15789TIP3   OH268857   3.292   5.370   2.503 -0.2108 -0.1225 -0.1805
15789TIP3    H168858   3.308   5.307   2.433 -1.2122 -0.0628 -0.4842
15789TIP3    H268859   3.224   5.330   2.557  1.6596 -0.9134  1.7585
15790TIP3   OH268860   5.515   2.839  16.065 -0.1418  0.5319  0.2157
15790TIP3    H168861   5.475   2.754  16.083 -1.7007  0.9891 -0.8819
15790TIP3    H268862   5.470   2.900  16.124  1.4063  0.5408  1.4535
15791TIP3   OH268863   0.780   3.556   5.998  0.9590  0.2619  0.1291
15791TIP3    H168864   0.746   3.565   6.087 -0.2162  0.6410 -0.3416
15791TIP3    H268865   0.852   3.619   5.994 -0.7204  2.3163  0.0075
15792TIP3   OH268866   6.475   3.185  12.773 -0.2048 -0.0615 -0.1520
15792TIP3    H168867   6.563   3.146  12.770 -0.2273 -0.0919 -0.4689
15792TIP3    H268868   6.471   3.241  12.695 -1.1698 -1.6038 -1.2781
15793TIP3   OH268869   4.564   1.346  15.572 -0.4308 -0.2812  0.3182
15793TIP3    H168870   4.658   1.341  15.554  0.0524 -0.1304  2.5916
15793TIP3    H268871   4.536   1.428  15.531  0.7575  0.4518  0.9288
15794TIP3   OH268872   1.552   3.368   2.386 -0.0813 -0.4937 -0.1040
15794TIP3    H168873   1.557   3.391   2.479 -0.1761  1.8448 -0.6133
15794TIP3    H268874   1.461   3.384   2.362  0.3891  0.9734 -1.0392
15795TIP3   OH268875   6.166   4.300   4.893  0.3014  0.5860  0.0845
15795TIP3    H168876   6.197   4.302   4.984  1.4075  0.6098 -0.2709
15795TIP3    H268877   6.184   4.210   4.864 -0.3272  0.4915 -0.0236
15796TIP3   OH268878   6.376   1.569  16.620  0.2008  0.3005  0.0253
15796TIP3    H168879   6.428   1.545  16.544  0.5160  0.6397  0.1349
15796TIP3    H268880   6.285   1.564  16.589  0.3226  0.3284 -0.3372
15797TIP3   OH268881   4.680   6.771  16.100 -0.0946  0.3462 -0.0873
15797TIP3    H168882   4.687   6.676  16.104  0.8569  0.3109 -1.9262
15797TIP3    H268883   4.589   6.787  16.072 -0.0329 -0.0510 -0.5232
15798TIP3   OH268884   4.374   1.641  16.706 -0.6722  0.0979 -0.6204
15798TIP3    H168885   4.337   1.574  16.647  1.2523 -1.2730 -0.3596
15798TIP3    H268886   4.412   1.591  16.778  0.4662  1.5162 -0.1967
15799TIP3   OH268887   0.159   2.109  11.715  0.4954  0.0041 -0.2211
15799TIP3    H168888   0.114   2.132  11.796  0.4931  2.0494 -0.7374
15799TIP3    H268889   0.248   2.088  11.743 -0.1553 -1.9146  0.5581
15800TIP3   OH268890   3.930   6.230   1.535 -0.2208 -0.1810  0.0319
15800TIP3    H168891   4.018   6.238   1.572 -0.5239  1.0110  0.5528
15800TIP3    H268892   3.941   6.175   1.458  0.6345 -1.7429  1.2147
15801TIP3   OH268893   2.920   4.046  10.401 -0.4108  0.2679  0.3630
15801TIP3    H168894   2.903   3.968  10.454 -3.9308 -0.2386 -1.2367
15801TIP3    H268895   2.999   4.024  10.351 -1.4775 -2.4483 -0.2784
15802TIP3   OH268896   3.522   3.872   4.747 -0.7821 -0.3732 -0.6588
15802TIP3    H168897   3.579   3.948   4.738 -0.4053 -0.7041 -1.1848
15802TIP3    H268898   3.457   3.897   4.812  0.3697 -0.2332  0.4606
15803TIP3   OH268899   0.656   5.730  14.854 -0.2243  0.6171 -0.5490
15803TIP3    H168900   0.564   5.746  14.834 -1.0523  0.1429  2.4582
15803TIP3    H268901   0.688   5.813  14.890 -0.1737  0.1051  0.6239
15804TIP3   OH268902   3.923   0.873   2.702  0.2195  0.1674 -0.2757
15804TIP3    H168903   3.970   0.902   2.624  0.1401 -0.9807 -0.7637
15804TIP3    H268904   3.831   0.892   2.683  0.1346 -0.6314 -0.7171
15805TIP3   OH268905   2.395   6.713   4.125  0.2982 -0.1819 -0.8558
15805TIP3    H168906   2.334   6.783   4.149 -1.7657 -2.1323  0.0776
15805TIP3    H268907   2.399   6.716   4.029 -1.0620  0.2043 -0.9244
15806TIP3   OH268908   4.510   1.900   0.587  0.3285  0.1428 -0.7783
15806TIP3    H168909   4.449   1.831   0.611  2.1064 -1.4661 -0.6973
15806TIP3    H268910   4.540   1.876   0.499  2.8580 -0.6806  0.2117
15807TIP3   OH268911   5.445   0.616   2.109  0.1366 -0.3337  0.0785
15807TIP3    H168912   5.464   0.571   2.191 -0.8220  0.4701  0.7617
15807TIP3    H268913   5.435   0.546   2.044 -1.7432 -1.1763  1.1979
15808TIP3   OH268914   6.366   6.000  12.872  0.3743  0.1096 -0.0771
15808TIP3    H168915   6.433   6.042  12.818  1.6792 -1.3541  0.3191
15808TIP3    H268916   6.321   6.073  12.916  1.0028  1.1756 -1.1421
15809TIP3   OH268917   5.836   0.488  14.621 -0.1024  0.3488  0.7831
15809TIP3    H168918   5.891   0.565  14.632 -0.1669  0.7954 -1.5358
15809TIP3    H268919   5.881   0.419  14.670  2.4629  0.7589 -0.7921
15810TIP3   OH268920   3.503   5.992  12.581 -0.4515 -0.0977 -0.2587
15810TIP3    H168921   3.462   5.930  12.521 -0.1326 -1.0469  0.4957
15810TIP3    H268922   3.523   5.942  12.660  2.0062  0.3399 -0.5050
15811TIP3   OH268923   6.526   6.439  10.625  0.7928 -0.8044  0.1995
15811TIP3    H168924   6.465   6.365  10.629  0.4027 -0.4745  0.4119
15811TIP3    H268925   6.607   6.402  10.589  0.4941 -1.2639 -0.0047
15812TIP3   OH268926   6.072   6.003   3.605 -0.1479 -0.1482  0.1481
15812TIP3    H168927   6.093   6.082   3.654 -1.3986 -0.7367  1.7027
15812TIP3    H268928   6.152   5.984   3.554  0.2648  1.9268 -0.0655
15813TIP3   OH268929   2.004   4.449  11.499 -0.1018 -0.3264 -0.0375
15813TIP3    H168930   1.942   4.495  11.556 -0.6506 -0.7672 -0.2609
15813TIP3    H268931   2.090   4.479  11.527 -0.4631  1.3882 -0.6345
15814TIP3   OH268932   1.027   1.833  16.718  0.7792 -0.0535 -0.5959
15814TIP3    H168933   1.001   1.748  16.754 -0.8208  0.6246 -0.0509
15814TIP3    H268934   1.087   1.869  16.783  0.5675 -0.2820 -0.2708
15815TIP3   OH268935   4.471   1.766   1.660  0.1398 -0.6264  0.1460
15815TIP3    H168936   4.553   1.783   1.613 -0.1386 -1.6674 -0.7430
15815TIP3    H268937   4.452   1.674   1.643 -1.3458 -0.3366  0.1350
15816TIP3   OH268938   0.760   5.971  14.942 -0.1585 -0.1097  0.2547
15816TIP3    H168939   0.698   6.008  15.004 -1.1282 -1.4837  0.1478
15816TIP3    H268940   0.749   6.024  14.863  0.6709  1.2789  1.0360
15817TIP3   OH268941   4.073   1.081  13.629  0.4124  0.0080 -0.4981
15817TIP3    H168942   4.097   1.105  13.719  0.3861 -0.2804 -0.4139
15817TIP3    H268943   4.016   1.005  13.639 -1.6241  1.4427 -0.6258
15818TIP3   OH268944   0.547   4.729  10.826  0.4163  0.3892  0.6168
15818TIP3    H168945   0.627   4.741  10.878  0.2901  0.8246  0.7171
15818TIP3    H268946   0.486   4.684  10.884  0.4078  0.5307  0.7187
15819TIP3   OH268947   4.302   2.985  14.720  0.0844 -0.3997 -0.1912
15819TIP3    H168948   4.288   3.076  14.747 -1.4967 -0.8209  0.5916
15819TIP3    H268949   4.362   2.990  14.646  1.4425  1.1343  0.9572
15820TIP3   OH268950   5.377   5.082   2.911  0.4817  0.2919 -0.7300
15820TIP3    H168951   5.462   5.053   2.878  0.1873 -0.9707 -0.4330
15820TIP3    H268952   5.381   5.178   2.908  1.1205  0.2503 -2.7343
15821TIP3   OH268953   1.251   3.250   5.793  0.0690  0.1596  0.4808
15821TIP3    H168954   1.309   3.293   5.855 -0.1811  0.9410  0.1829
15821TIP3    H268955   1.227   3.168   5.836  1.9044 -0.5028  0.3270
15822TIP3   OH268956   4.866   3.185   0.289 -0.5457  0.1571 -0.0493
15822TIP3    H168957   4.886   3.115   0.350 -1.5653 -0.2314 -0.1332
15822TIP3    H268958   4.817   3.142   0.218 -0.9184  0.8922 -0.2563
15823TIP3   OH268959   2.186   4.676  12.720 -0.3988  0.0154 -0.0343
15823TIP3    H168960   2.174   4.581  12.711  0.8046 -0.5764  3.3523
15823TIP3    H268961   2.271   4.693  12.679  1.2251 -1.1530  2.5699
15824TIP3   OH268962   2.404   2.380   1.117 -0.2456 -0.2633 -0.4201
15824TIP3    H168963   2.343   2.325   1.067 -0.7346  0.1890 -0.3242
15824TIP3    H268964   2.349   2.448   1.156  0.1460 -0.5380  0.6425
15825TIP3   OH268965   4.228   6.713   4.368  0.2998 -0.1018 -0.9144
15825TIP3    H168966   4.275   6.668   4.438 -0.0839 -2.1122 -1.8615
15825TIP3    H268967   4.295   6.727   4.300  0.0736 -0.8554 -1.3130
15826TIP3   OH268968   3.832   1.966  17.057 -0.1378  0.2985  0.1524
15826TIP3    H168969   3.855   2.059  17.065 -0.4365  0.3168  0.8528
15826TIP3    H268970   3.738   1.963  17.073  0.0939 -0.2866  1.5908
15827TIP3   OH268971   6.218   6.529   1.830  0.3355  0.0106 -0.6564
15827TIP3    H168972   6.240   6.596   1.764 -1.6898 -0.9578 -2.4161
15827TIP3    H268973   6.275   6.455   1.809  1.5473  0.6062  0.3874
15828TIP3   OH268974   0.316   6.467   5.508  0.6667 -0.4293  0.0022
15828TIP3    H168975   0.343   6.529   5.440 -0.6238  0.1582 -0.0059
15828TIP3    H268976   0.329   6.515   5.590  0.0029 -0.2598  0.0156
15829TIP3   OH268977   3.479   5.454   5.313  0.2252  0.1006  0.2557
15829TIP3    H168978   3.447   5.543   5.300  0.2503 -0.2078 -2.6317
15829TIP3    H268979   3.543   5.461   5.383  0.2629  2.3623  0.0723
15830TIP3   OH268980   6.295   2.135   0.196  0.2107  0.0147 -0.2253
15830TIP3    H168981   6.203   2.112   0.212 -0.1738  1.9105  0.5785
15830TIP3    H268982   6.300   2.147   0.101 -0.2328 -0.5686 -0.3343
15831TIP3   OH268983   0.167   2.097  16.576 -0.0453 -0.0420 -0.0813
15831TIP3    H168984   0.200   2.029  16.518  0.2177 -0.2964  0.3561
15831TIP3    H268985   0.241   2.117  16.634  0.2307  1.3537 -0.8507
15832TIP3   OH268986   3.641   4.931   0.522 -0.1484 -0.2971 -0.2529
15832TIP3    H168987   3.595   4.876   0.459 -0.5527 -0.2011 -0.0452
15832TIP3    H268988   3.576   4.995   0.549 -0.7058 -1.6713  1.9369
15833TIP3   OH268989   1.277   0.626  13.138 -0.3857 -0.3640 -0.3450
15833TIP3    H168990   1.363   0.660  13.112  0.1969  0.4160  2.2596
15833TIP3    H268991   1.235   0.603  13.055  2.9794 -2.5245 -1.7078
15834TIP3   OH268992   3.785   4.987  12.590  0.4836  0.7241  0.5710
15834TIP3    H168993   3.698   4.948  12.582  2.2275 -3.5259 -0.7696
15834TIP3    H268994   3.817   4.957  12.676  2.1465 -1.8266 -0.7985
15835TIP3   OH268995   5.103   5.107   5.895 -0.7259  0.5135 -0.5827
15835TIP3    H168996   5.036   5.149   5.948 -1.1147 -1.1439  0.3155
15835TIP3    H268997   5.065   5.102   5.807 -0.9604  1.3344 -0.5313
15836TIP3   OH268998   3.539   4.470  16.008 -0.2248 -0.0743  0.0664
15836TIP3    H168999   3.531   4.376  15.991 -0.9478  0.4683 -3.2240
15836TIP3    H269000   3.631   4.490  15.988 -0.6084  0.2508 -1.4553
15837TIP3   OH269001   1.574   6.698   3.527  0.0811  0.1632  0.9022
15837TIP3    H169002   1.556   6.783   3.485 -0.9253  0.1757  1.3257
15837TIP3    H269003   1.654   6.667   3.486 -1.1315 -0.0765 -1.4380
15838TIP3   OH269004   2.373   6.548  11.792 -0.2922 -0.3720 -0.1252
15838TIP3    H169005   2.309   6.618  11.805 -1.2800 -1.5640  1.9095
15838TIP3    H269006   2.446   6.570  11.850 -1.4720 -1.9243  2.1177
15839TIP3   OH269007   1.822   1.517  15.449 -0.4372 -0.1032 -0.0806
15839TIP3    H169008   1.784   1.439  15.407 -2.2876 -0.3175  1.8222
15839TIP3    H269009   1.750   1.580  15.450  0.4065  0.8717  0.3299
15840TIP3   OH269010   2.823   0.010  16.690  0.3351  0.0782  0.2276
15840TIP3    H169011   2.851   0.044  16.605  0.5897 -1.6636 -0.4279
15840TIP3    H269012   2.737   0.050  16.704  0.5683  0.8986 -0.5290
15841TIP3   OH269013   5.691   6.717   5.192 -0.3712  0.0485  0.5928
15841TIP3    H169014   5.692   6.713   5.097  0.4287 -1.5926  0.6363
15841TIP3    H269015   5.611   6.765   5.214 -0.3578  0.7927 -0.8976
15842TIP3   OH269016   1.226   0.276   0.974 -0.0189  0.5014  0.0625
15842TIP3    H169017   1.201   0.267   1.066 -0.8809 -0.5963 -0.2574
15842TIP3    H269018   1.308   0.228   0.966 -0.0734  0.3845  0.2038
15843TIP3   OH269019   1.155   1.237  11.605  0.0318 -1.0287  0.2057
15843TIP3    H169020   1.154   1.326  11.571  2.0453 -1.2217 -0.5058
15843TIP3    H269021   1.242   1.203  11.582 -0.4290 -2.9467  1.0495
15844TIP3   OH269022   4.379   4.072  16.249 -0.5845  0.3170  0.0276
15844TIP3    H169023   4.419   4.023  16.177  0.8459  0.7481  0.4878
15844TIP3    H269024   4.285   4.063  16.235 -0.3418  0.0294 -1.6439
15845TIP3   OH269025   3.350   4.827  14.177 -0.3530  0.4814  0.0930
15845TIP3    H169026   3.289   4.885  14.221 -1.4267  0.3819 -1.2044
15845TIP3    H269027   3.342   4.743  14.224  0.3302  1.0108  1.2102
15846TIP3   OH269028   1.600   1.047  12.945  0.5613 -0.5450  0.2167
15846TIP3    H169029   1.662   1.111  12.979 -0.0498 -0.5684  1.4349
15846TIP3    H269030   1.638   1.019  12.862  1.8718 -0.1260  0.6437
15847TIP3   OH269031   4.860   4.566   1.798 -0.4368  0.3735  0.6533
15847TIP3    H169032   4.953   4.583   1.811 -0.4333 -0.1513  1.4065
15847TIP3    H269033   4.855   4.513   1.718 -0.0944  0.4656  0.5728
15848TIP3   OH269034   2.571   2.607   5.160  0.0701 -0.2929 -0.6406
15848TIP3    H169035   2.612   2.644   5.082  1.2801 -0.2479 -0.0190
15848TIP3    H269036   2.495   2.559   5.128  0.8982 -0.7957 -1.9228
15849TIP3   OH269037   1.498   5.882   2.613 -0.0630  0.6438 -0.1091
15849TIP3    H169038   1.415   5.910   2.653  1.2399  2.4124  1.5717
15849TIP3    H269039   1.503   5.931   2.532 -1.8426 -1.5296 -1.6691
15850TIP3   OH269040   2.019   5.643   3.930  0.4009  0.3981 -0.0434
15850TIP3    H169041   1.995   5.732   3.954 -0.7797 -0.2815  1.4692
15850TIP3    H269042   1.941   5.608   3.887  0.2462 -0.3963  0.8412
15851TIP3   OH269043   5.414   2.170  11.851  0.1267 -0.0156 -0.8598
15851TIP3    H169044   5.395   2.252  11.805  0.4427  0.2744 -0.4856
15851TIP3    H269045   5.507   2.177  11.876 -0.2461  0.2108  0.5541
15852TIP3   OH269046   3.355   6.393   5.232 -0.0207  0.0111 -0.2375
15852TIP3    H169047   3.260   6.403   5.227  0.0615  0.3326 -3.2337
15852TIP3    H269048   3.368   6.299   5.245 -0.7955 -0.3307 -1.7041
15853TIP3   OH269049   0.948   0.351  14.898 -0.2448  0.2693  0.0059
15853TIP3    H169050   0.967   0.423  14.959 -1.2563  0.1078  0.5273
15853TIP3    H269051   0.853   0.345  14.897 -0.1686 -1.7130  0.7350
15854TIP3   OH269052   2.942   6.335  15.194 -0.4423 -0.0639 -0.0500
15854TIP3    H169053   2.989   6.353  15.113  1.3314  3.5974  1.5358
15854TIP3    H269054   3.011   6.316  15.258 -1.3641  1.3533  1.4565
15855TIP3   OH269055   0.373   0.038  12.513  0.1913 -0.2376 -0.5297
15855TIP3    H169056   0.322   0.030  12.432 -0.7249  0.4745 -0.0502
15855TIP3    H269057   0.449  -0.018  12.499 -0.3328 -0.7283 -1.5854
15856TIP3   OH269058   3.556   2.358   5.642  0.6262  0.5954  0.0857
15856TIP3    H169059   3.569   2.263   5.633 -0.2010  0.4926 -0.1108
15856TIP3    H269060   3.515   2.369   5.727 -2.9551  0.3498 -1.4447
15857TIP3   OH269061   4.166   5.373   5.354 -0.0304 -0.5683  0.3665
15857TIP3    H169062   4.253   5.394   5.322 -0.4024  0.7789  0.1747
15857TIP3    H269063   4.133   5.308   5.292  0.6253 -0.6757  0.1221
15858TIP3   OH269064   1.787   0.999  15.414 -0.2456 -0.6620 -0.4785
15858TIP3    H169065   1.735   0.999  15.495  0.0654  2.0422 -0.1652
15858TIP3    H269066   1.873   0.967  15.440  0.2810  1.4750  0.6906
15859TIP3   OH269067   2.125   2.452  14.573 -0.2729  0.2460  0.4441
15859TIP3    H169068   2.049   2.501  14.541 -0.7191  0.1245  1.2990
15859TIP3    H269069   2.187   2.519  14.602  0.1389  0.3592 -0.6486
15860TIP3   OH269070   3.362   3.197   5.745  0.5471 -0.2167 -0.3088
15860TIP3    H169071   3.356   3.285   5.783  1.7116 -0.3599  0.2687
15860TIP3    H269072   3.368   3.139   5.821  2.0069 -0.5879 -0.6672
15861TIP3   OH269073   5.212   4.968  12.079  0.0135 -0.3829 -0.1009
15861TIP3    H169074   5.249   5.007  12.158 -1.4868 -1.5918  1.2745
15861TIP3    H269075   5.198   5.042  12.019  1.0860  0.5695  0.7829
15862TIP3   OH269076   5.520   2.044   2.058 -0.5870  0.3759  0.0867
15862TIP3    H169077   5.560   2.117   2.106 -1.4420  0.2771  0.9602
15862TIP3    H269078   5.492   1.983   2.125 -0.7344 -0.3277 -0.6013
15863TIP3   OH269079   1.442   5.269  14.462  0.3139 -0.0189 -0.7795
15863TIP3    H169080   1.357   5.303  14.435  0.6322  1.6245  0.1371
15863TIP3    H269081   1.452   5.187  14.414 -2.0163 -0.5251 -0.4915
15864TIP3   OH269082   4.218   4.672  12.645 -0.1483 -0.0259 -0.2444
15864TIP3    H169083   4.171   4.673  12.729 -1.9644 -2.5038 -1.1241
15864TIP3    H269084   4.301   4.630  12.665  0.0932  0.8025  0.5835
15865TIP3   OH269085   4.282   1.338   5.311 -0.1385 -0.6920  0.2969
15865TIP3    H169086   4.231   1.301   5.238 -0.0915 -1.8721  0.8394
15865TIP3    H269087   4.272   1.275   5.382  3.3240 -1.8164 -0.0303
15866TIP3   OH269088   2.188   5.905  15.518  0.1093  0.2877 -0.1531
15866TIP3    H169089   2.269   5.955  15.520  0.6548 -0.5264  2.2193
15866TIP3    H269090   2.182   5.866  15.606 -2.6585  0.0179 -0.3614
15867TIP3   OH269091   3.475   0.696  16.801  0.5651  0.1987 -0.2095
15867TIP3    H169092   3.466   0.754  16.726  0.0943  0.0571 -0.2641
15867TIP3    H269093   3.527   0.746  16.865  2.2974 -0.2355 -1.2048
15868TIP3   OH269094   3.815   0.448   5.890 -0.3050 -0.2393 -0.1648
15868TIP3    H169095   3.785   0.486   5.807 -0.4692  1.3023  0.5749
15868TIP3    H269096   3.843   0.359   5.866 -0.6878  0.0415 -1.8010
15869TIP3   OH269097   2.104   2.460  12.193  0.4983  0.5388 -0.5546
15869TIP3    H169098   2.017   2.491  12.171  0.0446 -0.2593  0.0493
15869TIP3    H269099   2.136   2.520  12.259  0.8300  1.4264 -1.4930
15870TIP3   OH269100   4.116   4.772   1.498 -0.0236  0.2346  0.0563
15870TIP3    H169101   4.147   4.859   1.523  0.0157  0.5145 -0.9364
15870TIP3    H269102   4.151   4.758   1.411 -1.5086 -0.0337 -0.5282
15871TIP3   OH269103   4.514   4.143   4.935  0.0912  0.3145 -0.0521
15871TIP3    H169104   4.461   4.175   4.862 -0.4614  1.3024  0.7720
15871TIP3    H269105   4.461   4.158   5.013  0.8859 -0.2572  0.6245
15872TIP3   OH269106   0.139   0.428   3.620 -0.4003 -0.0858  0.1050
15872TIP3    H169107   0.159   0.518   3.644 -1.0214  0.0086  0.2661
15872TIP3    H269108   0.154   0.424   3.526 -0.3183  0.1681  0.1071
15873TIP3   OH269109   4.174   1.062   4.806  0.0516  0.5179 -0.2808
15873TIP3    H169110   4.217   1.099   4.729 -1.4424  1.5927 -0.6399
15873TIP3    H269111   4.087   1.037   4.776 -0.1843 -0.0646  0.8142
15874TIP3   OH269112   2.391   5.552   4.488  0.5075  0.4432 -0.3085
15874TIP3    H169113   2.437   5.469   4.474  1.0408  0.6549  0.1506
15874TIP3    H269114   2.305   5.538   4.450  1.0712  0.1592 -1.5484
15875TIP3   OH269115   6.561   1.612   1.110  0.1012  0.2739 -0.0817
15875TIP3    H169116   6.655   1.597   1.118  0.3298  0.3671 -1.9897
15875TIP3    H269117   6.528   1.610   1.199  2.1446  1.7004  0.7763
15876TIP3   OH269118   2.179   5.405   6.433  0.1303 -0.0087  0.1583
15876TIP3    H169119   2.188   5.329   6.375 -1.6000  0.3767 -0.6682
15876TIP3    H269120   2.232   5.473   6.392  0.7376 -0.4090  0.2660
15877TIP3   OH269121   2.134   5.700   3.234  0.0098 -0.1913  0.3116
15877TIP3    H169122   2.057   5.740   3.194  0.8333  0.3479 -0.7883
15877TIP3    H269123   2.138   5.612   3.196  0.2745  0.0008 -0.1198
15878TIP3   OH269124   6.076   0.144   5.628 -0.1270 -0.0946  0.5948
15878TIP3    H169125   6.127   0.197   5.690  0.9523  1.6949 -1.6588
15878TIP3    H269126   6.004   0.109   5.681 -1.3102  4.1617  2.2651
15879TIP3   OH269127   2.342   4.792  15.155  0.1559 -0.3502 -0.1458
15879TIP3    H169128   2.412   4.845  15.116 -0.8474  1.4583  0.4032
15879TIP3    H269129   2.386   4.741  15.224  1.3356 -1.0826 -1.4034
15880TIP3   OH269130   6.662   0.146   3.226  0.3094 -0.3000  0.1695
15880TIP3    H169131   6.596   0.209   3.257 -0.7050 -0.6694 -1.1550
15880TIP3    H269132   6.622   0.060   3.241  1.5635 -0.6636  1.6886
15881TIP3   OH269133   0.907   2.216  14.490 -0.2947  0.0662  0.3997
15881TIP3    H169134   0.998   2.244  14.478 -0.9225  1.5254 -1.5301
15881TIP3    H269135   0.879   2.261  14.570  0.4412  0.2750  0.5482
15882TIP3   OH269136   3.365   2.456  14.197 -0.9755 -0.3625  0.5140
15882TIP3    H169137   3.363   2.496  14.284 -2.7485 -0.7208  0.6777
15882TIP3    H269138   3.318   2.517  14.141  0.7805  0.2227 -0.4074
15883TIP3   OH269139   0.614   2.634   4.749 -0.3058 -0.1463  0.5544
15883TIP3    H169140   0.635   2.675   4.665 -1.7672 -0.4107  0.0395
15883TIP3    H269141   0.692   2.582   4.770 -0.2574 -0.7776 -1.0675
15884TIP3   OH269142   2.960   3.440  11.339  0.0401  0.2092 -0.5909
15884TIP3    H169143   2.997   3.352  11.334  0.6926  0.5456 -2.2833
15884TIP3    H269144   2.994   3.476  11.421  0.9992 -0.5808 -0.6259
15885TIP3   OH269145   0.226   2.055   1.062 -0.1096 -0.0430 -0.2040
15885TIP3    H169146   0.150   2.110   1.045 -2.1206 -2.4798  0.3081
15885TIP3    H269147   0.270   2.097   1.136 -3.3133 -0.6007  2.2678
15886TIP3   OH269148   5.603   6.734   5.866  0.7523 -0.0734 -0.2128
15886TIP3    H169149   5.626   6.771   5.781  0.7800  0.2604 -0.0602
15886TIP3    H269150   5.591   6.640   5.849  2.1728 -0.2573 -0.3053
15887TIP3   OH269151   5.582   1.468  14.666 -0.2883 -0.6111  0.0428
15887TIP3    H169152   5.609   1.559  14.655  0.1569 -0.9016 -1.5154
15887TIP3    H269153   5.659   1.423  14.700 -0.2305 -0.5702 -0.0344
15888TIP3   OH269154   6.701   4.063   0.593  0.6348 -0.2228  0.0109
15888TIP3    H169155   6.695   4.130   0.525  1.3754 -1.3285 -1.1976
15888TIP3    H269156   6.615   4.021   0.595  0.1699  0.7329  0.7716
15889TIP3   OH269157   1.104   5.771  11.478 -0.2717  0.1732 -0.0550
15889TIP3    H169158   1.025   5.749  11.428 -1.1760  1.5593  0.7095
15889TIP3    H269159   1.131   5.856  11.444 -1.2383  1.4295  2.1284
15890TIP3   OH269160   4.632   2.334  13.982 -0.1824  0.3026 -0.5261
15890TIP3    H169161   4.704   2.387  14.017 -0.0576  0.8601 -1.5819
15890TIP3    H269162   4.620   2.366  13.892 -1.3771 -0.1705 -0.5553
15891TIP3   OH269163   5.557   2.465  12.177  0.7103  0.1663  0.2497
15891TIP3    H169164   5.528   2.390  12.228  0.9583  1.1308  1.8780
15891TIP3    H269165   5.615   2.427  12.110  0.8340 -1.0805  1.0295
15892TIP3   OH269166   6.754   0.771  11.371  0.2129 -0.0468  0.1603
15892TIP3    H169167   6.738   0.679  11.353 -0.8436  0.2954 -0.7287
15892TIP3    H269168   6.705   0.789  11.451 -1.5213  0.2631 -0.9093
15893TIP3   OH269169   4.741   0.942   5.394  0.2096  0.2369  0.6802
15893TIP3    H169170   4.736   0.848   5.375 -0.6365  0.4292 -0.1156
15893TIP3    H269171   4.787   0.979   5.318  0.8973  0.4238  1.1791
15894TIP3   OH269172   5.576   2.769  12.033  0.3178  0.6940  0.0354
15894TIP3    H169173   5.599   2.708  12.103  0.7317 -0.2287 -0.8817
15894TIP3    H269174   5.603   2.725  11.952  2.4248  2.8832 -0.5650
15895TIP3   OH269175   5.760   3.057   5.425  0.2681  0.4810 -0.5865
15895TIP3    H169176   5.755   3.094   5.514 -0.0027  0.6597 -0.6729
15895TIP3    H269177   5.854   3.053   5.406  0.4183 -1.1613  0.3586
15896TIP3   OH269178   6.353   4.099   1.346 -0.1571  0.0734  0.0402
15896TIP3    H169179   6.437   4.086   1.389 -0.2444  0.5138  0.3499
15896TIP3    H269180   6.305   4.018   1.363  0.2889 -0.2841 -0.3539
15897TIP3   OH269181   2.211   4.740  11.377  0.5200 -0.6486 -0.0945
15897TIP3    H169182   2.239   4.830  11.395  0.8546 -0.8346  0.3310
15897TIP3    H269183   2.224   4.694  11.460 -0.8005 -0.8094  0.0426
15898TIP3   OH269184   5.946   2.388  15.538  0.1760 -0.2163  0.1774
15898TIP3    H169185   5.924   2.447  15.610  0.4087  0.8004 -0.5663
15898TIP3    H269186   5.950   2.302  15.578  1.2215  0.4431  1.5720
15899TIP3   OH269187   4.617   6.710   0.610 -0.5208 -0.7256  0.5849
15899TIP3    H169188   4.598   6.763   0.687  0.0451 -0.8449  0.8083
15899TIP3    H269189   4.549   6.735   0.547  0.6493  1.4350  0.0893
15900TIP3   OH269190   6.575   3.025  13.283  0.5651 -0.4689 -0.3285
15900TIP3    H169191   6.589   3.018  13.378 -4.1287 -3.8153  0.4649
15900TIP3    H269192   6.632   2.958  13.246  1.1610 -0.3402  0.3346
15901TIP3   OH269193   1.267   0.730   6.241 -0.4741 -0.4042  0.6701
15901TIP3    H169194   1.199   0.687   6.293 -1.0327 -1.0242 -0.5366
15901TIP3    H269195   1.266   0.683   6.157 -0.2121  1.1331 -0.2290
15902TIP3   OH269196   0.537   1.955  13.393 -0.3120  0.2491 -0.4210
15902TIP3    H169197   0.585   1.884  13.436 -1.8590  0.4650  1.8694
15902TIP3    H269198   0.594   2.031  13.404 -0.7026  0.3291  1.5254
15903TIP3   OH269199   1.775   6.267  12.199 -0.0942 -0.3520 -0.2946
15903TIP3    H169200   1.732   6.258  12.284  0.2423  1.2714  0.0880
15903TIP3    H269201   1.868   6.276  12.219 -0.0940  0.8594 -0.7560
15904TIP3   OH269202   4.232   0.884   2.500  0.0310  0.2497 -0.6613
15904TIP3    H169203   4.307   0.873   2.559  1.0062 -1.0392 -2.0646
15904TIP3    H269204   4.261   0.948   2.436 -0.6399  0.8453 -0.3903
15905TIP3   OH269205   6.245   3.135   4.513 -0.1851 -0.3860  0.1221
15905TIP3    H169206   6.155   3.104   4.524 -0.6991  0.6790 -0.9090
15905TIP3    H269207   6.238   3.210   4.454  1.4116 -0.4394 -0.1811
15906TIP3   OH269208   4.374   5.813   4.045  0.3827 -0.2572 -0.4565
15906TIP3    H169209   4.329   5.776   3.969 -2.3558  2.5053 -0.3485
15906TIP3    H269210   4.413   5.894   4.012 -0.6518  0.8637  0.9675
15907TIP3   OH269211   5.351   2.777   2.755  0.0485  0.4064  0.5476
15907TIP3    H169212   5.310   2.693   2.731  1.2794  0.2223 -1.0844
15907TIP3    H269213   5.299   2.842   2.708  0.4861  0.3367 -0.0434
15908TIP3   OH269214   5.269   0.367  12.704  0.7292  0.4364  0.4823
15908TIP3    H169215   5.313   0.283  12.721  0.0254 -0.0848 -0.2092
15908TIP3    H269216   5.299   0.392  12.617 -2.9443 -1.7324 -1.6882
15909TIP3   OH269217   3.040   3.312  12.628  0.0876 -0.4270  0.5687
15909TIP3    H169218   2.946   3.330  12.641 -0.3645 -2.9745  1.4301
15909TIP3    H269219   3.061   3.356  12.546 -2.1857 -0.7793 -0.2897
15910TIP3   OH269220   0.207   1.514   1.723 -0.1588 -0.1199  0.1546
15910TIP3    H169221   0.172   1.579   1.783 -1.9384 -0.9217  0.0647
15910TIP3    H269222   0.263   1.459   1.776  1.4004  1.4455  0.2271
15911TIP3   OH269223   4.916   5.672   1.343  0.6294  0.0791 -0.0269
15911TIP3    H169224   4.948   5.663   1.253  0.0372  1.6901 -0.4364
15911TIP3    H269225   4.836   5.724   1.335  0.4835  0.1254  1.4264
15912TIP3   OH269226   1.208   3.375   2.575 -0.5910  0.3567 -0.7645
15912TIP3    H169227   1.224   3.422   2.493 -1.1292  0.0241 -1.0685
15912TIP3    H269228   1.174   3.441   2.635 -0.9539  0.4393 -1.0591
15913TIP3   OH269229   6.011   0.137   6.169  0.2060  0.1163 -0.1423
15913TIP3    H169230   6.104   0.159   6.165 -0.0871  1.2680 -2.5756
15913TIP3    H269231   5.966   0.219   6.150 -1.3019 -0.5316  0.4922
15914TIP3   OH269232   0.569   6.078  12.743  0.1742  0.3037  0.3778
15914TIP3    H169233   0.535   6.099  12.656  1.5679  1.9899  0.1672
15914TIP3    H269234   0.663   6.069  12.729  0.6950  2.4335  1.9397
15915TIP3   OH269235   1.050   2.413  10.390  0.1490 -0.4611  0.2918
15915TIP3    H169236   1.059   2.474  10.464  0.4235 -0.5247  0.3130
15915TIP3    H269237   1.128   2.429  10.337 -0.3991  0.0953 -0.3731
15916TIP3   OH269238   6.057   0.738  12.156 -0.0344  0.3768 -0.1172
15916TIP3    H169239   6.136   0.693  12.185 -1.8375 -2.0760  1.3679
15916TIP3    H269240   6.035   0.695  12.073  0.5097  1.5501 -0.9001
15917TIP3   OH269241   4.010   5.977   4.551  0.3712  0.0127  0.3591
15917TIP3    H169242   3.964   5.961   4.633  0.2971  0.3347  0.3812
15917TIP3    H269243   3.940   5.986   4.486  0.2558  2.7125  0.7551
15918TIP3   OH269244   5.118   1.805   0.002 -0.1463  0.0091 -0.4862
15918TIP3    H169245   5.205   1.815  -0.035 -0.5350  0.8793 -1.2147
15918TIP3    H269246   5.089   1.894   0.020 -1.4363 -0.1328 -1.6382
15919TIP3   OH269247   1.017   3.891   4.366 -0.0627 -0.3610  0.0007
15919TIP3    H169248   1.108   3.864   4.350 -0.1094  0.4154 -1.9211
15919TIP3    H269249   0.972   3.870   4.284 -1.3125  0.4816  0.4527
15920TIP3   OH269250   1.706   3.454   4.747 -0.0727 -0.0616 -0.0850
15920TIP3    H169251   1.720   3.510   4.824 -1.4604  0.8872 -0.4818
15920TIP3    H269252   1.760   3.495   4.679 -0.1601  0.1019 -0.0582
15921TIP3   OH269253   2.237   5.232   4.209 -0.4751 -0.1764 -0.2883
15921TIP3    H169254   2.172   5.165   4.187 -0.2185 -1.1505  1.6452
15921TIP3    H269255   2.297   5.189   4.270  1.8407  0.7915 -1.7225
15922TIP3   OH269256   0.565   4.388  14.333  0.2637 -0.1320  0.0736
15922TIP3    H169257   0.529   4.443  14.403  0.0276 -0.5987  0.3234
15922TIP3    H269258   0.656   4.416  14.326 -0.1424  1.0746 -0.5855
15923TIP3   OH269259   0.166   2.456   3.936  0.9370  0.0717 -0.2917
15923TIP3    H169260   0.225   2.395   3.891  2.8177  2.3355 -1.0536
15923TIP3    H269261   0.148   2.524   3.870 -1.2772  0.2882  0.4569
15924TIP3   OH269262   3.138   5.166  14.569 -0.0617  0.6536  0.3811
15924TIP3    H169263   3.084   5.159  14.490 -0.0852  0.5239  0.4100
15924TIP3    H269264   3.082   5.210  14.633 -0.0655  0.6969  0.3481
15925TIP3   OH269265   4.638   5.782   1.843  0.1571  0.0377  0.4184
15925TIP3    H169266   4.615   5.753   1.931  0.6973 -1.5760  0.0646
15925TIP3    H269267   4.554   5.792   1.798 -0.0620 -0.8111  0.6251
15926TIP3   OH269268   6.735   4.496  11.529 -0.2038  0.0605 -0.1900
15926TIP3    H169269   6.654   4.502  11.478 -0.6778  1.4912  0.6682
15926TIP3    H269270   6.730   4.570  11.590  1.3022 -0.4042  0.5358
15927TIP3   OH269271   1.739   1.878  13.609  0.3500 -0.0971 -0.3304
15927TIP3    H169272   1.796   1.823  13.556 -1.1266 -1.8653 -0.1837
15927TIP3    H269273   1.737   1.835  13.695  0.0131  0.8056  0.1297
15928TIP3   OH269274   0.588   6.231  10.645  0.1310  0.2015  0.0190
15928TIP3    H169275   0.586   6.142  10.608  0.8779 -0.7756  2.1372
15928TIP3    H269276   0.679   6.258  10.636 -0.2222  1.0631 -1.2087
15929TIP3   OH269277   4.678   5.285   3.066  0.0867 -0.0411 -1.1692
15929TIP3    H169278   4.726   5.204   3.088 -0.2863 -0.1925 -0.9074
15929TIP3    H269279   4.649   5.272   2.975 -1.8692 -1.1602 -0.4456
15930TIP3   OH269280   4.004   4.697  15.886  0.0513 -0.1673 -0.0262
15930TIP3    H169281   3.952   4.642  15.946 -0.9419  0.5213 -0.2258
15930TIP3    H269282   3.938   4.750  15.841  0.7291 -0.9960 -2.0635
15931TIP3   OH269283   0.925   4.641   5.137  0.1920 -0.3627  0.0055
15931TIP3    H169284   0.909   4.583   5.211 -1.5353  0.5684  0.4137
15931TIP3    H269285   0.926   4.729   5.175 -0.5828  0.1163 -1.0280
15932TIP3   OH269286   5.496   2.258  10.747  0.3550  0.4800  0.0405
15932TIP3    H169287   5.402   2.242  10.739  0.6358 -0.7895 -1.2722
15932TIP3    H269288   5.533   2.172  10.769  1.2453  0.8555  0.0473
15933TIP3   OH269289   1.616   4.368  14.040 -0.3811  0.7441 -0.1834
15933TIP3    H169290   1.632   4.409  13.955 -0.9666  1.4125  0.0147
15933TIP3    H269291   1.703   4.359  14.079  0.0516 -0.9030 -1.4279
15934TIP3   OH269292   2.227   5.709  16.478  0.6898 -0.2747 -0.4364
15934TIP3    H169293   2.266   5.630  16.514  1.2392 -0.2275 -0.9259
15934TIP3    H269294   2.244   5.704  16.384  2.0750  1.1745 -0.2909
15935TIP3   OH269295   0.518   4.996  12.217  0.1091 -0.4681  0.4582
15935TIP3    H169296   0.434   4.954  12.196  0.3501 -0.3828 -0.7464
15935TIP3    H269297   0.580   4.955  12.158  0.5044  1.0468 -0.2107
15936TIP3   OH269298   0.956   1.153  13.673  0.2535  0.2493 -0.0825
15936TIP3    H169299   1.009   1.110  13.739 -1.8238  0.1704  1.6518
15936TIP3    H269300   0.949   1.244  13.702  1.1128  0.7864 -1.4280
15937TIP3   OH269301   4.971   4.563  13.955  0.3705 -0.1789 -0.5404
15937TIP3    H169302   4.965   4.586  14.048  0.1736 -1.4898 -0.1976
15937TIP3    H269303   5.050   4.510  13.948 -0.8004 -2.0457 -0.6203
15938TIP3   OH269304   2.090   2.793  12.105  0.2389 -0.0841  0.2685
15938TIP3    H169305   2.039   2.794  12.186 -1.5537 -1.4955 -0.7840
15938TIP3    H269306   2.046   2.856  12.048 -0.5834 -1.5653 -0.7749
15939TIP3   OH269307   4.505   2.050   3.924 -0.0233 -0.0132  0.5467
15939TIP3    H169308   4.477   2.136   3.890  0.4618  0.4784  1.3655
15939TIP3    H269309   4.593   2.038   3.888 -0.6342 -0.8629 -0.7704
15940TIP3   OH269310   1.160   5.366   1.683 -0.7413  0.1800 -0.0696
15940TIP3    H169311   1.255   5.373   1.685 -0.3852 -0.7990 -3.9615
15940TIP3    H269312   1.141   5.280   1.721 -0.2499  0.8054  1.6818
15941TIP3   OH269313   0.527   4.093  12.096 -0.8211  0.3157 -0.5988
15941TIP3    H169314   0.536   4.174  12.044  1.9689  1.1643  0.9618
15941TIP3    H269315   0.466   4.040  12.046  0.1789  1.8347 -3.7797
15942TIP3   OH269316   4.484   2.920  11.376 -0.2888  0.0742  0.5103
15942TIP3    H169317   4.542   2.883  11.443  1.9378  0.8877 -0.8547
15942TIP3    H269318   4.525   2.895  11.293 -1.6233  1.1597 -0.5042
15943TIP3   OH269319   4.263   4.840   6.511 -0.0390  0.8480  0.0400
15943TIP3    H169320   4.275   4.917   6.567  0.7161 -0.2062  1.4012
15943TIP3    H269321   4.199   4.867   6.445  1.4346  3.1524 -0.5433
15944TIP3   OH269322   4.984   2.775   4.896  0.0066  0.5428 -0.2921
15944TIP3    H169323   4.896   2.739   4.881  0.2597 -1.1985  1.9092
15944TIP3    H269324   5.040   2.725   4.836 -0.0714 -0.8247  0.7120
15945TIP3   OH269325   2.701   4.923   4.765 -0.0079 -0.2833 -0.5698
15945TIP3    H169326   2.608   4.904   4.753 -0.0648 -0.3311 -0.0683
15945TIP3    H269327   2.719   4.993   4.703 -0.4656 -0.0151 -0.4092
15946TIP3   OH269328   5.111   5.057   4.160  0.3716  0.4126  0.5510
15946TIP3    H169329   5.154   5.125   4.212  1.2414  0.8273 -0.6729
15946TIP3    H269330   5.036   5.030   4.214  0.1041  2.2120  1.1496
15947TIP3   OH269331   1.737   6.557   0.144  0.2848  0.0597 -0.4901
15947TIP3    H169332   1.711   6.644   0.176 -1.7509  0.1991 -2.3086
15947TIP3    H269333   1.811   6.533   0.199 -1.0281  1.6017  2.1765
15948TIP3   OH269334   4.500   0.308   0.697 -0.1811 -0.1458 -0.5858
15948TIP3    H169335   4.449   0.335   0.773  0.5914 -1.3303  0.3993
15948TIP3    H269336   4.522   0.390   0.652  0.5116  0.7339  1.2487
15949TIP3   OH269337   0.304   4.425  13.645  0.6280 -0.5136 -0.7209
15949TIP3    H169338   0.324   4.362  13.576  0.5080  0.1233 -1.3471
15949TIP3    H269339   0.302   4.510  13.601  0.6526 -0.0820  0.0853
15950TIP3   OH269340   1.152   5.523  13.318  0.1447 -0.1623 -0.2588
15950TIP3    H169341   1.120   5.540  13.229 -0.2283 -0.4773 -0.1852
15950TIP3    H269342   1.104   5.446  13.347  1.1188 -0.7712 -0.2236
15951TIP3   OH269343   3.260   1.544  13.051 -0.1721  0.1548  0.2218
15951TIP3    H169344   3.166   1.535  13.036 -0.7313 -0.4593  3.3320
15951TIP3    H269345   3.267   1.625  13.102  0.3975 -1.6055  3.2028
15952TIP3   OH269346   3.211   2.780  15.017  0.1009 -0.0056 -0.7085
15952TIP3    H169347   3.158   2.775  15.096 -0.0480 -1.9531 -0.8683
15952TIP3    H269348   3.158   2.736  14.950  0.9184  0.1207 -1.4622
15953TIP3   OH269349   6.407   4.791   2.164  0.3715 -0.5422 -0.0757
15953TIP3    H169350   6.435   4.872   2.207 -1.6423  0.2712 -0.1484
15953TIP3    H269351   6.471   4.778   2.094  2.4551 -0.7059  1.7566
15954TIP3   OH269352   6.091   1.021   0.928 -0.6558 -0.0377 -0.4977
15954TIP3    H169353   6.168   1.011   0.984 -0.1043  1.4847 -0.9327
15954TIP3    H269354   6.127   1.050   0.844 -1.7190  0.8655 -0.6579
15955TIP3   OH269355   5.382   3.805  13.273  0.0005  0.3419 -0.0316
15955TIP3    H169356   5.357   3.713  13.278  0.7682 -0.0252 -2.1187
15955TIP3    H269357   5.346   3.835  13.190 -0.5467  2.0455  0.7832
15956TIP3   OH269358   4.376   2.739  13.244  0.6081 -0.5825 -0.1812
15956TIP3    H169359   4.298   2.706  13.289 -0.3422  0.2742 -1.1660
15956TIP3    H269360   4.380   2.690  13.162  0.8142 -0.2410 -0.3761
15957TIP3   OH269361   1.613   6.787  14.122  0.7607  0.1190 -0.1643
15957TIP3    H169362   1.530   6.766  14.165  0.1761 -0.9333 -1.7273
15957TIP3    H269363   1.590   6.852  14.055  1.5487  1.2894  0.6678
15958TIP3   OH269364   6.405   0.824   1.575  0.7702 -0.3233  0.2644
15958TIP3    H169365   6.403   0.745   1.520 -0.1183  0.3438 -0.6914
15958TIP3    H269366   6.469   0.881   1.532 -1.8633  1.3349 -1.7847
15959TIP3   OH269367   2.399   3.111   6.723 -0.2283  0.2069 -0.3034
15959TIP3    H169368   2.442   3.073   6.646  0.3963  0.8226 -0.2630
15959TIP3    H269369   2.381   3.035   6.779 -2.1387 -0.4738 -1.7162
15960TIP3   OH269370   2.264   0.772  12.192 -0.1150 -0.5671 -0.4954
15960TIP3    H169371   2.335   0.766  12.128 -1.5247  1.0523 -2.3366
15960TIP3    H269372   2.249   0.866  12.203 -2.5397 -0.8343 -0.8799
15961TIP3   OH269373   2.881   4.510  12.831 -0.1005 -0.4341 -0.2361
15961TIP3    H169374   2.842   4.480  12.749 -1.3409  3.1896 -1.1595
15961TIP3    H269375   2.956   4.564  12.803 -0.9336  1.4008  0.8611
15962TIP3   OH269376   3.500   0.073  12.276 -0.0201  0.1024 -0.6526
15962TIP3    H169377   3.570   0.128  12.240  0.5609 -0.4690 -0.4222
15962TIP3    H269378   3.451   0.044  12.199 -0.8319  1.5722 -0.7250
15963TIP3   OH269379   3.185   3.391  12.867 -0.0829  0.0646 -0.1276
15963TIP3    H169380   3.162   3.354  12.782  2.0168 -1.2767 -0.1694
15963TIP3    H269381   3.228   3.474  12.845  1.3436 -0.7330 -0.4941
15964TIP3   OH269382   3.652   5.601   4.105  0.0924 -0.2448  0.6302
15964TIP3    H169383   3.571   5.627   4.150  0.0762 -0.5315  0.7669
15964TIP3    H269384   3.680   5.681   4.059 -2.6141 -1.1157 -3.0743
15965TIP3   OH269385   6.773   6.634   5.057  0.1687 -0.1511 -0.4121
15965TIP3    H169386   6.864   6.664   5.051 -0.2027  1.2936  0.6791
15965TIP3    H269387   6.736   6.651   4.970  0.2897  1.5822 -0.1512
15966TIP3   OH269388   2.978   4.492   1.182 -0.0063  0.1489  0.5498
15966TIP3    H169389   2.918   4.423   1.212 -0.3870 -0.8537 -2.1848
15966TIP3    H269390   2.922   4.554   1.136  0.4886  1.8042  2.0801
15967TIP3   OH269391   1.191   0.036   0.406  0.4329  0.0153  0.1299
15967TIP3    H169392   1.245  -0.029   0.360  0.9943  0.6574 -0.1443
15967TIP3    H269393   1.110   0.040   0.356  0.6900  0.0580 -0.2919
15968TIP3   OH269394   0.700   6.486   5.917  0.1516 -0.2043  0.7242
15968TIP3    H169395   0.647   6.438   5.980 -0.5142  2.3333  2.2274
15968TIP3    H269396   0.695   6.434   5.837 -0.3618 -2.6589  2.2571
15969TIP3   OH269397   2.280   1.614  16.268 -0.3207  0.1996  0.0832
15969TIP3    H169398   2.216   1.656  16.325 -1.0846  1.3550 -1.5456
15969TIP3    H269399   2.232   1.543  16.225  0.1548 -0.4472  0.6022
15970TIP3   OH269400   3.348   2.530  14.691 -0.0843 -0.1488  0.6772
15970TIP3    H169401   3.364   2.568  14.605 -0.1422 -0.6746  0.4348
15970TIP3    H269402   3.259   2.558  14.714  0.2950  0.8279  1.0098
15971TIP3   OH269403   5.985   2.502  14.661  0.1231 -0.0508  0.7372
15971TIP3    H169404   5.995   2.431  14.725  0.5302 -0.2923  0.4124
15971TIP3    H269405   5.901   2.483  14.619  1.4949 -2.0205 -1.3434
15972TIP3   OH269406   5.756   5.520  14.446 -0.2312 -0.3156  0.0011
15972TIP3    H169407   5.818   5.573  14.397 -1.2982 -0.2908 -1.3821
15972TIP3    H269408   5.798   5.434  14.453 -0.3969 -0.5637 -1.7215
15973TIP3   OH269409   2.622   0.895   0.962 -0.4168 -0.6021 -0.1102
15973TIP3    H169410   2.685   0.835   0.923 -1.1060 -0.8079 -0.9354
15973TIP3    H269411   2.672   0.945   1.027  1.2381  1.0543 -2.5175
15974TIP3   OH269412   2.952   2.721   1.987 -0.2352  0.1113 -0.4593
15974TIP3    H169413   2.978   2.793   2.044 -1.6914 -1.5608  2.5226
15974TIP3    H269414   3.022   2.656   1.996 -0.6269 -0.2959 -0.3326
15975TIP3   OH269415   5.184   1.715  11.563 -0.4255 -0.0800  0.0500
15975TIP3    H169416   5.184   1.742  11.471 -0.3109 -0.2662 -0.0038
15975TIP3    H269417   5.250   1.772  11.604 -2.3237  1.9001  0.5742
15976TIP3   OH269418   1.748   2.275   3.048  0.2684 -0.1183  0.2620
15976TIP3    H169419   1.806   2.207   3.013 -0.2652 -0.9805  1.0221
15976TIP3    H269420   1.805   2.329   3.102  0.5716 -0.3621  0.1915
15977TIP3   OH269421   3.878   0.729   0.820  0.0651 -0.2971 -0.2283
15977TIP3    H169422   3.842   0.816   0.839  2.0384  0.4649  0.2477
15977TIP3    H269423   3.971   0.744   0.805  0.7562 -2.5061  1.3217
15978TIP3   OH269424   6.535   1.257  14.182  0.3770  0.2575  0.2467
15978TIP3    H169425   6.524   1.186  14.119  0.4199  0.7139 -0.2834
15978TIP3    H269426   6.587   1.219  14.252  0.2147 -0.2989  0.0746
15979TIP3   OH269427   4.524   5.001   4.290 -0.4728 -0.1262  0.5161
15979TIP3    H169428   4.520   5.050   4.208  2.3231  0.4555  0.6117
15979TIP3    H269429   4.447   5.029   4.339 -1.1033  1.0765 -1.0780
15980TIP3   OH269430   6.627   5.099  16.224  0.1248  0.1941 -0.2315
15980TIP3    H169431   6.554   5.037  16.231  1.1078 -0.9472  0.1530
15980TIP3    H269432   6.629   5.123  16.131 -2.0697  1.9575  0.0724
15981TIP3   OH269433   2.384   4.237   3.462 -0.0092 -0.5112  0.1734
15981TIP3    H169434   2.445   4.296   3.417 -0.0591 -0.6508 -0.0787
15981TIP3    H269435   2.337   4.193   3.391 -1.4278  0.6407  0.3467
15982TIP3   OH269436   6.471   3.287  14.645  0.0390 -0.4313  0.3005
15982TIP3    H169437   6.534   3.343  14.600 -1.4487  0.7476 -0.4328
15982TIP3    H269438   6.477   3.203  14.599 -0.5778  0.3841 -1.3796
15983TIP3   OH269439   0.038   1.309   0.643  0.2729 -0.1202 -0.2499
15983TIP3    H169440   0.058   1.259   0.563 -0.8456 -0.5165 -0.3114
15983TIP3    H269441  -0.057   1.323   0.638  0.3903  0.9436  0.3952
15984TIP3   OH269442   5.191   5.163   6.561 -0.1229  0.5593 -0.4561
15984TIP3    H169443   5.116   5.138   6.507  0.4759 -1.5333 -0.4264
15984TIP3    H269444   5.152   5.200   6.640 -1.2101 -1.5400  0.0644
15985TIP3   OH269445   0.682   1.378  14.936  0.3340  0.4730  0.8765
15985TIP3    H169446   0.624   1.432  14.882 -2.2889 -1.3680  1.6459
15985TIP3    H269447   0.704   1.303  14.880  2.5159  1.4122  0.4060
15986TIP3   OH269448   5.692   4.376  12.221 -0.1772 -0.1220  0.4736
15986TIP3    H169449   5.731   4.426  12.149 -2.5088  0.6408 -0.3469
15986TIP3    H269450   5.613   4.425  12.244 -0.8997 -1.8009  1.7600
15987TIP3   OH269451   0.496   6.470  14.016  0.1885 -0.5183  0.2542
15987TIP3    H169452   0.503   6.492  13.923  1.0007  1.4461  0.7153
15987TIP3    H269453   0.405   6.440  14.027 -0.3661  0.6191 -0.9219
15988TIP3   OH269454   5.167   6.707   5.533 -0.3240 -0.0416 -0.1821
15988TIP3    H169455   5.078   6.713   5.567 -0.4353 -0.5808 -0.3586
15988TIP3    H269456   5.207   6.792   5.553 -0.7492  0.0589  0.2487
15989TIP3   OH269457   2.649   6.677  15.403  0.1505  1.0017  0.1905
15989TIP3    H169458   2.555   6.687  15.415  0.1151  0.4418  0.3858
15989TIP3    H269459   2.683   6.668  15.492 -0.0110 -2.3238  0.0444
15990TIP3   OH269460   4.633   2.029  14.747  0.0087  0.1412 -0.6055
15990TIP3    H169461   4.615   1.976  14.669  1.7515 -2.5443  0.6994
15990TIP3    H269462   4.690   1.975  14.801  2.0680  3.4511  0.8218
15991TIP3   OH269463   1.475   5.584  10.950  0.6579  0.6824  0.4498
15991TIP3    H169464   1.547   5.640  10.921  0.9184 -0.9615 -2.4733
15991TIP3    H269465   1.396   5.637  10.935  1.0058  0.9079 -0.7311
15992TIP3   OH269466   6.708   1.268  16.959 -0.2385  0.5037 -0.3090
15992TIP3    H169467   6.652   1.342  16.985  1.8429  3.0078 -2.3383
15992TIP3    H269468   6.676   1.243  16.872  0.0596  0.1130 -0.3082
15993TIP3   OH269469   3.105   4.760  14.915  0.0121  0.0939 -0.2420
15993TIP3    H169470   3.016   4.796  14.919  0.3157  0.8346 -0.1464
15993TIP3    H269471   3.157   4.828  14.873  0.5036 -0.4155 -0.4737
15994TIP3   OH269472   6.076   4.541  17.062 -0.0337 -0.7853  0.5199
15994TIP3    H169473   6.160   4.499  17.044 -0.9143 -2.4451  0.1622
15994TIP3    H269474   6.086   4.576  17.151  1.6708  0.7659 -0.2032
15995TIP3   OH269475   1.767   3.230  10.708 -0.0883 -0.4491 -0.2849
15995TIP3    H169476   1.804   3.272  10.630  0.3729 -0.6976 -0.2020
15995TIP3    H269477   1.745   3.303  10.766  1.6867 -0.3463  0.2963
15996TIP3   OH269478   3.580   2.953  15.638 -0.4808 -0.3357 -0.2115
15996TIP3    H169479   3.488   2.943  15.660 -0.6370 -0.1975 -0.7969
15996TIP3    H269480   3.598   3.047  15.648 -0.3543 -0.3893  0.0822
15997TIP3   OH269481   0.416   1.023  12.536  0.2065  0.3677 -0.0140
15997TIP3    H169482   0.464   1.037  12.455  1.7950  2.6760  1.2184
15997TIP3    H269483   0.450   0.940  12.571  0.6094  0.1403 -0.9286
15998TIP3   OH269484   1.501   1.891  13.785 -0.5451  0.2375 -0.0944
15998TIP3    H169485   1.525   1.842  13.863  0.3561 -0.6214 -0.8971
15998TIP3    H269486   1.422   1.939  13.811  0.2463  0.6898  1.6215
15999TIP3   OH269487   3.348   1.426  17.060 -0.0112 -0.7437 -0.2936
15999TIP3    H169488   3.350   1.464  17.148 -0.3423 -1.3304 -0.0295
15999TIP3    H269489   3.409   1.353  17.063  0.6252 -0.2471 -0.8037
16000TIP3   OH269490   2.671   1.497  13.994 -0.1621  0.4196  0.3974
16000TIP3    H169491   2.701   1.580  14.033 -1.2155  1.1898 -0.3756
16000TIP3    H269492   2.597   1.471  14.049  1.4342 -1.1651  1.9365
16001TIP3   OH269493   3.873   2.685  17.181 -0.0177 -0.1288 -0.3869
16001TIP3    H169494   3.899   2.693  17.272  0.1823  0.3739 -0.4880
16001TIP3    H269495   3.809   2.614  17.180 -0.7946  0.5541  0.2944
16002TIP3   OH269496   0.213   5.020   0.293 -0.4430 -0.0726 -0.2085
16002TIP3    H169497   0.255   5.088   0.241 -0.7941  1.1270  1.0335
16002TIP3    H269498   0.271   5.007   0.368 -1.2427  0.1313  0.4633
16003TIP3   OH269499   5.832   5.139   0.244  0.0848  0.0535  0.1190
16003TIP3    H169500   5.854   5.140   0.337  2.6044  2.9026 -0.3592
16003TIP3    H269501   5.741   5.170   0.240  0.6427  2.0938  1.5976
16004TIP3   OH269502   2.425   1.211  13.032  1.0899 -0.4876 -0.2504
16004TIP3    H169503   2.431   1.164  12.949 -0.0625 -1.7021  0.3285
16004TIP3    H269504   2.387   1.295  13.009  0.1113 -1.0825 -0.8765
16005TIP3   OH269505   1.747   5.596  10.842 -0.5412  0.4038 -0.1655
16005TIP3    H169506   1.785   5.661  10.783  1.4471 -0.7143 -0.1944
16005TIP3    H269507   1.686   5.547  10.788  1.0370 -0.4217 -1.2904
16006TIP3   OH269508   2.692   1.096  15.626  0.2330  0.0171 -0.2834
16006TIP3    H169509   2.733   1.160  15.685 -1.1916  2.2107 -1.5578
16006TIP3    H269510   2.606   1.079  15.665  0.4532 -0.8736 -0.1597
16007TIP3   OH269511   6.281   2.420   3.464 -0.4586 -0.0220  0.7920
16007TIP3    H169512   6.241   2.338   3.492 -2.1768 -0.2321 -1.8357
16007TIP3    H269513   6.345   2.441   3.531  1.1847 -4.3109  0.8253
16008TIP3   OH269514   0.150   5.980   4.519  0.1190 -0.0698  0.5313
16008TIP3    H169515   0.080   5.984   4.454  0.4972  0.6184  0.1562
16008TIP3    H269516   0.113   6.021   4.597 -0.2423 -0.6506  0.6724
16009TIP3   OH269517   3.933   4.735   5.374 -0.2744  0.2121 -0.2337
16009TIP3    H169518   4.016   4.702   5.340 -0.5790 -0.6188 -0.1944
16009TIP3    H269519   3.925   4.823   5.336  0.9659  0.5978  0.3592
16010TIP3   OH269520   3.496   2.696  14.875  0.1561  0.0222 -0.0854
16010TIP3    H169521   3.488   2.787  14.844 -1.5669  0.0376  0.3385
16010TIP3    H269522   3.491   2.643  14.795 -0.7716  0.2275 -0.1771
16011TIP3   OH269523   0.988   6.525   1.479  0.2783 -0.2383 -0.0640
16011TIP3    H169524   1.061   6.561   1.530 -0.3983  0.3677  0.5096
16011TIP3    H269525   1.030   6.483   1.404  1.1664  1.0712 -0.3470
16012TIP3   OH269526   5.809   2.378  13.089 -0.3132  0.1711  0.0429
16012TIP3    H169527   5.855   2.455  13.122 -0.6767  0.8986 -1.0652
16012TIP3    H269528   5.851   2.359  13.005  0.6160 -1.6396  0.8522
16013TIP3   OH269529   0.167   4.413  14.866  0.5116 -0.2423  0.2619
16013TIP3    H169530   0.210   4.394  14.783  1.4350 -0.9641  0.8883
16013TIP3    H269531   0.075   4.391  14.851  0.4100  0.9123 -0.9576
16014TIP3   OH269532   5.567   0.693  17.022 -0.2014 -0.3188  0.9155
16014TIP3    H169533   5.581   0.604  16.990  1.1342 -0.2053  1.1524
16014TIP3    H269534   5.501   0.683  17.091  0.1291 -1.1672  1.1216
16015TIP3   OH269535   4.265   5.919   2.159  0.0432  0.0309 -0.3378
16015TIP3    H169536   4.239   5.942   2.249 -0.1227  0.4276 -0.4818
16015TIP3    H269537   4.191   5.949   2.105  0.4932  0.5249 -0.6866
16016TIP3   OH269538   5.987   2.470   3.295 -0.6791  0.0400  0.0027
16016TIP3    H169539   5.914   2.409   3.288  0.7514 -1.6590 -0.8617
16016TIP3    H269540   6.017   2.462   3.386  0.2967 -1.5907 -0.4164
16017TIP3   OH269541   3.845   0.595  16.800 -0.6309  0.1564 -0.0628
16017TIP3    H169542   3.823   0.580  16.708 -0.4332  0.0174 -0.0880
16017TIP3    H269543   3.805   0.522  16.847  0.7961 -0.7844 -0.2480
16018TIP3   OH269544   2.520   0.385  15.350 -0.5588 -0.3989  0.0462
16018TIP3    H169545   2.513   0.298  15.390  1.7411 -0.4225  0.5759
16018TIP3    H269546   2.465   0.442  15.403 -0.8125 -1.2269  0.6880
16019TIP3   OH269547   3.506   5.783  12.773  0.2947 -0.0149  0.4501
16019TIP3    H169548   3.561   5.734  12.834  0.0258 -0.3417  0.4344
16019TIP3    H269549   3.465   5.716  12.718 -1.3744  0.0990  1.5050
16020TIP3   OH269550   5.602   1.225   0.260  0.6505 -0.8350 -0.7841
16020TIP3    H169551   5.590   1.169   0.183  0.3330 -1.1130 -0.5398
16020TIP3    H269552   5.629   1.164   0.329  1.6619 -0.4813 -0.8536
16021TIP3   OH269553   6.703   1.694  15.115  0.0231 -0.3210  0.1582
16021TIP3    H169554   6.624   1.666  15.069  0.9550  0.6578 -2.2001
16021TIP3    H269555   6.766   1.624  15.100  0.0748 -0.4050  0.7412
16022TIP3   OH269556   1.331   0.201  11.009 -0.1205 -0.2464 -0.1491
16022TIP3    H169557   1.238   0.186  11.026  0.2599 -2.8251 -0.0380
16022TIP3    H269558   1.341   0.184  10.916  0.0752  1.2076 -0.4181
16023TIP3   OH269559   0.085   5.102   3.340  0.3101 -0.2425 -0.0854
16023TIP3    H169560   0.121   5.040   3.276 -0.1408  0.6769 -1.2599
16023TIP3    H269561   0.120   5.187   3.314 -3.2295  0.8777 -1.8294
16024TIP3   OH269562   2.127   6.674   5.463 -0.0982 -0.2860 -0.3109
16024TIP3    H169563   2.214   6.642   5.438 -0.5716 -1.2376 -0.8156
16024TIP3    H269564   2.105   6.740   5.396 -0.5116 -1.3668 -1.2727
16025TIP3   OH269565   5.203   4.978  12.805 -0.5120 -0.2124 -0.3604
16025TIP3    H169566   5.279   4.946  12.853 -1.0641 -3.2649 -1.2815
16025TIP3    H269567   5.159   5.037  12.866  2.0231  0.8868  0.5395
16026TIP3   OH269568   4.163   6.617   1.145  0.0856 -0.1257  0.0237
16026TIP3    H169569   4.234   6.599   1.207 -0.9573 -0.5335  1.1557
16026TIP3    H269570   4.097   6.550   1.164  0.5271 -1.5683 -2.9497
16027TIP3   OH269571   0.753   2.338  16.882  0.0803 -0.5448  0.1663
16027TIP3    H169572   0.847   2.351  16.867 -0.2418  2.7215  0.3989
16027TIP3    H269573   0.714   2.343  16.795  0.0765 -1.9126  0.0694
16028TIP3   OH269574   5.248   3.842   5.275  0.3689  0.1886 -0.4449
16028TIP3    H169575   5.181   3.817   5.211 -0.4354  0.9202  0.0908
16028TIP3    H269576   5.302   3.907   5.230 -0.5406  1.1275 -0.2018
16029TIP3   OH269577   2.989   0.327  12.383  0.5370 -0.0127  0.1843
16029TIP3    H169578   2.902   0.367  12.389 -0.0071 -1.1362 -0.0412
16029TIP3    H269579   3.049   0.401  12.391 -0.4133  0.6891  1.2425
16030TIP3   OH269580   2.196   5.482   1.181  0.0688 -0.1739 -0.2131
16030TIP3    H169581   2.214   5.508   1.090  0.7788 -1.3063 -0.4219
16030TIP3    H269582   2.214   5.388   1.182 -2.0006 -0.6096  0.5970
16031TIP3   OH269583   2.300   4.685  11.899  0.3695 -0.4386 -0.0004
16031TIP3    H169584   2.272   4.601  11.937  1.1422 -0.7304 -0.0426
16031TIP3    H269585   2.306   4.668  11.805  0.0409 -0.1912 -0.0652
16032TIP3   OH269586   2.224   0.986   4.360  0.3900 -0.7229  0.0127
16032TIP3    H169587   2.248   1.058   4.301  2.6791 -0.7844  0.7859
16032TIP3    H269588   2.152   0.942   4.315  0.8575  0.3192 -1.8727
16033TIP3   OH269589   5.031   4.594   3.024 -0.2226  0.3320 -0.0526
16033TIP3    H169590   4.966   4.612   2.956  0.7280  0.9475 -0.8299
16033TIP3    H269591   5.053   4.680   3.059  1.6749  0.3964 -1.2487
16034TIP3   OH269592   4.771   4.155   5.025 -0.1999 -0.0761  0.5613
16034TIP3    H169593   4.744   4.116   5.109 -0.0061  1.3970  1.3545
16034TIP3    H269594   4.690   4.161   4.975 -0.2630 -1.2871  0.4812
16035TIP3   OH269595   4.236   0.352  14.582  0.1185  0.7839  0.1022
16035TIP3    H169596   4.326   0.382  14.572 -0.3640  1.7774 -1.6534
16035TIP3    H269597   4.210   0.321  14.495 -0.6243 -1.3779  1.0146
16036TIP3   OH269598   4.093   1.081  11.597 -0.0397  0.6998  0.2617
16036TIP3    H169599   4.110   0.987  11.595 -2.2215  0.2525 -0.2739
16036TIP3    H269600   4.130   1.111  11.680  1.7688 -0.3795 -0.1179
16037TIP3   OH269601   0.268   3.116   0.443 -0.0637 -0.2829 -0.3786
16037TIP3    H169602   0.354   3.107   0.401  0.2979  0.3304  0.2067
16037TIP3    H269603   0.285   3.170   0.520 -0.4118 -2.5335  1.3797
16038TIP3   OH269604   4.166   1.081   1.432  0.0384  0.1312  0.0615
16038TIP3    H169605   4.239   1.130   1.469  2.0097 -1.1187 -1.8755
16038TIP3    H269606   4.094   1.094   1.493  1.6386  2.0861  1.6604
16039TIP3   OH269607   5.407   1.870  15.245 -0.0883  0.2950  0.3950
16039TIP3    H169608   5.470   1.907  15.306  1.3744 -2.3103  0.6400
16039TIP3    H269609   5.392   1.781  15.278 -1.1821 -0.3384 -1.6368
16040TIP3   OH269610   1.768   1.545   0.248  0.0462  0.0825 -0.5415
16040TIP3    H169611   1.698   1.562   0.311 -0.2132 -1.1102 -0.4899
16040TIP3    H269612   1.734   1.580   0.165  0.0799  0.9801 -0.1902
16041TIP3   OH269613   4.753   0.011   2.465  0.4147  0.2116  0.1221
16041TIP3    H169614   4.726  -0.078   2.484 -0.4309  0.6485  1.0673
16041TIP3    H269615   4.843   0.016   2.498  1.4537 -1.0258 -2.3397
16042TIP3   OH269616   3.053   4.389   4.024 -0.0556  0.0487  0.2699
16042TIP3    H169617   3.131   4.444   4.018  0.3564 -0.6873 -2.4127
16042TIP3    H269618   2.980   4.450   4.030  0.5465  0.8185 -0.0809
16043TIP3   OH269619   1.429   0.126  13.623  0.0191 -0.3691  0.1115
16043TIP3    H169620   1.523   0.144  13.613  0.6633 -3.1700  0.3804
16043TIP3    H269621   1.402   0.183  13.695  1.6494  0.0245  0.4695
16044TIP3   OH269622   5.417   0.901   2.690 -0.0245 -0.0518  0.0352
16044TIP3    H169623   5.373   0.943   2.616 -3.1143 -1.5581  0.8402
16044TIP3    H269624   5.496   0.863   2.652 -0.3614  1.0860 -1.9897
16045TIP3   OH269625   6.437   4.615  12.974  0.5425 -0.1863  0.1106
16045TIP3    H169626   6.452   4.695  12.923  0.8593 -1.1095 -1.2975
16045TIP3    H269627   6.438   4.644  13.065  1.1991  1.3217 -0.3495
16046TIP3   OH269628   1.408   4.521  14.215  0.5383 -0.4454 -0.0304
16046TIP3    H169629   1.450   4.481  14.139  0.0837 -0.2665 -0.3799
16046TIP3    H269630   1.337   4.462  14.237 -0.4702  0.4042 -0.8760
16047TIP3   OH269631   5.894   5.680  11.868 -0.1338 -0.3702 -0.6265
16047TIP3    H169632   5.935   5.598  11.894  1.9966  0.8734  0.1344
16047TIP3    H269633   5.843   5.657  11.790 -0.3806 -2.5744  0.0991
16048TIP3   OH269634   4.202   2.108  11.602  0.0984 -0.3797  0.1274
16048TIP3    H169635   4.113   2.144  11.597 -0.0864 -0.9785 -1.5085
16048TIP3    H269636   4.254   2.180  11.638 -0.7422  0.6125 -0.5579
16049TIP3   OH269637   3.150   5.266   3.757 -0.4818  0.7051  0.0380
16049TIP3    H169638   3.098   5.235   3.831 -0.7541  0.9518 -0.0459
16049TIP3    H269639   3.102   5.234   3.680 -0.1711  0.4032 -0.0328
16050TIP3   OH269640   4.311   1.367  13.155  0.2192 -0.3636 -0.6952
16050TIP3    H169641   4.289   1.334  13.242 -0.1899 -2.3343 -1.5103
16050TIP3    H269642   4.238   1.425  13.133 -0.0605 -0.4517 -0.0418
16051TIP3   OH269643   4.026   6.706   2.692  0.0391 -0.1361 -0.4760
16051TIP3    H169644   4.011   6.786   2.641  0.9424 -0.0102 -0.5494
16051TIP3    H269645   4.091   6.657   2.642  0.5592 -0.2491  0.2947
16052TIP3   OH269646   1.770   2.328   4.200 -0.5647 -0.1162  0.3060
16052TIP3    H169647   1.756   2.278   4.280 -1.2426  2.9236  2.2519
16052TIP3    H269648   1.683   2.337   4.161 -0.8551  1.4077  1.2315
16053TIP3   OH269649   3.974   1.975   1.975 -0.3774  0.1208  0.2183
16053TIP3    H169650   3.950   1.927   2.054 -0.8687  0.9558  0.5928
16053TIP3    H269651   3.970   1.910   1.905 -2.4232 -0.0848  0.4761
16054TIP3   OH269652   0.922   2.799   3.721  0.3575  0.5302  0.5050
16054TIP3    H169653   0.930   2.850   3.801 -0.0098 -0.6712  1.3389
16054TIP3    H269654   0.997   2.739   3.723 -0.3828 -0.4046  0.6258
16055TIP3   OH269655   3.989   5.735   4.408 -0.1346 -0.3898 -0.0844
16055TIP3    H169656   4.052   5.802   4.436  0.9808 -0.6418 -1.8740
16055TIP3    H269657   3.998   5.731   4.313 -1.6142 -1.6958 -0.2127
16056TIP3   OH269658   0.857   4.256   1.183  0.1001 -0.0866  0.1635
16056TIP3    H169659   0.887   4.195   1.250 -2.9937 -0.9525  0.9683
16056TIP3    H269660   0.929   4.317   1.171  2.3209 -2.3084  1.2922
16057TIP3   OH269661   3.894   1.122   5.760  0.4609  0.4885  0.1167
16057TIP3    H169662   3.925   1.074   5.683  0.2031  1.2186 -0.4504
16057TIP3    H269663   3.891   1.213   5.732 -0.4675  0.6534  0.7219
16058TIP3   OH269664   2.037   2.823   1.538 -0.5001 -0.7296 -0.1254
16058TIP3    H169665   1.971   2.813   1.606 -0.6707  2.0721  0.2127
16058TIP3    H269666   1.989   2.860   1.463  0.6431  1.5987  0.2150
16059TIP3   OH269667   6.387   5.280  16.029  0.5581  0.3621  0.2422
16059TIP3    H169668   6.367   5.313  15.942  0.5818  1.0023  0.4746
16059TIP3    H269669   6.453   5.212  16.014 -0.9239 -0.9887 -0.4200
16060TIP3   OH269670   1.788   5.249   2.394 -0.1897  0.2401  0.3342
16060TIP3    H169671   1.702   5.209   2.408 -0.4998  0.4900 -0.7340
16060TIP3    H269672   1.829   5.194   2.327  2.0320 -2.1331  3.3413
16061TIP3   OH269673   5.646   4.225   2.277 -0.1702 -0.6850  0.4972
16061TIP3    H169674   5.671   4.249   2.188 -1.0512  1.1796  0.7032
16061TIP3    H269675   5.577   4.159   2.265 -0.1564 -0.5779 -0.2078
16062TIP3   OH269676   3.242   5.938   6.106 -0.3411 -0.4003  0.2277
16062TIP3    H169677   3.281   5.971   6.187 -2.9785  2.2644  0.5704
16062TIP3    H269678   3.170   5.883   6.136 -1.9320  1.3697 -0.2126
16063TIP3   OH269679   4.882   3.147  12.096  0.3202 -0.4108 -0.5625
16063TIP3    H169680   4.929   3.223  12.133  0.9476 -1.0464 -0.0285
16063TIP3    H269681   4.828   3.184  12.027  2.2540  0.2507 -1.7896
16064TIP3   OH269682   4.100   2.019  13.791 -0.1659  0.2451  0.4478
16064TIP3    H169683   4.167   2.036  13.857  0.1867 -0.9808  0.4277
16064TIP3    H269684   4.043   1.953  13.831 -2.2073  2.2054  1.0127
16065TIP3   OH269685   2.925   6.572  17.046 -0.3775  0.3544  0.2593
16065TIP3    H169686   3.012   6.578  17.086  0.3299 -1.4567 -0.8605
16065TIP3    H269687   2.879   6.650  17.076  1.4765  1.1261  1.2581
16066TIP3   OH269688   3.675   1.929  15.350 -0.1242  0.1658  0.1049
16066TIP3    H169689   3.591   1.910  15.391 -0.2088  1.5126  0.5638
16066TIP3    H269690   3.680   2.024  15.346  1.1934  0.0997 -0.3182
16067TIP3   OH269691   5.429   5.168   2.275  0.4825  0.0660  0.1205
16067TIP3    H169692   5.403   5.245   2.225 -0.4445 -0.9465 -1.0553
16067TIP3    H269693   5.524   5.173   2.281  0.3842  1.5907  0.5883
16068TIP3   OH269694   4.417   1.987  14.252  0.4036  0.5387  0.2684
16068TIP3    H169695   4.367   2.020  14.178 -1.9012 -0.3203  1.3311
16068TIP3    H269696   4.396   1.894  14.256  3.4604 -0.2688 -0.1776
16069TIP3   OH269697   5.864   5.704  13.754 -0.1738  0.0907 -0.0668
16069TIP3    H169698   5.946   5.728  13.710 -0.4056  0.5805 -0.2382
16069TIP3    H269699   5.799   5.766  13.720 -0.7034 -0.5312 -0.2234
16070TIP3   OH269700   2.165   4.963   3.743 -0.0011  0.1082 -0.1001
16070TIP3    H169701   2.082   5.010   3.749 -0.5512 -0.6491 -1.3668
16070TIP3    H269702   2.140   4.871   3.741  1.0458 -0.3021  2.2171
16071TIP3   OH269703   1.790   0.314  13.539 -1.0539  0.0126 -0.0264
16071TIP3    H169704   1.832   0.319  13.453 -1.2586 -1.7625 -0.2610
16071TIP3    H269705   1.863   0.305  13.601 -0.9192  1.0429 -0.0227
16072TIP3   OH269706   0.311   5.794   4.656  0.1644 -0.3583 -0.1842
16072TIP3    H169707   0.392   5.843   4.673  0.9448 -1.3052 -1.0207
16072TIP3    H269708   0.264   5.847   4.592  1.1031 -0.7630 -1.2402
16073TIP3   OH269709   4.095   4.475   2.741  0.2694  0.1919  0.6749
16073TIP3    H169710   4.068   4.566   2.724 -0.9186 -0.0801  1.0054
16073TIP3    H269711   4.138   4.478   2.826  1.6138  0.6917  0.0000
16074TIP3   OH269712   2.503   4.154   0.084  0.5012 -0.2633  0.1222
16074TIP3    H169713   2.518   4.083   0.022 -0.5149 -0.0814 -0.3668
16074TIP3    H269714   2.562   4.224   0.055  2.0732 -1.1412  1.0738
16075TIP3   OH269715   1.388   2.847   4.453  0.6680  0.0901  0.1712
16075TIP3    H169716   1.413   2.900   4.378 -0.6037 -1.5488 -1.5304
16075TIP3    H269717   1.458   2.858   4.516  1.2725  2.3579 -0.8223
16076TIP3   OH269718   5.283   3.510  12.740  0.3114  0.1381 -0.3777
16076TIP3    H169719   5.193   3.522  12.770 -0.2938 -0.1436 -1.9644
16076TIP3    H269720   5.306   3.420  12.765  0.1562  0.2036  0.0075
16077TIP3   OH269721   1.274   0.900   2.210  0.1771  0.0461  0.4490
16077TIP3    H169722   1.328   0.953   2.151 -0.1504 -1.1973 -1.0281
16077TIP3    H269723   1.187   0.902   2.171 -0.4651  0.5899  1.8542
16078TIP3   OH269724   4.740   1.903  11.107 -0.0270 -0.5251  0.0588
16078TIP3    H169725   4.742   1.898  11.202 -3.8479 -1.3581  0.2307
16078TIP3    H269726   4.778   1.988  11.086  2.4672 -0.9958  2.0984
16079TIP3   OH269727   1.461   5.866   1.529  0.1563  0.3233  0.4064
16079TIP3    H169728   1.459   5.836   1.620 -0.3463  0.4465  0.4419
16079TIP3    H269729   1.516   5.943   1.530 -0.7209  0.9641  0.8140
16080TIP3   OH269730   6.570   4.201   0.077 -0.1722 -0.4577  0.1938
16080TIP3    H169731   6.598   4.133   0.015 -1.0838 -1.6545  1.0302
16080TIP3    H269732   6.564   4.155   0.161  0.6601  1.0336  1.1174
16081TIP3   OH269733   0.444   3.722   4.088 -0.1774  0.2117  0.2154
16081TIP3    H169734   0.495   3.651   4.127 -0.6568  1.0255  2.4356
16081TIP3    H269735   0.490   3.802   4.113 -0.5978  0.7935 -0.8039
16082TIP3   OH269736   5.770   2.614   5.516  0.2819 -0.3022  0.0406
16082TIP3    H169737   5.831   2.678   5.553  1.2512 -1.2515  0.1414
16082TIP3    H269738   5.808   2.529   5.538 -0.0376 -0.9137 -1.6078
16083TIP3   OH269739   5.059   3.794  13.200  0.1660 -0.1687 -0.0020
16083TIP3    H169740   4.985   3.781  13.141  0.8586  0.1195 -0.9431
16083TIP3    H269741   5.056   3.718  13.259 -0.6507 -0.3484 -0.2684
16084TIP3   OH269742   1.823   3.947   0.294  0.4342  0.5193 -0.2260
16084TIP3    H169743   1.874   3.870   0.268  1.2236  1.0857 -0.3880
16084TIP3    H269744   1.733   3.914   0.303  0.8979 -0.5876  0.5095
16085TIP3   OH269745   4.567   4.203  14.783 -0.0596  0.5927 -0.0451
16085TIP3    H169746   4.647   4.216  14.732 -1.0038  0.9546 -1.4850
16085TIP3    H269747   4.542   4.112  14.767 -0.6629  0.8658 -0.7175
16086TIP3   OH269748   0.637   3.190  16.441 -0.1497 -0.3286  0.4486
16086TIP3    H169749   0.701   3.147  16.384  0.4576  1.0249  0.0672
16086TIP3    H269750   0.607   3.265  16.390 -1.8067 -0.7362  0.7661
16087TIP3   OH269751   6.774   6.825   3.595 -0.2430 -0.0436  0.0604
16087TIP3    H169752   6.703   6.887   3.581  0.8563  1.3052  0.2758
16087TIP3    H269753   6.749   6.748   3.543 -1.0545  1.0346 -1.2093
16088TIP3   OH269754   6.052   3.954   2.591 -0.1169 -0.3590  0.3448
16088TIP3    H169755   6.112   3.974   2.663 -0.5495  0.2686  0.5385
16088TIP3    H269756   6.007   4.037   2.574  0.7607 -0.1964 -1.3928
16089TIP3   OH269757   3.239   4.870   2.100 -0.4498  0.1741 -0.5220
16089TIP3    H169758   3.326   4.888   2.135  0.6831 -1.0800 -2.4908
16089TIP3    H269759   3.182   4.866   2.177  1.6386 -1.1948  1.0586
16090TIP3   OH269760   2.454   0.947   5.540  0.7463  0.4310 -0.0833
16090TIP3    H169761   2.473   0.980   5.628  0.8583 -0.7580  0.3532
16090TIP3    H269762   2.390   0.877   5.554  0.4143  0.5419 -0.9984
16091TIP3   OH269763   4.941   1.786   2.016  0.1960  0.2008 -0.0316
16091TIP3    H169764   4.858   1.833   2.013  0.4706  0.7149  0.2585
16091TIP3    H269765   4.991   1.829   2.086  2.1871  2.4118 -2.5724
16092TIP3   OH269766   5.383   4.542   2.213 -0.3469 -0.6382  0.3316
16092TIP3    H169767   5.294   4.560   2.182  0.2524  0.5485 -0.7828
16092TIP3    H269768   5.384   4.447   2.228 -0.9318 -1.2276 -2.6617
16093TIP3   OH269769   3.918   0.320  15.717  0.3208 -0.2947 -0.0984
16093TIP3    H169770   3.909   0.260  15.644  1.4512 -0.6146  0.0141
16093TIP3    H269771   3.851   0.387  15.701 -1.8279 -2.2108  0.4496
16094TIP3   OH269772   3.198   0.119  13.810 -0.3139  0.1614 -0.5786
16094TIP3    H169773   3.268   0.181  13.788  0.3413 -0.4944 -0.3858
16094TIP3    H269774   3.148   0.164  13.879  2.4897 -1.0113  2.4901
16095TIP3   OH269775   0.301   0.011  14.878 -0.4730  0.4027 -0.1029
16095TIP3    H169776   0.269  -0.053  14.942 -1.7824  0.7189 -0.4204
16095TIP3    H269777   0.251  -0.007  14.799  0.6644  0.4499 -0.8555
16096TIP3   OH269778   3.549   2.065  17.174  0.0677  0.0440  0.1781
16096TIP3    H169779   3.476   2.122  17.198  0.8996  0.8119  0.9224
16096TIP3    H269780   3.602   2.058  17.253  0.6656 -0.7369 -0.2725
16097TIP3   OH269781   0.218   1.994   5.463  0.2662 -0.1520  0.2147
16097TIP3    H169782   0.282   2.053   5.423  0.9425 -1.9974 -1.5730
16097TIP3    H269783   0.135   2.017   5.422  0.4675 -0.2047 -0.2312
16098TIP3   OH269784   4.190   6.153  10.850 -0.2223 -0.4594  0.0259
16098TIP3    H169785   4.222   6.243  10.843 -0.1665 -0.5797 -2.0724
16098TIP3    H269786   4.108   6.153  10.801  0.0706 -1.6589 -0.5069
16099TIP3   OH269787   4.767   2.477   0.771  0.4329 -0.3023  0.7000
16099TIP3    H169788   4.828   2.539   0.810 -0.4094  1.5793 -0.8263
16099TIP3    H269789   4.803   2.459   0.684 -0.8715  0.4306 -0.0185
16100TIP3   OH269790   2.075   6.381   1.299  0.4398  0.1401 -0.3111
16100TIP3    H169791   2.071   6.291   1.332  1.4708 -0.2349 -1.1244
16100TIP3    H269792   2.127   6.428   1.365  2.4638 -0.5962 -1.2750
16101TIP3   OH269793   2.391   2.218   3.554  0.0957 -0.1863  0.5287
16101TIP3    H169794   2.350   2.259   3.631 -0.3037 -2.5992  1.6988
16101TIP3    H269795   2.455   2.282   3.524 -0.7701  1.4494  1.9700
16102TIP3   OH269796   1.235   1.929  15.592  0.3701  0.6055  0.0304
16102TIP3    H169797   1.158   1.958  15.641 -0.5884 -0.7520 -0.6019
16102TIP3    H269798   1.249   1.839  15.620  0.9896  0.4437 -0.7566
16103TIP3   OH269799   0.901   5.444   2.916  0.3418  0.4294  0.4996
16103TIP3    H169800   0.933   5.392   2.842  2.5690 -1.0693  2.3774
16103TIP3    H269801   0.813   5.408   2.933  0.2228  0.0757 -0.7291
16104TIP3   OH269802   5.298   3.383  16.103  0.2312 -0.5936 -0.2427
16104TIP3    H169803   5.380   3.365  16.056 -0.8453  0.8771 -2.8764
16104TIP3    H269804   5.321   3.454  16.164  0.9547 -0.3185 -0.8186
16105TIP3   OH269805   6.574   5.417  12.644 -0.1034 -0.4795  0.1253
16105TIP3    H169806   6.534   5.379  12.722  0.1684 -2.2530 -0.5586
16105TIP3    H269807   6.627   5.489  12.677 -2.6768  1.0477  1.2071
16106TIP3   OH269808   3.940   1.586   2.423 -0.7065  0.1533  0.0439
16106TIP3    H169809   3.931   1.500   2.463  0.9670  0.4621  1.2120
16106TIP3    H269810   3.864   1.595   2.366  0.1157 -2.9069 -1.7117
16107TIP3   OH269811   1.457   3.661   1.238  0.9655 -0.3637 -0.1159
16107TIP3    H169812   1.433   3.653   1.330 -0.0804  0.4333 -0.2971
16107TIP3    H269813   1.391   3.720   1.201  2.4292  0.7953 -0.9705
16108TIP3   OH269814   3.705   2.991  13.526  0.3801 -0.4571 -0.3310
16108TIP3    H169815   3.780   3.047  13.502  0.4156 -0.2860  0.1541
16108TIP3    H269816   3.745   2.916  13.571  0.3685 -1.1218 -1.4119
16109TIP3   OH269817   5.506   2.557  15.039 -0.0708  0.6374 -0.7718
16109TIP3    H169818   5.458   2.610  15.102 -0.8778 -0.0803 -0.7613
16109TIP3    H269819   5.454   2.562  14.958 -0.5369 -0.6516 -0.5857
16110TIP3   OH269820   2.737   6.676   6.534 -0.5692 -0.2474 -0.0953
16110TIP3    H169821   2.775   6.610   6.593 -0.9674  1.3915  2.1292
16110TIP3    H269822   2.809   6.703   6.478  0.1816 -0.9310  0.5198
16111TIP3   OH269823   0.158   5.450   0.136 -0.0526  0.1843 -0.0960
16111TIP3    H169824   0.186   5.384   0.200 -0.5299 -0.0936 -0.1755
16111TIP3    H269825   0.240   5.487   0.104  0.2032  0.0671  0.4076
16112TIP3   OH269826   4.291   1.338   4.088  0.2923 -0.1915  0.2302
16112TIP3    H169827   4.348   1.413   4.105  1.5978 -1.3821  1.3779
16112TIP3    H269828   4.303   1.318   3.996  1.3644 -0.1267  0.3514
16113TIP3   OH269829   3.949   4.366  13.823  0.1084 -0.3291  0.4767
16113TIP3    H169830   3.875   4.318  13.786 -0.3831 -0.0986  1.1410
16113TIP3    H269831   3.910   4.446  13.859  0.3214 -1.1963  2.7839
16114TIP3   OH269832   0.788   5.216  15.545 -0.0935  0.6414  0.2757
16114TIP3    H169833   0.715   5.176  15.498  0.4177 -2.1967  1.6397
16114TIP3    H269834   0.863   5.159  15.526  0.7106  0.9031  2.3410
16115TIP3   OH269835   3.458   1.064   6.557 -0.2179  0.2525  0.4507
16115TIP3    H169836   3.380   1.068   6.613  0.1200  0.5201  0.9060
16115TIP3    H269837   3.509   1.141   6.581 -0.6651  1.0773 -1.1285
16116TIP3   OH269838   1.612   1.733  16.856 -0.4502 -0.4332 -0.2364
16116TIP3    H169839   1.702   1.719  16.826  0.1829  0.3561  1.1724
16116TIP3    H269840   1.559   1.723  16.777  0.8058 -1.4912 -0.9954
16117TIP3   OH269841   6.218   1.588   1.591  0.0816 -0.5750 -0.0751
16117TIP3    H169842   6.247   1.589   1.683  0.0701 -0.6902 -0.0703
16117TIP3    H269843   6.126   1.561   1.595 -0.1947  0.3215 -0.0445
16118TIP3   OH269844   0.091   0.494   3.047 -0.1576 -0.5094  0.7632
16118TIP3    H169845   0.168   0.531   3.005 -0.1324  0.0558  1.2927
16118TIP3    H269846   0.034   0.468   2.975  0.3868 -0.6305  0.3735
16119TIP3   OH269847   2.664   3.625  10.639 -0.2558 -0.4250 -0.1551
16119TIP3    H169848   2.660   3.531  10.656 -3.4312 -0.4406 -0.3107
16119TIP3    H269849   2.589   3.642  10.583  0.9724  2.0571 -1.1949
16120TIP3   OH269850   4.169   2.303   1.170  0.4208 -0.4285  0.3530
16120TIP3    H169851   4.231   2.252   1.117 -0.1597 -1.0068  0.2249
16120TIP3    H269852   4.161   2.253   1.251  1.8716  0.8267  1.3255
16121TIP3   OH269853   2.774   2.067  11.291 -0.0843 -0.0503 -0.1783
16121TIP3    H169854   2.797   2.143  11.238  1.4848  0.2836  0.8980
16121TIP3    H269855   2.774   1.994  11.230  1.9704  0.2677 -0.6095
16122TIP3   OH269856   3.337   5.848   0.021  0.4353 -0.0411 -0.6597
16122TIP3    H169857   3.290   5.768  -0.002  1.0785 -0.4585 -0.5662
16122TIP3    H269858   3.371   5.831   0.109 -1.1699  1.1490  0.2471
16123TIP3   OH269859   6.021   6.286   2.447 -0.2571 -0.1955 -0.3162
16123TIP3    H169860   6.084   6.317   2.382 -0.2487  1.4624  0.4449
16123TIP3    H269861   5.994   6.365   2.494 -1.9877 -1.0419  0.1848
16124TIP3   OH269862   1.180   5.370  14.673  0.0999  0.6426  0.2282
16124TIP3    H169863   1.149   5.461  14.664  0.0342  0.9101  2.4308
16124TIP3    H269864   1.274   5.378  14.685  0.2433  0.3064 -0.6054
16125TIP3   OH269865   1.952   4.492   4.213 -0.2494 -0.1115  0.2380
16125TIP3    H169866   1.913   4.486   4.126 -0.5226  1.4220  0.2207
16125TIP3    H269867   2.041   4.461   4.202  0.0297  0.9984 -0.8231
16126TIP3   OH269868   5.788   4.404  16.122 -0.1663  0.0381  0.4559
16126TIP3    H169869   5.874   4.394  16.162 -0.1535 -2.2148  0.0160
16126TIP3    H269870   5.726   4.374  16.190 -0.3525 -1.0539 -0.1665
16127TIP3   OH269871   5.698   1.802  14.692  0.4017 -0.5948  0.7166
16127TIP3    H169872   5.730   1.890  14.711  0.6580 -0.7195  0.8696
16127TIP3    H269873   5.611   1.815  14.656  1.5634 -0.0811 -2.1158
16128TIP3   OH269874   6.235   3.211   2.837  0.4232 -0.2881  0.3149
16128TIP3    H169875   6.187   3.274   2.891 -0.5425 -0.4041 -0.3886
16128TIP3    H269876   6.298   3.172   2.897 -0.3442 -0.1111  1.2594
16129TIP3   OH269877   4.104   3.760   0.599 -0.0662  0.7250 -0.3113
16129TIP3    H169878   4.071   3.715   0.522  0.7279 -1.1642  0.3739
16129TIP3    H269879   4.053   3.724   0.672  0.7816  0.6963  0.2901
16130TIP3   OH269880   0.829   5.632  16.584  0.1827 -0.2435  0.1935
16130TIP3    H169881   0.849   5.587  16.665 -1.2690 -2.3641 -0.5349
16130TIP3    H269882   0.735   5.618  16.572  0.2398  0.5907 -1.5067
16131TIP3   OH269883   1.525   4.816  13.711 -0.3461 -0.1234  0.6360
16131TIP3    H169884   1.487   4.756  13.647 -0.2349 -0.7155  1.1171
16131TIP3    H269885   1.591   4.765  13.756  0.2615  0.5815  0.5631
16132TIP3   OH269886   5.648   3.222   4.562 -0.0563 -0.5824 -0.5117
16132TIP3    H169887   5.645   3.308   4.605 -1.3487 -1.7857  2.0125
16132TIP3    H269888   5.627   3.241   4.471  0.6393  1.8789 -0.2555
16133TIP3   OH269889   6.598   3.923  14.465  0.3374  0.3526 -0.2341
16133TIP3    H169890   6.576   3.894  14.554 -0.2909  0.1451 -0.4503
16133TIP3    H269891   6.552   4.006  14.455  0.1313  0.2113 -0.4790
16134TIP3   OH269892   4.759   6.384  15.900  0.1836 -0.9876 -0.3195
16134TIP3    H169893   4.665   6.369  15.898  0.1970 -1.0659 -0.3393
16134TIP3    H269894   4.797   6.308  15.857  0.2530 -0.9257 -0.3685
16135TIP3   OH269895   5.208   4.124   1.373  0.1726  0.3149  0.3813
16135TIP3    H169896   5.227   4.196   1.433  1.7596  0.2024  0.0599
16135TIP3    H269897   5.294   4.097   1.339 -0.5940 -0.1691 -1.3067
16136TIP3   OH269898   6.822   5.344   1.664 -0.5555  0.1971 -0.1280
16136TIP3    H169899   6.887   5.288   1.706 -1.1615  1.2584  2.4686
16136TIP3    H269900   6.874   5.412   1.620  0.1079 -0.2984 -0.1290
16137TIP3   OH269901   6.161   4.682  13.316 -0.4749 -0.2090  0.2572
16137TIP3    H169902   6.150   4.657  13.408  2.0658  0.6293  0.8591
16137TIP3    H269903   6.124   4.608  13.267  1.6892 -2.6038  1.9771
16138TIP3   OH269904   4.784   3.569   3.059 -0.1388 -0.7905 -0.1997
16138TIP3    H169905   4.754   3.621   2.984  0.8896 -0.5192 -0.4362
16138TIP3    H269906   4.850   3.510   3.023 -2.2308 -3.2910 -0.2201
16139TIP3   OH269907   6.506   1.895  11.851 -0.1535 -0.3509  0.0453
16139TIP3    H169908   6.589   1.876  11.806  0.2561  1.4140 -0.0157
16139TIP3    H269909   6.493   1.821  11.910  0.8068 -1.2831 -0.8797
16140TIP3   OH269910   5.023   2.853   5.487  0.0064 -0.1330  0.0747
16140TIP3    H169911   5.044   2.913   5.559 -1.1448  1.3273 -0.7736
16140TIP3    H269912   4.985   2.908   5.419 -0.8301 -1.7865 -0.8622
16141TIP3   OH269913   4.120   6.129   0.719  0.2605 -0.0621  0.0250
16141TIP3    H169914   4.187   6.145   0.785  0.5541 -0.4166 -0.1876
16141TIP3    H269915   4.165   6.081   0.650 -0.3110 -0.6521  0.0599
16142TIP3   OH269916   2.274   5.339  13.284  0.3274  0.2973  0.0093
16142TIP3    H169917   2.360   5.296  13.287 -0.0066 -0.3306  0.7932
16142TIP3    H269918   2.211   5.268  13.291 -0.2777  0.7166 -0.9425
16143TIP3   OH269919   1.636   5.439   2.751 -0.2214 -0.6442 -0.3965
16143TIP3    H169920   1.597   5.493   2.683 -0.6921  0.7977  0.9703
16143TIP3    H269921   1.564   5.387   2.786 -0.1024 -0.9192 -0.5501
16144TIP3   OH269922   2.682   2.422  14.126  0.1360  0.0385 -0.0957
16144TIP3    H169923   2.607   2.480  14.114  0.0904  0.1898  0.8439
16144TIP3    H269924   2.644   2.335  14.131 -0.0268  0.1589  0.8332
16145TIP3   OH269925   4.988   3.726  16.820  0.5219  0.3008  0.4870
16145TIP3    H169926   5.051   3.797  16.802  0.0011  0.6644  0.0568
16145TIP3    H269927   4.980   3.726  16.915  2.1664 -0.6307  0.6602
16146TIP3   OH269928   0.067   6.752   2.242  0.0899 -0.4491 -0.0025
16146TIP3    H169929   0.107   6.696   2.309  1.1681  0.8553  0.4806
16146TIP3    H269930   0.138   6.808   2.212 -0.9290  0.5633 -0.5960
16147TIP3   OH269931   4.728   2.241  16.889 -0.3123  0.1295 -0.6427
16147TIP3    H169932   4.753   2.149  16.889  1.5566  0.5822 -0.8046
16147TIP3    H269933   4.782   2.280  16.958 -1.6043  0.9786 -0.0831
16148TIP3   OH269934   3.099   6.248  13.135  0.2252 -0.0941  0.8686
16148TIP3    H169935   3.172   6.304  13.109  0.1412  0.0109  0.8584
16148TIP3    H269936   3.056   6.226  13.053 -1.3093  1.9553  1.0420
16149TIP3   OH269937   6.452   5.734   6.004  0.0213 -0.2469  0.2479
16149TIP3    H169938   6.408   5.756   6.087 -3.3727 -4.2377 -0.1873
16149TIP3    H269939   6.504   5.656   6.025 -0.2499 -0.8300 -1.1790
16150TIP3   OH269940   6.280   3.040   2.162  0.8864  0.5490 -0.3904
16150TIP3    H169941   6.262   2.948   2.182  0.2334  0.5638 -0.8779
16150TIP3    H269942   6.292   3.081   2.248  3.4431 -0.4028 -0.2051
16151TIP3   OH269943   2.630   4.896   0.214  0.4282 -0.0439  0.2553
16151TIP3    H169944   2.673   4.981   0.200  1.8569 -0.7052  0.4332
16151TIP3    H269945   2.635   4.883   0.309 -0.6225  0.0834  0.3363
16152TIP3   OH269946   0.872   6.181  13.991  0.1373 -0.0865 -0.3261
16152TIP3    H169947   0.966   6.188  13.972  0.1957  0.8082  0.2689
16152TIP3    H269948   0.834   6.262  13.958 -0.2743 -0.0188  0.2931
16153TIP3   OH269949   3.558   4.367  12.910 -0.0251  0.0414 -0.5813
16153TIP3    H169950   3.531   4.441  12.964  1.7134  0.1348  0.2351
16153TIP3    H269951   3.578   4.298  12.973 -0.8545 -0.8673 -1.2906
16154TIP3   OH269952   6.070   0.064  15.567  0.1876  0.7290 -0.2253
16154TIP3    H169953   5.987   0.111  15.557 -0.1963  0.1091 -0.0222
16154TIP3    H269954   6.116   0.078  15.485 -0.5829  0.2000 -0.7663
16155TIP3   OH269955   5.983   6.696  11.820 -0.0379 -0.3020  0.1183
16155TIP3    H169956   5.959   6.604  11.829  0.9258 -0.6198 -0.5089
16155TIP3    H269957   5.929   6.728  11.748 -0.3807 -0.3572  0.3433
16156TIP3   OH269958   2.944   6.817   6.402  0.1825  0.2079 -0.0074
16156TIP3    H169959   2.945   6.857   6.315 -0.9601 -0.0645 -0.1703
16156TIP3    H269960   2.918   6.887   6.461 -2.5693 -0.3771 -0.3930
16157TIP3   OH269961   3.974   4.908  13.065  0.6547  0.6297  0.0199
16157TIP3    H169962   4.003   4.841  13.128  1.4190 -0.0960 -1.0505
16157TIP3    H269963   4.009   4.990  13.099  0.8644  0.2826  0.6568
16158TIP3   OH269964   4.667   1.510  14.811  0.0922  0.1057  0.9403
16158TIP3    H169965   4.619   1.437  14.850 -0.0764  0.4003  1.3001
16158TIP3    H269966   4.749   1.472  14.781  0.0263 -0.2219  1.1660
16159TIP3   OH269967   3.691   1.492   5.437  0.1299  0.3017 -0.0779
16159TIP3    H169968   3.710   1.567   5.380  2.3027 -0.3502 -0.2998
16159TIP3    H269969   3.614   1.451   5.398 -0.9362  2.2284 -0.1097
16160TIP3   OH269970   4.265   5.221   4.756 -0.0965 -0.0280 -0.1549
16160TIP3    H169971   4.275   5.297   4.813 -2.1856  0.6416 -0.6088
16160TIP3    H269972   4.276   5.146   4.814 -0.8436  0.6293  0.8686
16161TIP3   OH269973   1.500   2.779  16.510 -0.3594  0.2074 -0.0243
16161TIP3    H169974   1.440   2.784  16.436 -0.4022  1.5173  0.0809
16161TIP3    H269975   1.519   2.685  16.519 -0.0497  0.0431 -1.9198
16162TIP3   OH269976   5.294   4.143  12.723 -0.0240  0.5745  0.5642
16162TIP3    H169977   5.348   4.144  12.802  1.2834 -0.2276 -0.2795
16162TIP3    H269978   5.238   4.066  12.733  0.3603  0.2943  0.5720
16163TIP3   OH269979   2.124   2.375  11.750 -0.5271 -0.2199 -0.0142
16163TIP3    H169980   2.142   2.296  11.801 -2.1074 -1.2965 -1.0029
16163TIP3    H269981   2.036   2.402  11.778 -1.3356 -0.7043 -1.9092
16164TIP3   OH269982   4.234   1.284  14.160 -0.1379  0.3392  0.4511
16164TIP3    H169983   4.266   1.197  14.184 -1.7826 -0.4704 -0.1860
16164TIP3    H269984   4.148   1.290  14.201 -0.0956  1.6271  0.3797
16165TIP3   OH269985   2.643   1.283   5.713  0.0656 -0.4099  0.3979
16165TIP3    H169986   2.551   1.295   5.737 -0.0253  2.4689 -0.9166
16165TIP3    H269987   2.692   1.332   5.779  0.7260 -2.1471  1.2442
16166TIP3   OH269988   3.890   6.049   4.802 -0.2093  0.6458  0.2078
16166TIP3    H169989   3.796   6.031   4.801  0.1279 -1.2992 -0.1223
16166TIP3    H269990   3.915   6.045   4.895  0.1378 -2.5730  0.0672
16167TIP3   OH269991   5.457   0.971   5.151 -0.1290 -0.3788 -0.1235
16167TIP3    H169992   5.472   0.958   5.245  0.6586 -1.4118 -0.3601
16167TIP3    H269993   5.543   0.956   5.112 -0.4717 -0.0544 -1.0197
16168TIP3   OH269994   3.300   1.607   1.975 -0.0962  0.2877 -0.2126
16168TIP3    H169995   3.339   1.692   1.957 -3.8577  1.8496 -2.3978
16168TIP3    H269996   3.288   1.604   2.070  1.1417  1.6283  0.0106
16169TIP3   OH269997   0.847   5.286   2.257 -0.1891  0.1104  0.3451
16169TIP3    H169998   0.913   5.315   2.320  0.4143 -3.7383  1.7643
16169TIP3    H269999   0.798   5.365   2.235  2.2812  2.3870  2.3664
16170TIP3   OH270000   6.765   5.604  16.206 -0.2524 -0.8697  0.0313
16170TIP3    H170001   6.840   5.620  16.147 -0.2120  0.1081  0.3304
16170TIP3    H270002   6.756   5.509  16.207  1.6323 -1.0971  0.7735
16171TIP3   OH270003   1.809   2.890   0.241 -0.0462  0.5754  1.0280
16171TIP3    H170004   1.729   2.843   0.215  0.6612  0.0528 -0.2822
16171TIP3    H270005   1.821   2.956   0.173  0.8304  0.4200  1.0188
16172TIP3   OH270006   6.450   6.097  13.619  0.0929  0.2722  0.5374
16172TIP3    H170007   6.436   6.105  13.714 -0.9816 -0.5407  0.4625
16172TIP3    H270008   6.428   6.006  13.599  0.7403  0.3157 -0.4398
16173TIP3   OH270009   0.699   2.558   2.065 -0.2105 -0.4983  0.6827
16173TIP3    H170010   0.716   2.649   2.042  0.4825 -0.8472 -0.2318
16173TIP3    H270011   0.625   2.562   2.125 -0.3027  0.6503  0.5142
16174TIP3   OH270012   0.123   4.676  14.635 -0.2556 -0.0586  0.7368
16174TIP3    H170013   0.200   4.637  14.594  0.6038  1.1421  1.1325
16174TIP3    H270014   0.051   4.619  14.611  0.4412 -0.1556 -1.2736
16175TIP3   OH270015   3.233   4.259   3.434 -0.2226 -0.5072  0.3541
16175TIP3    H170016   3.228   4.255   3.338  0.3088 -1.2102  0.3460
16175TIP3    H270017   3.326   4.269   3.453 -0.2804 -0.8076  0.8134
16176TIP3   OH270018   5.742   6.031  16.696  0.7190  0.1212 -0.1232
16176TIP3    H170019   5.693   6.038  16.778  1.9626  1.6052  0.5475
16176TIP3    H270020   5.774   5.941  16.694 -1.7090 -0.8054 -0.4430
16177TIP3   OH270021   0.864   1.658   3.509  0.1473  0.3478  0.0230
16177TIP3    H170022   0.872   1.740   3.462 -0.6539  1.1252  1.1844
16177TIP3    H270023   0.770   1.646   3.522  0.1821 -1.1920 -0.8434
16178TIP3   OH270024   3.248   0.444  12.418 -0.3468  0.0159 -0.0333
16178TIP3    H170025   3.297   0.365  12.438 -1.4601 -0.8101 -0.4445
16178TIP3    H270026   3.278   0.470  12.331  0.7196  0.6230  0.4957
16179TIP3   OH270027   0.535   3.068   4.341 -0.1086 -0.0978 -0.0062
16179TIP3    H170028   0.471   2.999   4.358  0.6914 -0.8790 -0.1069
16179TIP3    H270029   0.582   3.078   4.424  2.0077 -2.0485 -0.8390
16180TIP3   OH270030   3.542   2.455   2.395  0.8944 -0.0757  0.1529
16180TIP3    H170031   3.609   2.444   2.463  2.8347  0.6205 -1.5628
16180TIP3    H270032   3.573   2.403   2.322 -2.2578 -2.5772  0.4062
16181TIP3   OH270033   0.540   3.801  10.817  1.0565  0.1475  0.1366
16181TIP3    H170034   0.526   3.779  10.725  0.6419  1.8782 -0.2555
16181TIP3    H270035   0.541   3.717  10.862 -1.9985 -0.6547 -1.0143
16182TIP3   OH270036   3.663   4.148   4.708 -0.0859 -0.2051  0.0401
16182TIP3    H170037   3.712   4.231   4.705 -1.4022  0.5657 -1.6464
16182TIP3    H270038   3.578   4.169   4.669 -0.6354 -2.2527  0.0251
16183TIP3   OH270039   6.563   5.889  11.514 -0.3584 -0.3261  0.1470
16183TIP3    H170040   6.562   5.797  11.487  3.6489 -1.1806  2.2417
16183TIP3    H270041   6.576   5.938  11.433  0.1084 -1.8090 -0.7093
16184TIP3   OH270042   1.693   3.225   4.963  0.1501  0.2219  0.0301
16184TIP3    H170043   1.636   3.250   5.036 -1.0303  0.5775 -0.9848
16184TIP3    H270044   1.725   3.308   4.928 -0.2351  0.1132 -0.5898
16185TIP3   OH270045   5.665   0.438   2.140 -0.0140 -0.2058  0.2797
16185TIP3    H170046   5.741   0.404   2.187  0.1500 -1.6078 -0.9101
16185TIP3    H270047   5.670   0.533   2.150  2.6484 -0.1547 -0.8443
16186TIP3   OH270048   3.439   4.227  13.157  0.1225 -0.1016 -0.4061
16186TIP3    H170049   3.499   4.159  13.189 -2.1529 -1.0736  2.1279
16186TIP3    H270050   3.465   4.305  13.205  2.2175  0.7691 -2.7344
16187TIP3   OH270051   5.241   4.865  16.894  0.3484  0.3009  0.0203
16187TIP3    H170052   5.305   4.851  16.963  1.3316 -1.5912 -1.2098
16187TIP3    H270053   5.233   4.961  16.889 -1.2220  0.5621  3.9666
16188TIP3   OH270054   2.613   4.981  12.689 -0.3559 -0.0638 -0.0054
16188TIP3    H170055   2.656   4.902  12.720 -2.3673 -1.3265 -0.3015
16188TIP3    H270056   2.640   4.989  12.598 -1.4142 -1.3315 -0.4400
16189TIP3   OH270057   5.648   2.415  13.643  0.3909  0.0134 -0.1490
16189TIP3    H170058   5.689   2.350  13.586  0.7627  0.3102 -0.2181
16189TIP3    H270059   5.718   2.447  13.698  0.4620  1.1942 -0.8926
16190TIP3   OH270060   2.720   0.700  15.092 -0.8343  0.0288 -0.3644
16190TIP3    H170061   2.702   0.767  15.027  0.5018 -0.1398 -0.9442
16190TIP3    H270062   2.636   0.658  15.108 -1.2126  0.1456 -1.9153
16191TIP3   OH270063   6.532   2.292  15.971  0.4450  0.0564 -0.7621
16191TIP3    H170064   6.624   2.312  15.952  0.6445 -0.5978 -0.5253
16191TIP3    H270065   6.494   2.277  15.884  0.5798  0.2594 -0.8580
16192TIP3   OH270066   3.452   4.313   3.013  0.4925  0.5243  0.1816
16192TIP3    H170067   3.530   4.320   2.958  0.1077  1.4018 -0.2656
16192TIP3    H270068   3.400   4.391   2.992 -0.0320  0.4771  1.2124
16193TIP3   OH270069   4.443   5.763  15.811 -0.3887  0.1155  0.6607
16193TIP3    H170070   4.395   5.685  15.783 -1.3567  0.0215  2.4508
16193TIP3    H270071   4.533   5.746  15.785 -0.5513 -1.6641  1.1300
16194TIP3   OH270072   3.856   5.692   5.838 -0.4094  0.9837 -0.3076
16194TIP3    H170073   3.864   5.653   5.752 -1.4854  1.4230 -0.6308
16194TIP3    H270074   3.945   5.695   5.873  0.2529  2.1220 -1.9888
16195TIP3   OH270075   2.270   1.163   1.269 -0.4289 -0.1339  1.0524
16195TIP3    H170076   2.202   1.096   1.266 -1.4643  0.8425 -3.1068
16195TIP3    H270077   2.347   1.122   1.229  0.1605  0.0592  1.9497
16196TIP3   OH270078   2.215   6.700   3.125 -0.5611 -0.2496  0.2903
16196TIP3    H170079   2.153   6.667   3.191 -0.5931  0.6633  0.7279
16196TIP3    H270080   2.216   6.795   3.138  0.0537 -0.1392 -0.4901
16197TIP3   OH270081   6.213   1.187  15.400  0.3768  0.1401 -0.3015
16197TIP3    H170082   6.182   1.275  15.379 -1.3259 -0.0910  1.0085
16197TIP3    H270083   6.222   1.187  15.496  1.5339 -0.7702 -0.3869
16198TIP3   OH270084   0.835   5.230  14.853  0.7436  0.4839 -0.2800
16198TIP3    H170085   0.754   5.180  14.837  1.2925 -0.8854  0.9870
16198TIP3    H270086   0.804   5.313  14.890 -0.2323  1.5502 -3.1448
16199TIP3   OH270087   0.195   3.121   6.246  0.3186 -0.3907 -0.1336
16199TIP3    H170088   0.227   3.054   6.306 -0.2965 -0.1414  0.4894
16199TIP3    H270089   0.099   3.115   6.253  0.1637 -1.6727 -2.5360
16200TIP3   OH270090   1.273   0.530   3.966  0.2926 -0.5394 -0.7881
16200TIP3    H170091   1.278   0.484   3.882  0.5951 -1.1023 -0.4675
16200TIP3    H270092   1.349   0.499   4.015 -0.3508 -0.8699  0.0231
16201TIP3   OH270093   1.067   0.046  15.667  0.0963 -0.4674  0.7218
16201TIP3    H170094   1.008  -0.005  15.612  0.0656  2.0177 -1.8367
16201TIP3    H270095   1.011   0.113  15.707  0.6883  0.0941  0.6385
16202TIP3   OH270096   0.098   6.027  12.073  0.2377 -0.1073  0.0688
16202TIP3    H170097   0.088   6.084  11.997  0.3486  0.1176  0.2207
16202TIP3    H270098   0.064   6.079  12.146 -3.3359 -1.6264 -0.3299
16203TIP3   OH270099   3.339   6.795   6.048  0.0110 -0.3343  0.0281
16203TIP3    H170100   3.259   6.742   6.048 -0.1689 -0.0965 -1.3073
16203TIP3    H270101   3.308   6.885   6.038  0.4668 -0.3414 -1.7739
16204TIP3   OH270102   5.748   3.343   3.370 -0.5630  0.4407  0.1824
16204TIP3    H170103   5.804   3.320   3.296 -0.4788 -0.2718  0.4678
16204TIP3    H270104   5.668   3.378   3.329  0.2999  2.0797 -0.2360
16205TIP3   OH270105   1.989   2.225   3.406 -0.1836  0.2345  0.3947
16205TIP3    H170106   2.070   2.262   3.372 -0.7543  0.1775 -1.1111
16205TIP3    H270107   2.011   2.196   3.495  2.2159 -2.3035 -0.8802
16206TIP3   OH270108   5.631   6.741   2.240  0.3242 -0.3597  0.0074
16206TIP3    H170109   5.613   6.812   2.302 -0.1152 -0.4488 -0.0137
16206TIP3    H270110   5.611   6.661   2.289  2.0091 -0.5535  0.4516
16207TIP3   OH270111   2.444   0.110   6.775 -0.3353 -0.4199 -0.1632
16207TIP3    H170112   2.403   0.114   6.861 -3.9771  1.5991 -1.7401
16207TIP3    H270113   2.488   0.195   6.765 -0.3499 -0.4460 -0.4573
16208TIP3   OH270114   4.965   4.330  15.894  0.3395 -0.4481  0.2088
16208TIP3    H170115   4.971   4.273  15.971  2.7362 -1.2929 -0.5014
16208TIP3    H270116   4.920   4.277  15.829  0.7715 -0.7961  0.1844
16209TIP3   OH270117   4.826   1.343  15.528  0.3412  0.2306 -0.3254
16209TIP3    H170118   4.884   1.401  15.477  2.5931 -0.2265  1.5671
16209TIP3    H270119   4.834   1.374  15.618  1.2635 -2.6393  0.6904
16210TIP3   OH270120   2.947   2.632   1.734  0.9754 -0.8490  0.1249
16210TIP3    H170121   2.890   2.688   1.681  0.6292 -1.6421 -0.3557
16210TIP3    H270122   2.952   2.676   1.819  0.0077 -0.5435  0.0329
16211TIP3   OH270123   3.351   1.909   3.886 -0.1933  0.0698 -0.3612
16211TIP3    H170124   3.347   1.848   3.959  2.1857  0.7683  0.4553
16211TIP3    H270125   3.349   1.996   3.927 -1.7971  0.5626 -1.3800
16212TIP3   OH270126   2.782   2.379   4.510 -0.2639 -0.0323 -0.0356
16212TIP3    H170127   2.744   2.341   4.431 -1.7978 -0.6416  0.9489
16212TIP3    H270128   2.840   2.310   4.544 -2.4097 -1.2810  1.3009
16213TIP3   OH270129   4.345   2.686  10.318 -0.2194 -0.4700 -0.7933
16213TIP3    H170130   4.253   2.690  10.291  0.4090  2.4189 -3.0636
16213TIP3    H270131   4.350   2.745  10.393 -0.2788 -0.8972 -0.4535
16214TIP3   OH270132   4.712   2.696  15.279 -0.2136  0.2087  0.5024
16214TIP3    H170133   4.652   2.626  15.255 -1.1644  0.5517  1.7972
16214TIP3    H270134   4.739   2.734  15.195 -1.2726 -0.3848 -0.1242
16215TIP3   OH270135   3.027   0.086   0.049 -0.7468 -0.1297 -0.3668
16215TIP3    H170136   3.100   0.059  -0.007  0.7303 -0.1005  1.4620
16215TIP3    H270137   3.034   0.031   0.127 -2.0607  0.5839  0.2874
16216TIP3   OH270138   4.989   0.143  11.321 -1.0479  0.3898 -0.2169
16216TIP3    H170139   5.039   0.137  11.402  1.3635  1.7403 -1.4882
16216TIP3    H270140   4.961   0.053  11.304 -2.8599  0.2465  2.7265
16217TIP3   OH270141   3.741   4.727   0.916  0.0096  0.2116  0.4605
16217TIP3    H170142   3.831   4.743   0.887 -0.0234  1.2317  0.8931
16217TIP3    H270143   3.708   4.660   0.856  1.4202 -0.9986  0.9667
16218TIP3   OH270144   0.631   5.461  12.203  0.0040 -0.0954 -0.2810
16218TIP3    H170145   0.632   5.492  12.113 -1.2590  2.4768  0.4799
16218TIP3    H270146   0.547   5.416  12.213  0.0214 -0.1356 -0.3194
16219TIP3   OH270147   4.129   5.393   4.212  0.1148  0.4072 -0.3803
16219TIP3    H170148   4.197   5.351   4.264  0.9542 -1.7264 -3.0116
16219TIP3    H270149   4.070   5.321   4.187 -0.9592  1.5658 -1.3193
16220TIP3   OH270150   4.975   1.795   4.726  0.1791 -0.1833 -0.9659
16220TIP3    H170151   5.070   1.800   4.738  0.3843  0.4413 -2.6075
16220TIP3    H270152   4.963   1.776   4.633 -1.3127  2.5748 -1.4447
16221TIP3   OH270153   4.608   0.824   4.027  0.3984 -0.3086  0.2252
16221TIP3    H170154   4.642   0.749   4.076  0.5710 -0.7101 -0.4909
16221TIP3    H270155   4.516   0.831   4.055  0.4390 -0.6616  0.4565
16222TIP3   OH270156   0.689   1.565  12.511 -0.0772  0.1822 -0.0105
16222TIP3    H170157   0.759   1.613  12.555 -0.5249  2.4866 -1.5826
16222TIP3    H270158   0.735   1.509  12.448  0.4124  1.4381 -0.8133
16223TIP3   OH270159   4.155   4.103   1.793 -0.5298 -0.2530 -0.3213
16223TIP3    H170160   4.089   4.082   1.726 -0.6818 -1.1921  0.1104
16223TIP3    H270161   4.143   4.196   1.809  0.1681  0.2378 -2.3072
16224TIP3   OH270162   0.832   2.626  12.727  0.1924  0.3489 -0.2113
16224TIP3    H170163   0.814   2.604  12.819  0.8756  2.6264  0.5120
16224TIP3    H270164   0.919   2.589  12.711 -0.4475 -1.1665 -0.3752
16225TIP3   OH270165   5.242   3.393   3.800 -0.3144  0.1587  0.0674
16225TIP3    H170166   5.284   3.308   3.788  0.6275  0.8376 -1.9864
16225TIP3    H270167   5.150   3.378   3.778  0.1224 -0.0836 -1.7640
16226TIP3   OH270168   6.202   5.121  11.144  0.2423 -0.2067  0.2310
16226TIP3    H170169   6.153   5.129  11.062 -3.2063 -2.0924  1.8609
16226TIP3    H270170   6.291   5.099  11.118 -0.4978  0.1095 -2.9643
16227TIP3   OH270171   4.858   5.073   5.052 -0.4168 -0.1457  0.3541
16227TIP3    H170172   4.788   5.018   5.018 -0.7831 -0.0433  0.9166
16227TIP3    H270173   4.912   5.014   5.105  1.0248 -0.6360 -1.5716
16228TIP3   OH270174   4.234   3.457  11.555  0.1111 -0.5218 -0.0943
16228TIP3    H170175   4.307   3.415  11.601  2.2630  1.8551 -1.0561
16228TIP3    H270176   4.248   3.433  11.463  1.4267  2.0695 -0.6769
16229TIP3   OH270177   4.164   1.638  13.111 -0.2713 -0.4351 -0.1001
16229TIP3    H170178   4.190   1.713  13.057  1.4466 -1.1360 -0.3300
16229TIP3    H270179   4.186   1.664  13.200  0.6867 -0.7780 -0.2219
16230TIP3   OH270180   4.564   4.115  10.487  0.7388 -0.0395  0.2390
16230TIP3    H170181   4.562   4.086  10.396  0.3240 -0.7679  0.4677
16230TIP3    H270182   4.650   4.155  10.498  0.9723 -0.3701 -0.3478
16231TIP3   OH270183   3.080   1.619   3.927 -0.1092  0.1250  0.0353
16231TIP3    H170184   2.995   1.659   3.945 -0.0071  0.3925 -0.0603
16231TIP3    H270185   3.139   1.658   3.992  0.0805  0.4563 -0.3291
16232TIP3   OH270186   5.949   2.131   2.644  0.0510  0.0525  0.2754
16232TIP3    H170187   6.031   2.150   2.689 -1.4030  1.5601  2.5153
16232TIP3    H270188   5.900   2.213   2.647 -2.3089 -1.2834  0.8199
16233TIP3   OH270189   3.717   1.399   2.549  0.1768  0.7354 -0.1788
16233TIP3    H170190   3.683   1.459   2.615 -0.9330  1.2479 -1.1659
16233TIP3    H270191   3.686   1.312   2.577 -2.6555  1.2413 -1.3502
16234TIP3   OH270192   3.760   2.011   4.335 -0.2948 -0.0300  0.4745
16234TIP3    H170193   3.818   1.959   4.391  1.7770  3.5381  1.9596
16234TIP3    H270194   3.817   2.043   4.265 -1.5953  0.0130 -0.6132
16235TIP3   OH270195   2.706   5.392  14.094  0.1692 -0.3486  0.3566
16235TIP3    H170196   2.670   5.349  14.017 -1.4429 -1.3011  1.5646
16235TIP3    H270197   2.722   5.321  14.156 -1.2991  0.6239  1.9282
16236TIP3   OH270198   4.689   4.369  12.962  0.1178  0.4315 -0.3550
16236TIP3    H170199   4.682   4.365  13.058  0.1904 -1.7138 -0.3983
16236TIP3    H270200   4.667   4.460  12.941  0.4597  1.0568  1.7159
16237TIP3   OH270201   4.101   2.853  12.145  0.5998 -0.4990 -0.2228
16237TIP3    H170202   4.194   2.839  12.128  0.5080 -0.6943 -0.5809
16237TIP3    H270203   4.057   2.782  12.098  0.2053  0.2454 -0.9963
16238TIP3   OH270204   2.240   5.165  14.846 -0.3658 -0.0497 -0.5958
16238TIP3    H170205   2.159   5.150  14.894 -0.1888 -0.0369 -0.2896
16238TIP3    H270206   2.229   5.250  14.804 -0.2466  0.2614 -0.0040
16239TIP3   OH270207   5.693   5.260  14.866 -0.3057  0.9013  0.3208
16239TIP3    H170208   5.684   5.303  14.781 -1.0255  0.5779  0.2241
16239TIP3    H270209   5.787   5.253  14.880 -0.0566 -1.8481 -1.8844
16240TIP3   OH270210   0.922   6.024  14.205  0.5943 -0.1060  0.3564
16240TIP3    H170211   0.866   6.025  14.127  1.1888  1.8254 -0.1009
16240TIP3    H270212   0.987   5.956  14.186 -1.2013 -1.9942  0.6669
16241TIP3   OH270213   4.599   3.816   5.180  0.6450 -0.2200 -0.6617
16241TIP3    H170214   4.615   3.765   5.101  0.0681  0.0913 -0.9832
16241TIP3    H270215   4.659   3.779   5.245  0.8871 -0.6929 -1.1489
16242TIP3   OH270216   6.770   3.323   2.611  0.7848  0.2250  0.3066
16242TIP3    H170217   6.757   3.411   2.644  0.9124  0.0135  0.9244
16242TIP3    H270218   6.865   3.311   2.611  0.7336 -0.2498  1.1321
16243TIP3   OH270219   2.167   0.669  15.660  0.1529  0.7731 -0.0069
16243TIP3    H170220   2.077   0.693  15.637 -0.3041 -1.6850 -1.0712
16243TIP3    H270221   2.174   0.692  15.753 -1.5302  1.0965  0.0762
16244TIP3   OH270222   3.231   1.121  15.144  0.1524 -0.0696  0.2774
16244TIP3    H170223   3.236   1.049  15.207  1.5798 -0.4955 -0.2790
16244TIP3    H270224   3.158   1.174  15.174  0.8303 -0.2183  2.3354
16245TIP3   OH270225   4.235   2.189  13.594 -0.0292  0.2188 -0.7634
16245TIP3    H170226   4.309   2.220  13.645 -0.1252 -0.2295 -0.3386
16245TIP3    H270227   4.209   2.107  13.637 -0.9686  0.5342 -0.7093
16246TIP3   OH270228   5.765   2.493  16.459  0.2565  0.6605  0.1948
16246TIP3    H170229   5.828   2.494  16.387 -1.0640 -0.6372 -1.0748
16246TIP3    H270230   5.797   2.425  16.518 -0.2053 -0.4208 -0.7490
16247TIP3   OH270231   6.586   4.262  14.395 -0.3091  0.1327  0.5955
16247TIP3    H170232   6.552   4.347  14.365 -1.3024 -0.5318 -0.1975
16247TIP3    H270233   6.538   4.244  14.475  0.6222  0.7725  1.3202
16248TIP3   OH270234   0.381   0.787   5.430  0.3148 -0.2239  0.0321
16248TIP3    H170235   0.402   0.855   5.495  1.0065  0.1588 -0.5715
16248TIP3    H270236   0.321   0.830   5.369 -0.1074 -0.4928  0.2592
16249TIP3   OH270237   3.748   5.743   2.541  1.0210 -0.1852 -0.2460
16249TIP3    H170238   3.808   5.798   2.592 -1.5541  0.9814  1.7518
16249TIP3    H270239   3.690   5.805   2.496  0.7760 -1.2698 -1.5027
16250TIP3   OH270240   1.137   1.663  14.265  0.8536 -0.4346 -0.2871
16250TIP3    H170241   1.218   1.676  14.214  0.5809  0.2494 -0.5664
16250TIP3    H270242   1.167   1.628  14.349  1.4401 -0.2211 -0.3997
16251TIP3   OH270243   3.397   3.782   3.525  0.5309  0.0784 -0.1556
16251TIP3    H170244   3.391   3.705   3.469 -1.1815 -2.5067  3.2215
16251TIP3    H270245   3.307   3.816   3.529  0.6190  0.2265  0.9245
16252TIP3   OH270246   4.762   6.269  13.215  0.7452 -0.0737  0.2088
16252TIP3    H170247   4.703   6.308  13.280  0.7809 -1.7819  1.3054
16252TIP3    H270248   4.716   6.282  13.131 -0.0182  0.8013  0.7310
16253TIP3   OH270249   6.802   2.949   2.723  0.0613 -0.5954 -0.4201
16253TIP3    H170250   6.879   2.959   2.779  0.0735 -0.7243 -0.4123
16253TIP3    H270251   6.733   2.921   2.783 -0.6400  1.8636  0.0208
16254TIP3   OH270252   4.071   4.260  12.548  0.1939 -0.7759 -0.1418
16254TIP3    H170253   4.086   4.347  12.512  1.2203 -1.0009 -0.2830
16254TIP3    H270254   3.982   4.238  12.521 -0.3339  0.5057  0.5012
16255TIP3   OH270255   1.805   2.017   1.209 -0.5802 -0.1017  0.0457
16255TIP3    H170256   1.888   2.017   1.257  0.6346  0.5444 -1.9420
16255TIP3    H270257   1.755   2.088   1.249  1.1310  1.6476 -0.7583
16256TIP3   OH270258   4.354   5.510   3.702 -0.3720  0.3216  0.2129
16256TIP3    H170259   4.442   5.494   3.735  0.1143 -1.4386 -1.6699
16256TIP3    H270260   4.354   5.603   3.678 -0.3316  1.3165  3.6071
16257TIP3   OH270261   3.123   1.944  11.799  0.8364 -0.4319  0.0387
16257TIP3    H170262   3.210   1.914  11.775 -0.0357 -1.7482 -1.7572
16257TIP3    H270263   3.130   2.040  11.799  1.9723 -0.4651 -1.4875
16258TIP3   OH270264   1.037   3.521  11.362  0.3682  1.1733  0.4950
16258TIP3    H170265   1.028   3.601  11.309 -1.1311  0.4133 -0.4890
16258TIP3    H270266   1.126   3.525  11.397  1.1926  2.0625 -1.5307
16259TIP3   OH270267   6.544   0.955  14.172 -0.1878 -0.0318  0.3278
16259TIP3    H170268   6.504   0.994  14.250  0.7615  0.6330  0.4881
16259TIP3    H270269   6.628   0.921  14.202  0.3337  0.5240 -0.4681
16260TIP3   OH270270   1.634   3.549  15.749 -0.1121 -0.3528  0.2263
16260TIP3    H170271   1.687   3.601  15.688  1.0912 -0.3987  1.1958
16260TIP3    H270272   1.667   3.460  15.741 -0.0421 -0.3874  0.8295
16261TIP3   OH270273   0.643   3.456  11.499 -0.2603 -0.6513 -0.1331
16261TIP3    H170274   0.721   3.409  11.529 -1.0983 -0.9959  1.6449
16261TIP3    H270275   0.611   3.404  11.426 -0.2347 -1.9725  0.7531
16262TIP3   OH270276   3.066   4.043  11.563 -1.1386 -0.1701 -0.3939
16262TIP3    H170277   3.035   4.132  11.581 -1.7165 -0.3596 -0.4180
16262TIP3    H270278   3.006   4.010  11.496  0.3496  0.1678 -1.9673
16263TIP3   OH270279   5.419   6.115  16.385  0.3780 -0.2318 -0.1943
16263TIP3    H170280   5.420   6.210  16.389 -1.0310 -0.2080 -0.1399
16263TIP3    H270281   5.409   6.087  16.476 -0.3499 -0.3943 -0.3183
16264TIP3   OH270282   4.664   2.933  12.876  0.5694  0.2774  0.4873
16264TIP3    H170283   4.752   2.971  12.880  0.1946  1.2509 -0.0846
16264TIP3    H270284   4.641   2.937  12.783  0.3824 -1.1049  0.4461
16265TIP3   OH270285   2.955   1.823  12.314  0.3467  0.3002  0.1432
16265TIP3    H170286   2.963   1.872  12.232  0.9680 -0.9466 -0.5743
16265TIP3    H270287   2.861   1.818  12.329  0.2590  1.4884  0.1211
16266TIP3   OH270288   4.897   3.052  14.286 -0.0410  0.4722  0.3636
16266TIP3    H170289   4.886   3.044  14.381 -0.4233 -0.8198  0.2263
16266TIP3    H270290   4.990   3.035  14.271 -0.2376 -0.6791  0.3905
16267TIP3   OH270291   4.504   1.843  15.981  0.0578 -0.0958  0.1207
16267TIP3    H170292   4.455   1.762  15.968 -0.2366 -0.0125  0.6475
16267TIP3    H270293   4.438   1.912  15.981  0.2009  0.0514  0.5299
16268TIP3   OH270294   3.926   1.064   2.409  0.0811 -0.3618  0.1352
16268TIP3    H170295   4.001   1.056   2.351 -0.9301  0.0177 -1.2875
16268TIP3    H270296   3.938   1.149   2.453  2.2633 -1.8313  2.6738
16269TIP3   OH270297   4.048   4.093   3.539  0.3853 -0.1711  0.1092
16269TIP3    H170298   4.021   4.109   3.630 -1.6013  0.1801 -0.4996
16269TIP3    H270299   4.050   3.998   3.531  0.3278 -0.2049  0.4557
16270TIP3   OH270300   2.831   5.818  13.935  0.1920  0.2143  0.4979
16270TIP3    H170301   2.857   5.729  13.958  1.0411 -0.1457 -1.6437
16270TIP3    H270302   2.838   5.822  13.840  0.4077  2.6458  0.5402
16271TIP3   OH270303   2.903   3.295  13.364 -0.1760  0.0423 -0.1971
16271TIP3    H170304   2.906   3.353  13.288  0.2750 -1.0752 -1.0651
16271TIP3    H270305   2.995   3.280  13.386 -0.2925 -0.3068  0.0556
16272TIP3   OH270306   1.754   2.987  14.997  0.3877 -0.0421  0.3803
16272TIP3    H170307   1.686   3.037  14.952 -1.2961 -2.8557 -0.4477
16272TIP3    H270308   1.832   3.000  14.942  0.4117  2.5404  0.8805
16273TIP3   OH270309   1.610   0.634  13.341  0.3586  0.2005 -0.4319
16273TIP3    H170310   1.650   0.598  13.420 -0.8789  0.2399  0.2326
16273TIP3    H270311   1.608   0.729  13.356  0.3548  0.2328 -0.6266
16274TIP3   OH270312   1.146   3.945  12.172 -0.2093 -0.3793 -0.0245
16274TIP3    H170313   1.060   3.903  12.172 -0.2291 -0.3448  0.8512
16274TIP3    H270314   1.207   3.875  12.197  0.1205 -0.5842 -1.3219
16275TIP3   OH270315   2.454   6.339  14.909  0.5366  0.0946 -0.3568
16275TIP3    H170316   2.388   6.297  14.965  0.3042 -0.3790 -0.9635
16275TIP3    H270317   2.538   6.310  14.945  0.4226  0.7028  0.4232
16276TIP3   OH270318   0.569   1.348  11.736  0.1037 -0.1857  0.3295
16276TIP3    H170319   0.536   1.336  11.825 -0.0944 -0.1673  0.2579
16276TIP3    H270320   0.629   1.423  11.743 -0.8808  0.6288  0.1993
16277TIP3   OH270321   2.199   1.303  11.571 -0.2854 -0.2869  0.4656
16277TIP3    H170322   2.236   1.259  11.648 -1.6361  0.4235  1.5740
16277TIP3    H270323   2.207   1.239  11.500  1.7258 -0.6674  0.9764
16278TIP3   OH270324   2.438   0.119   6.001 -0.2440  0.0157 -0.4834
16278TIP3    H170325   2.499   0.145   6.070  0.9440 -0.7598 -1.1851
16278TIP3    H270326   2.494   0.104   5.924 -1.1359 -2.0411 -0.7999
16279TIP3   OH270327   2.883   1.406  12.161  0.3963  0.0578 -0.3063
16279TIP3    H170328   2.939   1.484  12.163  0.0043  0.3474 -0.5915
16279TIP3    H270329   2.854   1.399  12.070 -2.0883  1.3896  0.2881
16280TIP3   OH270330   5.694   1.211   1.508  0.1918  0.1022 -0.8176
16280TIP3    H170331   5.772   1.210   1.453  0.4100 -2.7537 -0.5984
16280TIP3    H270332   5.621   1.195   1.447  0.0510  0.3661 -0.7183
16281TIP3   OH270333   3.648   1.791   4.122 -0.2471 -0.0434 -0.6872
16281TIP3    H170334   3.560   1.820   4.142 -0.6768  0.0898 -2.6003
16281TIP3    H270335   3.671   1.835   4.040  1.7775  0.2747 -0.0184
16282TIP3   OH270336   4.715   6.526   2.836 -0.1459  0.0101 -0.3422
16282TIP3    H170337   4.629   6.517   2.875  0.8253 -2.7273  1.4106
16282TIP3    H270338   4.769   6.565   2.905  0.7151 -1.3268 -0.2217
16283TIP3   OH270339   0.065   3.093  13.367  0.0713  0.0217  0.4321
16283TIP3    H170340   0.046   3.080  13.459 -1.1867  0.6833  0.2903
16283TIP3    H270341   0.052   3.187  13.353 -0.7254 -0.2203 -0.6114
16284TIP3   OH270342   2.487   2.661  14.068  0.5022 -0.0999 -0.2932
16284TIP3    H170343   2.401   2.662  14.109  0.6069  4.4556  0.3290
16284TIP3    H270344   2.470   2.641  13.976 -0.9097 -1.2811  0.1932
16285TIP3   OH270345   0.472   3.103   3.636 -0.0647  0.6561  0.2171
16285TIP3    H170346   0.389   3.057   3.651  0.4086  0.1006  1.1666
16285TIP3    H270347   0.531   3.071   3.704  0.6816  1.6899  0.0894
16286TIP3   OH270348   2.091   1.449   4.930 -0.3524  0.2299 -0.1484
16286TIP3    H170349   2.014   1.500   4.904 -0.5797  0.2788  0.5907
16286TIP3    H270350   2.071   1.359   4.902 -0.3043  0.3954 -0.7245
16287TIP3   OH270351   4.367   5.220   2.882 -0.0265 -0.7570  0.2062
16287TIP3    H170352   4.310   5.284   2.925  0.8685 -0.8476  1.5844
16287TIP3    H270353   4.453   5.261   2.882  0.3624 -1.5562  0.2215
16288TIP3   OH270354   4.281   2.947   3.529 -0.3996  0.2422 -0.3268
16288TIP3    H170355   4.185   2.940   3.526 -0.3097 -1.0521 -1.5496
16288TIP3    H270356   4.298   3.036   3.559 -1.9851  0.5598 -0.2831
16289TIP3   OH270357   0.049   4.344  15.549  0.2292  0.3280 -0.4017
16289TIP3    H170358  -0.021   4.299  15.597  1.7915 -4.1636 -1.8315
16289TIP3    H270359   0.012   4.358  15.462  0.2738  0.2610 -0.4315
16290TIP3   OH270360   2.302   0.109   3.189 -0.0067  0.0276  0.6079
16290TIP3    H170361   2.381   0.076   3.232  0.2047 -1.8679 -1.1464
16290TIP3    H270362   2.300   0.202   3.213  2.0819 -0.1341  1.6565
16291TIP3   OH270363   6.431   4.104   2.201 -0.0587  0.2854 -0.4928
16291TIP3    H170364   6.386   4.048   2.138  0.8019  1.6329 -2.4379
16291TIP3    H270365   6.414   4.193   2.169 -2.2024  1.3483  2.9928
16292TIP3   OH270366   2.131   6.808   2.011 -0.0338 -0.3401  0.2771
16292TIP3    H170367   2.035   6.816   2.011  0.0069  0.1919  0.1070
16292TIP3    H270368   2.158   6.844   2.095 -0.1459 -2.8492  1.4797
16293TIP3   OH270369   0.791   5.446   0.484  0.0599 -0.0916  0.4405
16293TIP3    H170370   0.867   5.463   0.540  0.9013 -0.8617 -0.4410
16293TIP3    H270371   0.792   5.518   0.420 -1.5669  1.4414  2.0458
16294TIP3   OH270372   6.189   1.872  13.647 -0.3630 -0.3988  0.5155
16294TIP3    H170373   6.227   1.959  13.660 -1.2325 -0.0869  0.9744
16294TIP3    H270374   6.257   1.812  13.679 -0.2029  0.1533  1.2462
16295TIP3   OH270375   3.033   3.207  16.666 -0.3673 -0.6920 -0.2383
16295TIP3    H170376   3.064   3.151  16.595  2.1414 -1.6049  1.4624
16295TIP3    H270377   3.072   3.292  16.648 -0.4756 -0.6806 -0.4230
16296TIP3   OH270378   3.107   2.246   5.549  0.2659 -0.1894 -0.1122
16296TIP3    H170379   3.109   2.175   5.486  0.4433 -0.8348  0.6108
16296TIP3    H270380   3.105   2.203   5.635  2.7023  0.6548  0.4456
16297TIP3   OH270381   1.779   2.942  16.397 -0.7695  0.1891  0.2944
16297TIP3    H170382   1.709   2.971  16.454 -1.2616 -2.5854  1.2522
16297TIP3    H270383   1.840   3.016  16.394 -1.5588  1.0542  3.0248
16298TIP3   OH270384   6.170   2.376  12.210  0.1538 -0.1880  0.1689
16298TIP3    H170385   6.252   2.384  12.162 -1.4350  0.0387 -2.7222
16298TIP3    H270386   6.113   2.443  12.173 -0.9350  0.7449  3.1935
16299TIP3   OH270387   6.141   5.728   1.318 -0.0515 -0.3772  0.1153
16299TIP3    H170388   6.128   5.650   1.373  0.3070 -1.8203 -1.7449
16299TIP3    H270389   6.212   5.776   1.361  1.5894 -2.4870 -0.0739
16300TIP3   OH270390   6.216   1.019  13.964 -0.4125  0.5292 -0.0225
16300TIP3    H170391   6.240   1.071  14.041  2.9255  0.2845 -0.7138
16300TIP3    H270392   6.243   0.930  13.986 -1.9133 -0.0853 -0.5274
16301TIP3   OH270393   5.839   2.005  15.329  0.2319 -0.3318 -0.5808
16301TIP3    H170394   5.747   2.027  15.340  0.5916  1.1297 -0.2695
16301TIP3    H270395   5.883   2.046  15.403  0.8561 -3.3590  0.8766
16302TIP3   OH270396   0.267   5.381   2.801 -0.1919  0.0291  0.0170
16302TIP3    H170397   0.354   5.366   2.765 -0.5132 -2.3270  0.0531
16302TIP3    H270398   0.280   5.378   2.896 -0.0462  1.6257  0.0672
16303TIP3   OH270399   6.677   5.150   4.303 -0.0281  0.0316  0.7592
16303TIP3    H170400   6.703   5.060   4.325  0.2657  0.2517  1.3167
16303TIP3    H270401   6.691   5.156   4.209  0.2457 -0.4144  0.7653
16304TIP3   OH270402   6.290   5.659  13.184  0.3049  0.0037  0.2341
16304TIP3    H170403   6.364   5.639  13.241  0.8642 -3.2167 -1.3855
16304TIP3    H270404   6.329   5.707  13.111  0.3539  0.3674  0.4949
16305TIP3   OH270405   5.807   5.954  16.407 -0.1169 -0.4113  0.2225
16305TIP3    H170406   5.778   6.025  16.350 -0.7597 -1.7652 -1.2173
16305TIP3    H270407   5.799   5.989  16.496  2.3302  2.3162 -0.4637
16306TIP3   OH270408   3.258   2.878   1.782  0.0423  0.5661  0.4383
16306TIP3    H170409   3.270   2.914   1.870  0.7694  0.6094  0.3309
16306TIP3    H270410   3.316   2.801   1.780  1.9700  1.9447 -0.7880
16307TIP3   OH270411   1.180   2.613  15.321  0.2660 -0.0821 -0.4041
16307TIP3    H170412   1.097   2.566  15.310 -0.1638  0.4353  0.4962
16307TIP3    H270413   1.236   2.580  15.251 -0.4687 -0.9576 -0.5977
16308TIP3   OH270414   5.836   4.966  16.154 -0.2584 -0.5784  0.9723
16308TIP3    H170415   5.761   5.020  16.130  0.1499 -0.6146 -0.5421
16308TIP3    H270416   5.876   4.944  16.070  0.5858 -1.7931  1.6705
16309TIP3   OH270417   6.766   5.646   5.098  0.0292 -0.2861 -0.3216
16309TIP3    H170418   6.808   5.576   5.146 -1.2169 -1.4100 -0.8063
16309TIP3    H270419   6.834   5.712   5.087  0.6039 -0.3644  2.1670
16310TIP3   OH270420   4.485   2.317  12.991  0.1548 -0.0293 -0.1358
16310TIP3    H170421   4.457   2.282  13.076 -1.8442 -0.4449 -0.8953
16310TIP3    H270422   4.468   2.411  12.996 -0.7292 -0.1673 -0.3163
16311TIP3   OH270423   4.042   4.395  12.207  0.1472  0.3845 -0.2826
16311TIP3    H170424   4.078   4.420  12.292 -1.0200  0.1555  0.3063
16311TIP3    H270425   3.950   4.422  12.211  0.2109  0.9316 -1.7164
16312TIP3   OH270426   0.314   2.460  14.270 -0.3325 -0.1287 -0.8407
16312TIP3    H170427   0.351   2.463  14.182 -1.5718 -0.3281 -1.3909
16312TIP3    H270428   0.222   2.440  14.257 -0.1547 -2.3009  0.5878
16313TIP3   OH270429   1.274   5.462  10.688  0.2305 -0.2279  0.2084
16313TIP3    H170430   1.304   5.449  10.598 -0.2370 -0.5766  0.1000
16313TIP3    H270431   1.278   5.556  10.701 -0.0096 -0.1421 -0.2907
16314TIP3   OH270432   6.022   4.060  15.476  0.0135 -0.2106 -0.4460
16314TIP3    H170433   5.969   3.999  15.424 -1.5550  0.7761 -0.0530
16314TIP3    H270434   6.052   4.008  15.550 -1.3781 -0.5204 -0.0662
16315TIP3   OH270435   2.865   3.458   1.144 -0.3507 -0.8852  0.2484
16315TIP3    H170436   2.924   3.499   1.207 -1.5754  2.4021 -0.5172
16315TIP3    H270437   2.910   3.466   1.060 -1.2686  0.4297 -0.1436
16316TIP3   OH270438   3.199   1.792   0.010  0.3154 -0.2421  0.4408
16316TIP3    H170439   3.285   1.810  -0.029  0.2755  1.8703  1.2116
16316TIP3    H270440   3.187   1.861   0.076 -2.8931  0.9101 -1.1243
16317TIP3   OH270441   4.497   5.954  16.022  0.4812  0.4951 -0.1242
16317TIP3    H170442   4.492   5.906  15.940 -0.8502  1.9218 -0.9309
16317TIP3    H270443   4.591   5.964  16.039  0.7729 -0.8553 -0.7995
16318TIP3   OH270444   4.171   4.566   2.120  0.1669 -0.3236 -0.4033
16318TIP3    H170445   4.120   4.504   2.068 -1.1893 -0.7030  1.2762
16318TIP3    H270446   4.245   4.515   2.152 -0.6802 -0.9952  0.5669
16319TIP3   OH270447   0.019   1.229  14.627 -0.1627  0.4731 -0.2788
16319TIP3    H170448   0.028   1.134  14.624  0.3300  0.5417 -1.6507
16319TIP3    H270449   0.078   1.256  14.697  2.9137  0.0572 -2.5027
16320TIP3   OH270450   3.367   3.485   1.411  1.0409 -0.1752  0.0381
16320TIP3    H170451   3.414   3.406   1.438  0.3933 -0.6851 -0.2991
16320TIP3    H270452   3.399   3.503   1.322  0.0998 -0.9212 -0.4572
16321TIP3   OH270453   4.468   3.476   1.268 -0.2202 -0.0749 -0.7869
16321TIP3    H170454   4.550   3.452   1.309 -1.4801 -0.8510  1.4482
16321TIP3    H270455   4.492   3.538   1.198  2.0458  1.4978  1.2501
16322TIP3   OH270456   2.704   1.185   6.094 -0.3659 -0.3476  0.1753
16322TIP3    H170457   2.790   1.144   6.092  0.0590  0.4106  1.9129
16322TIP3    H270458   2.644   1.113   6.115 -0.1030 -0.7460 -0.3895
16323TIP3   OH270459   3.756   0.178  12.486  0.3115 -0.3063  0.5774
16323TIP3    H170460   3.748   0.085  12.509 -1.5682 -0.6811 -1.2690
16323TIP3    H270461   3.709   0.224  12.554  1.6190 -0.6232  1.7432
16324TIP3   OH270462   4.530   5.578  12.324 -0.0469  0.3575 -0.9662
16324TIP3    H170463   4.563   5.551  12.410 -0.7432 -3.9302 -1.8106
16324TIP3    H270464   4.606   5.574  12.267  0.2198  2.3091 -0.8332
16325TIP3   OH270465   0.281   5.248  11.542  0.2298 -0.2728  0.1500
16325TIP3    H170466   0.294   5.326  11.488  1.4959 -0.3766  0.2687
16325TIP3    H270467   0.307   5.275  11.630  1.8006 -1.1200 -0.0233
16326TIP3   OH270468   3.993   1.716   0.678 -0.2246 -0.1383 -0.8015
16326TIP3    H170469   4.039   1.779   0.623 -0.6481 -0.7502 -1.8846
16326TIP3    H270470   3.926   1.679   0.621 -1.7959  0.4030  0.5955
16327TIP3   OH270471   3.249   0.366   1.739 -0.5744 -0.4536  0.0679
16327TIP3    H170472   3.262   0.457   1.712 -0.9714 -0.1367  0.8965
16327TIP3    H270473   3.233   0.371   1.833  0.9900 -1.5402  0.4241
16328TIP3   OH270474   4.119   4.876   3.147  0.3219  0.5460 -0.3020
16328TIP3    H170475   4.130   4.930   3.068  0.5473 -0.1343 -0.7435
16328TIP3    H270476   4.030   4.896   3.178  0.3862  1.1346 -0.4794
16329TIP3   OH270477   4.896   5.397   1.839 -0.2633  0.3420 -0.1423
16329TIP3    H170478   4.954   5.470   1.859  0.3499 -0.2882  0.4279
16329TIP3    H270479   4.894   5.393   1.743  3.6610 -1.8825 -0.3656
16330TIP3   OH270480   1.899   0.001   0.521 -0.0038 -0.3461 -0.3083
16330TIP3    H170481   1.950  -0.019   0.442 -1.0011 -1.2310 -0.7525
16330TIP3    H270482   1.926   0.090   0.545  0.4932 -0.1513 -1.5060
16331TIP3   OH270483   0.097   2.687   1.127 -0.0701 -0.1752  0.2822
16331TIP3    H170484   0.117   2.756   1.189 -0.7153 -0.0685  0.3815
16331TIP3    H270485   0.130   2.607   1.168 -0.9476 -0.1783  1.0076
16332TIP3   OH270486   5.927   2.636   3.919 -0.4576 -0.0023 -0.4552
16332TIP3    H170487   5.968   2.549   3.918 -0.7422 -0.1449 -0.2042
16332TIP3    H270488   5.867   2.632   3.994  1.6614  1.3964  1.4647
16333TIP3   OH270489   6.750   0.394  16.433  0.1501 -0.4612  0.1193
16333TIP3    H170490   6.832   0.429  16.467  0.5853 -1.1626 -0.2005
16333TIP3    H270491   6.752   0.301  16.456 -0.8037 -0.3824  0.5912
16334TIP3   OH270492   2.432   4.777   0.835 -0.4663 -0.6455 -0.5621
16334TIP3    H170493   2.453   4.841   0.767 -1.9337  1.3980  0.7856
16334TIP3    H270494   2.513   4.767   0.885 -0.5673  1.3403  0.0799
16335TIP3   OH270495   4.163   2.597   1.923 -0.5410  0.1740 -0.3726
16335TIP3    H170496   4.183   2.667   1.860  0.6015 -0.0092 -0.2373
16335TIP3    H270497   4.153   2.519   1.869  1.3310 -0.1621 -0.2933
16336TIP3   OH270498   1.981   6.278   4.713 -0.5485  0.4664 -0.0774
16336TIP3    H170499   2.041   6.338   4.669 -0.9061  0.3627 -0.7162
16336TIP3    H270500   1.925   6.335   4.765 -0.4876  0.6388 -0.1982
16337TIP3   OH270501   0.035   1.193   1.314  0.4620  0.5421  0.4520
16337TIP3    H170502   0.119   1.237   1.322  0.0518  1.0891  2.1420
16337TIP3    H270503   0.027   1.140   1.393  0.0054 -0.9737 -0.5571
16338TIP3   OH270504   0.307   5.982   3.129  0.1942  0.0625 -0.3267
16338TIP3    H170505   0.236   5.925   3.101 -1.0439  0.9902  0.7950
16338TIP3    H270506   0.362   5.927   3.184  0.0784 -0.5379 -0.8060
16339TIP3   OH270507   2.613   1.281  15.140 -0.2086  0.3875  0.5249
16339TIP3    H170508   2.696   1.241  15.168 -0.6413 -0.4657  0.6226
16339TIP3    H270509   2.590   1.340  15.212  0.5308  0.9745  0.2963
16340TIP3   OH270510   4.966   5.863   1.883 -0.2080  0.0432 -0.6437
16340TIP3    H170511   4.913   5.883   1.960 -2.0271  0.3847 -1.9231
16340TIP3    H270512   4.950   5.937   1.824 -0.6684 -1.2853 -2.2404
16341TIP3   OH270513   1.354   4.256   5.042  0.5493 -0.0017  0.2143
16341TIP3    H170514   1.367   4.251   5.137  3.5399  0.8982 -0.0273
16341TIP3    H270515   1.413   4.190   5.006  2.1356  1.9556 -1.0561
16342TIP3   OH270516   4.553   2.831  14.451  0.1820  0.3208  0.4700
16342TIP3    H170517   4.462   2.812  14.474  0.3040  0.3071  0.9396
16342TIP3    H270518   4.605   2.777  14.509  0.4961  0.3946  0.2623
16343TIP3   OH270519   3.583   0.969   2.992  0.2205 -0.3500  0.1176
16343TIP3    H170520   3.573   1.041   3.056 -1.0464  0.5576 -1.0429
16343TIP3    H270521   3.537   0.895   3.032 -1.0011  0.3555  0.0790
16344TIP3   OH270522   5.648   3.648   3.676  0.2452  0.6389  0.1001
16344TIP3    H170523   5.603   3.682   3.599  0.1156  2.5541  0.9568
16344TIP3    H270524   5.610   3.698   3.749  3.0797  1.7265  0.9810
16345TIP3   OH270525   0.857   6.106   0.542 -0.4340  0.4242  0.2732
16345TIP3    H170526   0.829   6.167   0.611 -3.4844 -1.3487  0.8020
16345TIP3    H270527   0.796   6.121   0.470 -0.0698 -0.7456 -0.3111
16346TIP3   OH270528   4.121   3.883  15.794 -0.1180  0.2444 -0.0559
16346TIP3    H170529   4.113   3.811  15.732  1.2273  0.9561 -1.0899
16346TIP3    H270530   4.109   3.842  15.880 -0.3209 -1.0395 -0.6837
16347TIP3   OH270531   1.461   5.716   6.492  0.2949  0.3542 -0.0212
16347TIP3    H170532   1.540   5.766   6.512  0.3738  0.1509  0.1725
16347TIP3    H270533   1.460   5.711   6.396 -0.3282  1.7289 -0.1197
16348TIP3   OH270534   0.532   6.610   0.494 -0.0692 -0.0857  0.2348
16348TIP3    H170535   0.514   6.660   0.414  0.5201  1.0554  0.7865
16348TIP3    H270536   0.574   6.530   0.463  0.4931  0.5056 -0.5890
16349TIP3   OH270537   3.749   6.062  12.439 -0.2694 -0.3140 -0.4488
16349TIP3    H170538   3.762   6.145  12.486  1.5740  0.1921 -1.7729
16349TIP3    H270539   3.755   5.995  12.507 -0.6146  0.5502  0.4592
16350TIP3   OH270540   6.554   1.760  12.938  0.3464 -0.5181 -0.2330
16350TIP3    H170541   6.534   1.765  13.031 -0.1845  0.1397 -0.3801
16350TIP3    H270542   6.639   1.715  12.934  0.5812 -0.1492  0.5840
16351TIP3   OH270543   1.550   1.641   5.124 -0.0220 -0.2866 -0.2923
16351TIP3    H170544   1.609   1.605   5.190  0.3431  1.0935  0.1662
16351TIP3    H270545   1.468   1.656   5.171  0.4786  1.4459  0.0964
16352TIP3   OH270546   4.104   1.911  14.441 -0.5544  0.1864 -0.0281
16352TIP3    H170547   4.048   1.914  14.520  1.3649  2.1366  1.3833
16352TIP3    H270548   4.185   1.871  14.471  0.3174  1.2357 -0.9356
16353TIP3   OH270549   1.732   2.752   2.224 -0.6422 -0.2365 -0.2056
16353TIP3    H170550   1.663   2.808   2.187 -1.6443 -1.5608 -0.4261
16353TIP3    H270551   1.737   2.678   2.164  0.7384 -0.3410  0.0163
16354TIP3   OH270552   5.965   1.249  13.722  0.5389  0.0223  0.1829
16354TIP3    H170553   5.940   1.192  13.649 -1.3738  0.7629  0.2023
16354TIP3    H270554   5.926   1.208  13.799 -0.0473  0.8290  0.3310
16355TIP3   OH270555   5.532   0.479  14.332  0.9173  0.1288 -0.3266
16355TIP3    H170556   5.441   0.452  14.317 -0.9905  3.1460  3.9984
16355TIP3    H270557   5.568   0.411  14.388  0.2748  0.3586  0.3888
16356TIP3   OH270558   1.555   1.901  13.291 -0.3253  0.4135  0.1563
16356TIP3    H170559   1.507   1.937  13.216  0.6251 -0.3217 -0.8443
16356TIP3    H270560   1.632   1.860  13.252 -0.1143 -0.5122  1.4961
16357TIP3   OH270561   5.099   3.618   0.958 -0.3433  0.0466 -0.1282
16357TIP3    H170562   5.188   3.586   0.974 -1.4177 -2.2630  1.7284
16357TIP3    H270563   5.073   3.576   0.876 -0.5124 -1.1964  0.5340
16358TIP3   OH270564   2.022   1.437   0.348 -0.1908  0.1108  0.2626
16358TIP3    H170565   1.936   1.459   0.311  0.4312  1.4244 -0.4664
16358TIP3    H270566   2.023   1.341   0.350 -1.1725  0.0439 -0.9479
16359TIP3   OH270567   0.557   3.246  16.998  0.3951 -0.0551  0.7708
16359TIP3    H170568   0.613   3.323  16.994  0.2900  0.0613  1.3766
16359TIP3    H270569   0.484   3.266  16.939  1.0496 -0.2688 -0.1300
16360TIP3   OH270570   5.884   4.664   3.823  0.1048  0.1704 -0.1741
16360TIP3    H170571   5.828   4.739   3.805  1.2308  0.2073 -4.4592
16360TIP3    H270572   5.964   4.701   3.860 -0.3652  0.7671  0.2475
16361TIP3   OH270573   4.170   0.102   4.216 -0.1901 -0.2139 -0.2019
16361TIP3    H170574   4.220   0.070   4.141 -0.3135  0.5674 -0.6313
16361TIP3    H270575   4.150   0.024   4.268  1.2593 -0.5612 -0.1496
16362TIP3   OH270576   4.368   5.572  16.247 -0.4414 -0.3381  0.3137
16362TIP3    H170577   4.406   5.518  16.178  0.4484  1.2558 -0.5188
16362TIP3    H270578   4.288   5.607  16.209 -1.7935 -2.1272  1.3672
16363TIP3   OH270579   6.247   0.750   0.484 -0.4879 -0.1169  0.1902
16363TIP3    H170580   6.254   0.824   0.544 -0.9075  0.4381 -0.4431
16363TIP3    H270581   6.153   0.732   0.479 -0.3575 -1.0658  0.7829
16364TIP3   OH270582   1.360   5.387   5.974  0.2475 -0.1351  0.4282
16364TIP3    H170583   1.415   5.325   5.926 -0.1277 -0.6776  0.6836
16364TIP3    H270584   1.271   5.357   5.958  0.1466 -0.9342  2.2357
16365TIP3   OH270585   0.484   2.637   2.230 -0.2905  0.3434 -0.0670
16365TIP3    H170586   0.540   2.640   2.307 -0.6229 -2.9937  0.4802
16365TIP3    H270587   0.439   2.721   2.230  2.5675  2.0147  1.0782
16366TIP3   OH270588   6.339   5.896   3.717 -0.3355  0.0541  0.0364
16366TIP3    H170589   6.317   5.916   3.808 -2.1329  0.1900 -0.3749
16366TIP3    H270590   6.328   5.801   3.710  1.4102 -0.1953  0.3274
16367TIP3   OH270591   0.951   3.258   0.529  0.1391  0.1806  0.1478
16367TIP3    H170592   0.990   3.291   0.611 -2.4740  1.4678  1.0110
16367TIP3    H270593   0.905   3.334   0.493 -0.2451 -0.8366 -1.5990
16368TIP3   OH270594   0.649   6.625  14.721 -0.1272  0.3426  0.4374
16368TIP3    H170595   0.586   6.696  14.730 -1.9382 -1.0434 -0.6383
16368TIP3    H270596   0.728   6.667  14.688 -1.2894  1.7937 -0.6094
16369TIP3   OH270597   6.354   2.672   2.489 -0.2251 -0.0397 -0.4301
16369TIP3    H170598   6.303   2.657   2.568 -2.0802 -0.9907 -1.7353
16369TIP3    H270599   6.339   2.764   2.468 -0.1094  0.0924  0.0581
16370TIP3   OH270600   6.764   6.414   5.247  0.1487  0.1215  0.3831
16370TIP3    H170601   6.835   6.452   5.195  0.2547  1.1408  1.2590
16370TIP3    H270602   6.686   6.461   5.219 -0.2293 -1.0655 -0.6481
16371TIP3   OH270603   3.888   0.494  10.637 -0.9287 -0.2587  0.5118
16371TIP3    H170604   3.819   0.453  10.689  1.2217 -1.7973  2.3428
16371TIP3    H270605   3.886   0.586  10.665 -1.5061 -0.5120  1.3651
16372TIP3   OH270606   5.930   0.407   0.371 -0.3446 -0.2254  0.0803
16372TIP3    H170607   5.960   0.318   0.353  2.5126  1.0132 -2.0264
16372TIP3    H270608   5.881   0.433   0.293  0.0395  0.5162  0.0799
16373TIP3   OH270609   3.582   5.824  11.799  0.5012 -0.2404  0.2051
16373TIP3    H170610   3.530   5.781  11.731 -2.2332  2.3479  0.4820
16373TIP3    H270611   3.660   5.768  11.808 -1.3193 -3.3440 -1.5296
16374TIP3   OH270612   6.491   3.673  13.151 -0.5839  0.1997  0.2465
16374TIP3    H170613   6.583   3.658  13.172 -0.5640 -0.5388 -0.3303
16374TIP3    H270614   6.471   3.609  13.083 -1.2163  1.1544 -0.4775
16375TIP3   OH270615   4.344   0.559  10.359  0.6322  0.0919 -0.2150
16375TIP3    H170616   4.438   0.555  10.374  1.0072 -0.1934 -2.2989
16375TIP3    H270617   4.320   0.471  10.331 -0.4840 -0.1243  1.3024
16376TIP3   OH270618   1.743   4.236   3.383  0.3358  0.2072 -0.2145
16376TIP3    H170619   1.754   4.165   3.320 -1.9525 -0.0433 -0.4265
16376TIP3    H270620   1.827   4.243   3.427  1.6048 -0.4946 -2.3779
16377TIP3   OH270621   3.354   0.068   5.096  0.1248 -0.5981 -0.5052
16377TIP3    H170622   3.371  -0.016   5.137  1.1783  0.0608  0.4821
16377TIP3    H270623   3.335   0.127   5.169  0.7445  0.3150 -1.0593
16378TIP3   OH270624   2.506   5.188   5.072  0.3749  0.0516  0.1606
16378TIP3    H170625   2.427   5.174   5.020  0.4585  0.3531 -0.0511
16378TIP3    H270626   2.535   5.277   5.049  1.7812 -0.6853 -1.1380
16379TIP3   OH270627   0.208   6.070  14.543  0.0999  0.2574 -0.1719
16379TIP3    H170628   0.260   6.060  14.464 -1.6474  1.3660 -1.5306
16379TIP3    H270629   0.154   6.148  14.527 -2.9900 -1.5832  0.5034
16380TIP3   OH270630   3.693   0.476   4.144  0.1079 -0.0334  0.4847
16380TIP3    H170631   3.733   0.459   4.229  1.6843  0.3451 -0.1440
16380TIP3    H270632   3.609   0.517   4.164  0.0871 -0.7087  1.8560
16381TIP3   OH270633   0.200   1.547   4.703 -0.0975 -0.1918 -0.5654
16381TIP3    H170634   0.205   1.491   4.626 -0.7075  2.1325 -2.4214
16381TIP3    H270635   0.290   1.552   4.735  0.3861 -0.2837 -1.8420
16382TIP3   OH270636   2.738   5.326  13.299  0.0643 -0.4774 -0.7003
16382TIP3    H170637   2.826   5.304  13.328  0.4711 -0.5679 -1.9413
16382TIP3    H270638   2.739   5.311  13.204 -1.5330 -1.3346 -0.6315
16383TIP3   OH270639   2.764   6.373   5.446  0.1089  0.6243 -0.3038
16383TIP3    H170640   2.694   6.350   5.507  0.3236  1.6081  0.3326
16383TIP3    H270641   2.827   6.302   5.455  0.8552  1.4653  1.7774
16384TIP3   OH270642   3.382   5.814   2.297 -0.3090 -0.1050 -0.4246
16384TIP3    H170643   3.470   5.835   2.267  0.1474 -0.9069  0.2980
16384TIP3    H270644   3.391   5.728   2.339 -1.6297 -0.6536 -1.2254
16385TIP3   OH270645   5.962   3.558  14.310  0.6513  0.0511  0.1948
16385TIP3    H170646   5.873   3.589  14.290  0.8050 -0.7726 -2.0445
16385TIP3    H270647   5.965   3.470  14.274  1.9005 -0.5608  1.7036
16386TIP3   OH270648   2.464   2.187  13.187 -0.0602  0.6897 -0.6120
16386TIP3    H170649   2.467   2.279  13.164 -0.5533  0.6475 -0.8759
16386TIP3    H270650   2.371   2.170  13.204 -0.0202  0.1744 -0.8796
16387TIP3   OH270651   1.668   6.047   1.638  0.3804 -0.1781 -0.1998
16387TIP3    H170652   1.689   5.990   1.712  1.6717 -0.9811 -1.1328
16387TIP3    H270653   1.650   6.133   1.678  1.3450 -0.5130  1.0362
16388TIP3   OH270654   0.956   2.863  11.958  0.0708  0.0249 -0.5528
16388TIP3    H170655   0.992   2.941  11.915 -0.2757 -0.0673 -1.0211
16388TIP3    H270656   0.861   2.879  11.961  0.0762 -0.0123  0.1038
16389TIP3   OH270657   5.608   4.746  16.270 -0.0388 -0.5324  0.3650
16389TIP3    H170658   5.596   4.837  16.243 -2.2545 -0.8262  0.1821
16389TIP3    H270659   5.601   4.748  16.366  1.1302 -0.3776  0.4613
16390TIP3   OH270660   3.893   0.014  16.902 -0.2143  0.2722 -0.4485
16390TIP3    H170661   3.902   0.064  16.821 -2.0625  1.3948 -0.0124
16390TIP3    H270662   3.803   0.030  16.930 -0.0280 -1.1879  1.1291
16391TIP3   OH270663   2.981   4.499   0.033 -0.1206 -0.0794 -0.4312
16391TIP3    H170664   3.074   4.522   0.031 -0.2467  0.4030 -1.2170
16391TIP3    H270665   2.947   4.526  -0.053 -1.1408  0.4350  0.1030
16392TIP3   OH270666   4.736   2.460   6.404 -0.1938  0.1720  0.3945
16392TIP3    H170667   4.656   2.490   6.446 -0.1155  0.7344  0.1575
16392TIP3    H270668   4.786   2.419   6.474 -0.6616 -0.1292  0.5564
16393TIP3   OH270669   2.952   5.280  15.339  0.4514  0.7785 -0.2579
16393TIP3    H170670   2.943   5.317  15.251 -2.1867 -0.0003 -0.3940
16393TIP3    H270671   2.864   5.253  15.363  1.4847 -1.1580  1.7180
16394TIP3   OH270672   0.185   5.940  12.933  0.2617  0.1321 -0.6303
16394TIP3    H170673   0.150   5.951  13.022 -0.4015  0.1252 -0.8827
16394TIP3    H270674   0.194   5.846  12.922  3.8882  0.1905  0.7526
16395TIP3   OH270675   0.439   5.350  11.081  0.0541 -0.2927 -0.0691
16395TIP3    H170676   0.383   5.353  11.004 -0.2856 -0.0030  0.1852
16395TIP3    H270677   0.391   5.296  11.144 -0.7977  1.4093  0.8084
16396TIP3   OH270678   4.111   0.531   6.106  0.0549  0.3470  0.8895
16396TIP3    H170679   4.168   0.524   6.183 -0.0126  0.9719  0.9985
16396TIP3    H270680   4.065   0.447   6.103  1.1092 -0.2436  0.6958
16397TIP3   OH270681   3.549   2.425   3.410  0.0882 -0.2418 -0.7027
16397TIP3    H170682   3.472   2.373   3.388 -0.0055  0.2944 -1.6917
16397TIP3    H270683   3.618   2.391   3.352  0.1785  0.3341 -0.9371
16398TIP3   OH270684   3.213   1.268   4.469 -0.3302  0.2549  0.1771
16398TIP3    H170685   3.304   1.247   4.450 -0.2636 -0.3063  1.0634
16398TIP3    H270686   3.213   1.363   4.482 -0.0666  0.4041 -0.8037
16399TIP3   OH270687   5.493   1.982  16.927  0.0936 -0.1272 -0.0139
16399TIP3    H170688   5.466   2.070  16.952  0.3965  0.5482 -1.8486
16399TIP3    H270689   5.504   1.987  16.832  0.0755 -2.1696 -0.1642
16400TIP3   OH270690   2.697   6.130  16.208 -0.2089 -0.1218  0.1754
16400TIP3    H170691   2.730   6.114  16.119 -2.1396  0.2391 -0.6649
16400TIP3    H270692   2.717   6.223  16.224  0.4757 -0.2834  0.2722
16401TIP3   OH270693   0.538   3.537  12.881 -0.0392  0.1592 -0.1623
16401TIP3    H170694   0.633   3.533  12.888  0.0612  1.2537 -0.7025
16401TIP3    H270695   0.512   3.611  12.937 -0.4380  0.6962 -1.0397
16402TIP3   OH270696   4.237   2.250  12.838  0.0173 -0.0188 -0.1090
16402TIP3    H170697   4.284   2.173  12.809 -1.0002 -1.1656  1.1439
16402TIP3    H270698   4.294   2.289  12.905  0.3369  0.0898 -0.4395
16403TIP3   OH270699   2.428   4.227  16.152  0.0206 -0.2442 -0.0133
16403TIP3    H170700   2.457   4.200  16.065  0.0135 -1.8746  0.4480
16403TIP3    H270701   2.502   4.276  16.188  0.4366 -0.4714 -0.5475
16404TIP3   OH270702   0.809   4.161  15.704 -0.3323 -0.0313  0.2031
16404TIP3    H170703   0.829   4.095  15.770 -1.4034 -1.4083 -0.8093
16404TIP3    H270704   0.775   4.112  15.629 -1.0830  1.6457 -0.6189
16405TIP3   OH270705   6.778   1.907   1.389 -0.3682  0.0220  0.6844
16405TIP3    H170706   6.782   2.001   1.368 -1.9897  0.1972  1.0469
16405TIP3    H270707   6.703   1.875   1.339  0.2155 -1.1241  0.5107
16406TIP3   OH270708   3.582   2.104   4.888  0.3373  0.1838  0.1063
16406TIP3    H170709   3.514   2.157   4.846 -0.5103 -1.2493 -0.3890
16406TIP3    H270710   3.565   2.015   4.859  1.3938 -0.4631  1.3538
16407TIP3   OH270711   6.028   4.005   6.119 -0.3092 -0.1444 -0.8437
16407TIP3    H170712   6.038   4.064   6.044 -0.3522 -0.5513 -1.1737
16407TIP3    H270713   5.944   4.031   6.159  0.3178  0.9311 -0.1603
16408TIP3   OH270714   6.477   3.420   3.022 -0.4197 -0.1835 -0.2971
16408TIP3    H170715   6.475   3.475   2.943 -1.8706 -1.4502 -1.2232
16408TIP3    H270716   6.490   3.332   2.988  1.1034 -0.5211  1.0944
16409TIP3   OH270717   6.462   1.249   3.009  0.4662 -0.1754 -0.0648
16409TIP3    H170718   6.557   1.242   3.020  0.5755  0.2926 -0.6291
16409TIP3    H270719   6.428   1.256   3.098  1.0071  0.1839  0.1225
16410TIP3   OH270720   3.107   1.073  13.118 -0.3158 -0.1100  0.0391
16410TIP3    H170721   3.107   1.032  13.031  0.6984  0.9121 -0.4781
16410TIP3    H270722   3.060   1.155  13.106  2.0827  1.3120 -0.2455
16411TIP3   OH270723   2.477   2.364  11.141 -1.2421 -0.6882  0.3038
16411TIP3    H170724   2.528   2.379  11.220 -0.6182  3.3608 -0.6104
16411TIP3    H270725   2.516   2.288  11.099 -0.1635 -1.5468  2.7505
16412TIP3   OH270726   5.029   5.063   3.912  0.4166 -0.1173 -0.7154
16412TIP3    H170727   4.944   5.020   3.922  0.7142 -0.5295  0.0660
16412TIP3    H270728   5.058   5.081   4.001 -0.0704  2.4772 -1.0259
16413TIP3   OH270729   5.399   4.579  12.882 -0.6449  0.1975 -0.0668
16413TIP3    H170730   5.336   4.511  12.903 -0.3717 -0.2827 -0.7489
16413TIP3    H270731   5.462   4.537  12.823 -1.3059  1.4032 -1.7430
16414TIP3   OH270732   2.887   3.100   5.193  0.5329 -0.0062 -0.0707
16414TIP3    H170733   2.821   3.035   5.219 -0.9789  0.5407 -2.2113
16414TIP3    H270734   2.969   3.051   5.190 -0.2039 -1.3240  0.3754
16415TIP3   OH270735   0.610   3.706  15.890 -0.5994  0.1410  0.4858
16415TIP3    H170736   0.673   3.682  15.822 -0.2744 -0.2519  0.9152
16415TIP3    H270737   0.660   3.759  15.952 -0.7393 -0.0209  0.7381
16416TIP3   OH270738   1.994   2.094   5.903  0.0054  0.6278 -0.5418
16416TIP3    H170739   2.085   2.098   5.875  0.2925 -3.5479 -0.8726
16416TIP3    H270740   1.998   2.057   5.991 -1.3440  0.4783 -0.5178
16417TIP3   OH270741   1.399   1.089  13.230  0.3776 -0.1459 -0.4836
16417TIP3    H170742   1.321   1.140  13.254  2.6017  2.8323  1.0610
16417TIP3    H270743   1.397   1.086  13.135 -1.5493 -0.0487 -0.4855
16418TIP3   OH270744   0.041   4.974   3.966 -0.2054 -0.6157 -0.5140
16418TIP3    H170745   0.060   5.008   4.054 -0.1257 -0.6087 -0.5335
16418TIP3    H270746   0.058   4.880   3.972 -1.8351 -0.9194 -0.0592
16419TIP3   OH270747   3.759   4.461   4.217  0.5225 -0.0570  0.9754
16419TIP3    H170748   3.682   4.486   4.165  1.9589  1.5905 -0.5027
16419TIP3    H270749   3.724   4.444   4.304 -1.6165 -0.1132  0.1657
16420TIP3   OH270750   2.720   0.160  14.706 -0.2806  0.9350  0.5072
16420TIP3    H170751   2.813   0.186  14.707  0.3388 -1.1113  0.2601
16420TIP3    H270752   2.718   0.075  14.750 -2.0933  1.0187  0.6699
16421TIP3   OH270753   2.743   5.252  11.450 -0.4906  0.0184 -0.4157
16421TIP3    H170754   2.766   5.175  11.399 -1.5933 -1.4401  1.1781
16421TIP3    H270755   2.796   5.245  11.530 -1.4532  0.2659  0.2644
16422TIP3   OH270756   0.270   4.534  16.359 -0.0894 -0.3436  0.4858
16422TIP3    H170757   0.310   4.486  16.288  1.3442 -0.8967  1.6250
16422TIP3    H270758   0.190   4.571  16.321  0.0792 -1.5054 -1.0885
16423TIP3   OH270759   3.606   3.047  11.758  0.1015 -0.5412  0.2495
16423TIP3    H170760   3.533   2.988  11.737 -0.3639  0.4453 -1.0906
16423TIP3    H270761   3.616   3.040  11.853 -1.0449 -1.4987  0.3299
16424TIP3   OH270762   0.825   3.527   4.688  0.0900  0.4430 -0.0764
16424TIP3    H170763   0.736   3.521   4.723  0.6477 -1.2413  1.2022
16424TIP3    H270764   0.832   3.450   4.631  0.2805  1.3761 -1.3592
16425TIP3   OH270765   0.102   1.923  16.162 -0.3919 -0.1833  0.6513
16425TIP3    H170766   0.111   1.852  16.099  0.1039 -0.0322  0.5493
16425TIP3    H270767   0.079   1.999  16.109  2.8520  0.6380  0.2423
16426TIP3   OH270768   1.050   3.377  12.000  0.1084  0.4173 -0.3971
16426TIP3    H170769   1.145   3.391  12.000  0.0589  0.8268 -1.1239
16426TIP3    H270770   1.016   3.444  11.941 -0.8999  1.9342  1.7661
16427TIP3   OH270771   6.680   1.691  13.573 -0.1111  0.5014  0.4285
16427TIP3    H170772   6.588   1.716  13.578  0.1523  1.2111  2.8725
16427TIP3    H270773   6.679   1.596  13.561 -1.2516  0.0879  3.0748
16428TIP3   OH270774   6.353   2.033  15.074  0.4240 -0.0362 -0.0756
16428TIP3    H170775   6.291   1.985  15.128 -0.6303  1.3869  0.0283
16428TIP3    H270776   6.439   1.998  15.100 -0.3152 -3.8328 -1.9663
16429TIP3   OH270777   6.765   4.618  12.718 -0.8981 -0.1803  0.5567
16429TIP3    H170778   6.767   4.711  12.695 -0.0634 -0.0424  1.1569
16429TIP3    H270779   6.793   4.615  12.809  0.6567 -1.1650  0.0883
16430TIP3   OH270780   3.969   3.630   5.889  0.4962 -0.4243 -0.4431
16430TIP3    H170781   3.945   3.648   5.798 -0.3855  1.4017  0.1027
16430TIP3    H270782   3.897   3.665   5.940  1.6454 -0.1109  1.0270
16431TIP3   OH270783   5.266   0.142   1.024  0.2998 -0.1770 -0.5418
16431TIP3    H170784   5.229   0.054   1.014  1.6868 -1.0245  1.1788
16431TIP3    H270785   5.346   0.139   0.972  0.9104 -0.3318  0.3787
16432TIP3   OH270786   5.753   0.094   5.987 -0.1557 -0.2211 -0.4045
16432TIP3    H170787   5.691   0.108   6.059 -1.2539 -0.3504 -1.2835
16432TIP3    H270788   5.706   0.035   5.928  0.7397 -0.1427 -1.2017
16433TIP3   OH270789   2.492   0.924   3.839 -0.4192 -0.6459  0.1132
16433TIP3    H170790   2.406   0.964   3.854 -0.1767  0.4948 -1.3263
16433TIP3    H270791   2.482   0.873   3.759  0.6075  0.8064 -1.0090
16434TIP3   OH270792   2.292   6.564  14.356 -0.3327  0.7066  0.0102
16434TIP3    H170793   2.358   6.555  14.286 -0.9497  1.3734 -0.6830
16434TIP3    H270794   2.211   6.532  14.316 -0.4631  0.0243  0.8121
16435TIP3   OH270795   2.103   3.623  11.866  0.2467  0.0877  0.3788
16435TIP3    H170796   2.080   3.681  11.794 -1.3692  0.2692  1.0164
16435TIP3    H270797   2.128   3.682  11.938 -0.5763 -0.0055  0.7541
16436TIP3   OH270798   0.498   4.047   3.048 -0.4437  0.0987  0.1470
16436TIP3    H170799   0.436   3.974   3.047  1.5363 -1.7618 -2.4294
16436TIP3    H270800   0.466   4.106   2.980 -1.1592  0.8687  1.1252
16437TIP3   OH270801   0.055   5.201   2.798 -0.1621 -0.2894  0.1937
16437TIP3    H170802   0.123   5.264   2.771  1.8716 -2.4162  0.0464
16437TIP3    H270803   0.008   5.180   2.717  0.2950 -0.2557 -0.0855
16438TIP3   OH270804   4.452   2.887  16.244 -0.2388 -0.3002 -0.5868
16438TIP3    H170805   4.475   2.822  16.178  0.5852  0.9952 -1.6300
16438TIP3    H270806   4.374   2.930  16.209 -1.2459 -1.2081  0.4699
16439TIP3   OH270807   6.392   5.047  14.836  0.2218 -0.5052  0.0563
16439TIP3    H170808   6.370   5.048  14.929 -3.0794 -0.8745 -0.5964
16439TIP3    H270809   6.453   5.121  14.825 -1.0681  0.9918  2.1613
16440TIP3   OH270810   2.981   2.624  12.999 -0.6291 -0.3588 -0.1200
16440TIP3    H170811   2.901   2.589  13.038 -1.2803  0.3783 -0.7568
16440TIP3    H270812   2.997   2.706  13.046 -0.1562 -0.5767  0.1063
16441TIP3   OH270813   2.540   3.830  14.882 -0.0976  0.1774  0.8392
16441TIP3    H170814   2.599   3.808  14.810  1.0732  0.3594  1.7063
16441TIP3    H270815   2.453   3.826  14.844  0.4402 -0.5859 -0.3630
16442TIP3   OH270816   5.234   6.266   1.405  0.2918  0.1317 -0.0160
16442TIP3    H170817   5.301   6.258   1.338  1.7706 -0.0839  1.4200
16442TIP3    H270818   5.218   6.360   1.412  0.6895  0.2128 -0.1667
16443TIP3   OH270819   6.670   1.842   0.852 -0.1901  0.2185  0.7639
16443TIP3    H170820   6.691   1.853   0.944  0.3834 -0.7172  0.7552
16443TIP3    H270821   6.735   1.781   0.819  0.6650  1.7950 -0.6701
16444TIP3   OH270822   5.622   2.128   3.089 -0.1635  0.4221 -0.2366
16444TIP3    H170823   5.540   2.156   3.130 -0.7527 -2.1288  0.5342
16444TIP3    H270824   5.608   2.035   3.070  1.8839  0.3825 -1.8573
16445TIP3   OH270825   4.853   3.760   3.242 -0.6167 -0.5546 -0.6723
16445TIP3    H170826   4.831   3.693   3.177 -0.0640 -1.2216 -0.1804
16445TIP3    H270827   4.770   3.780   3.285 -0.9828 -0.1362 -1.5478
16446TIP3   OH270828   0.052   4.100   0.809 -0.6086  0.8647  0.2999
16446TIP3    H170829  -0.008   4.101   0.733 -1.7240  0.1992  1.1393
16446TIP3    H270830   0.037   4.015   0.850  1.0946  0.6070  0.4276
16447TIP3   OH270831   1.995   0.235   0.197  0.2358  0.1701  0.3636
16447TIP3    H170832   2.031   0.188   0.122 -0.9926 -1.2432  0.6097
16447TIP3    H270833   2.069   0.282   0.234  1.0943 -0.0124 -1.0598
16448TIP3   OH270834   0.976   2.420   1.652 -0.6004  0.4112  0.1578
16448TIP3    H170835   1.007   2.330   1.648 -0.6297  0.3123  1.4810
16448TIP3    H270836   1.002   2.450   1.739 -1.5461  1.3193  0.1524
16449TIP3   OH270837   0.326   5.095  13.528  1.0214 -0.4966 -0.5193
16449TIP3    H170838   0.260   5.073  13.594  1.4834  2.2035  0.9738
16449TIP3    H270839   0.278   5.092  13.445 -0.9311  0.9578  0.4844
16450TIP3   OH270840   4.361   1.866  13.536  0.0469  0.0339  0.5449
16450TIP3    H170841   4.362   1.772  13.518  0.8071 -0.0637  1.0393
16450TIP3    H270842   4.345   1.872  13.630  1.1723  0.3465  0.7325
16451TIP3   OH270843   3.777   4.836  10.623  0.0168 -0.0407 -0.0624
16451TIP3    H170844   3.794   4.914  10.675 -0.7386  0.9466 -1.2608
16451TIP3    H270845   3.844   4.837  10.555 -0.9862  0.4966 -1.0746
16452TIP3   OH270846   5.495   1.357   5.870  0.0287  0.0073 -0.1984
16452TIP3    H170847   5.566   1.388   5.813 -0.7812 -0.5606 -1.5658
16452TIP3    H270848   5.539   1.334   5.952  1.6406 -1.3816 -1.3620
16453TIP3   OH270849   0.070   1.857   6.582 -0.2288 -0.2875 -0.2610
16453TIP3    H170850   0.046   1.848   6.490 -3.0929  0.2837  0.3442
16453TIP3    H270851  -0.012   1.844   6.630  0.9950  0.3433  2.1556
16454TIP3   OH270852   0.737   6.033   2.888 -0.0481 -0.1253 -0.0016
16454TIP3    H170853   0.683   6.033   2.809  0.0173  0.9677 -0.0602
16454TIP3    H270854   0.684   6.077   2.954  1.3408  2.4844 -0.5068
16455TIP3   OH270855   2.805   1.426  12.442 -0.5936 -0.2251  0.1946
16455TIP3    H170856   2.890   1.436  12.399 -0.7438 -0.7821 -0.2482
16455TIP3    H270857   2.746   1.396  12.373 -0.4193 -3.0645  1.1290
16456TIP3   OH270858   4.479   3.156   3.029 -0.5281  0.2154 -0.6758
16456TIP3    H170859   4.508   3.242   3.060  0.8264  0.1338 -1.6111
16456TIP3    H270860   4.452   3.110   3.108  0.2831  0.9447  0.0552
16457TIP3   OH270861   1.377   0.560  11.481 -0.3289  0.3170 -0.6511
16457TIP3    H170862   1.468   0.563  11.454 -0.4725 -0.1610 -1.2168
16457TIP3    H270863   1.336   0.497  11.421 -0.7772 -0.3837  0.3593
16458TIP3   OH270864   3.538   5.349  12.912  0.4549  0.6577 -0.3707
16458TIP3    H170865   3.506   5.404  12.984  1.0263  0.6391 -0.0964
16458TIP3    H270866   3.576   5.273  12.956  2.1738  1.3499 -0.6055
16459TIP3   OH270867   0.011   5.393   3.298  0.5458  0.0997 -0.1042
16459TIP3    H170868  -0.004   5.423   3.387  0.6699  0.2331 -0.1275
16459TIP3    H270869  -0.048   5.319   3.287 -2.2176  2.2671 -1.1189
16460TIP3   OH270870   1.804   2.523   1.818 -0.7649 -0.5268  0.2838
16460TIP3    H170871   1.863   2.594   1.846 -1.8570  0.1754  0.8842
16460TIP3    H270872   1.812   2.457   1.887 -1.7504  0.2067  1.1207
16461TIP3   OH270873   6.468   4.890   4.654  0.0707  0.3970 -0.1436
16461TIP3    H170874   6.482   4.976   4.616  0.1548  0.5704  0.2799
16461TIP3    H270875   6.421   4.907   4.736  2.6427  0.2946  1.4473
16462TIP3   OH270876   4.685   4.980  10.432  0.4535 -0.0470  0.1869
16462TIP3    H170877   4.684   5.075  10.432  1.6769 -0.0220  0.1860
16462TIP3    H270878   4.775   4.956  10.411  0.3861 -1.2027  1.0808
16463TIP3   OH270879   0.165   1.324  12.051 -0.3112  0.4331  0.0706
16463TIP3    H170880   0.107   1.316  11.975 -1.0152 -1.2926  0.7517
16463TIP3    H270881   0.199   1.236  12.065  1.3515  1.1154  0.5986
16464TIP3   OH270882   1.321   1.259  16.327 -1.1090 -0.2088 -0.0957
16464TIP3    H170883   1.299   1.339  16.278 -2.4351  0.6289  1.7246
16464TIP3    H270884   1.237   1.219  16.346 -0.8839  0.5474  3.0725
16465TIP3   OH270885   1.716   2.413   1.108  0.0998 -0.4864 -0.5285
16465TIP3    H170886   1.756   2.472   1.172 -0.1428  1.6735 -2.2721
16465TIP3    H270887   1.789   2.365   1.069  0.2508 -1.8710  1.3025
16466TIP3   OH270888   0.102   1.471   1.468  0.0437  0.5324  0.2653
16466TIP3    H170889   0.159   1.463   1.544  0.9266 -1.5382 -0.5248
16466TIP3    H270890   0.047   1.393   1.471 -0.9944  1.2256 -0.3724
16467TIP3   OH270891   2.046   1.015   5.592 -0.0040 -0.2601 -0.2012
16467TIP3    H170892   1.982   1.019   5.521 -0.9427 -0.0697  0.6334
16467TIP3    H270893   2.040   0.925   5.624 -0.1981 -0.1174  0.1750
16468TIP3   OH270894   2.495   4.783   2.431  0.2486 -0.3419 -0.2525
16468TIP3    H170895   2.420   4.818   2.383  0.2318 -0.6957 -0.4834
16468TIP3    H270896   2.458   4.752   2.514  0.4281  1.2201  0.4672
16469TIP3   OH270897   4.819   3.026  13.694 -0.7495 -0.2838  0.0700
16469TIP3    H170898   4.791   3.058  13.608  0.1542  0.6240  0.1039
16469TIP3    H270899   4.816   3.103  13.751 -0.4125 -0.6764  0.6247
16470TIP3   OH270900   0.762   4.498  12.349 -0.5354  0.2620  1.0098
16470TIP3    H170901   0.699   4.488  12.278  1.3311  0.3000 -0.7678
16470TIP3    H270902   0.753   4.589  12.378 -0.4058  0.6671 -0.1641
16471TIP3   OH270903   0.549   1.125   3.909 -0.0889 -0.5363 -1.2257
16471TIP3    H170904   0.490   1.063   3.866 -0.3186 -0.1828 -1.4343
16471TIP3    H270905   0.577   1.081   3.988  0.9274 -1.4977 -2.0904
16472TIP3   OH270906   4.438   6.282   6.254 -0.4783  1.2063  0.1714
16472TIP3    H170907   4.508   6.348   6.255  0.5400  0.2423 -1.9494
16472TIP3    H270908   4.424   6.261   6.346  3.3982  0.0546  0.6616
16473TIP3   OH270909   3.870   2.425   4.444  0.0673 -0.7513 -0.0411
16473TIP3    H170910   3.876   2.384   4.530 -1.4551 -0.5145  0.1973
16473TIP3    H270911   3.779   2.414   4.418 -0.0686  1.2362 -0.5647
16474TIP3   OH270912   1.469   1.628   1.233  0.2983  0.0174 -1.0666
16474TIP3    H170913   1.528   1.619   1.158 -1.8970 -0.3791 -2.8646
16474TIP3    H270914   1.405   1.558   1.221  1.7774 -2.4428  3.1988
16475TIP3   OH270915   1.192   1.810  13.054  0.0260  0.2533  0.4492
16475TIP3    H170916   1.185   1.804  12.959  0.1836 -0.6596  0.4894
16475TIP3    H270917   1.111   1.853  13.081 -1.2767 -1.8319  0.1144
16476TIP3   OH270918   6.806   2.148   3.526 -0.2378 -0.2793  0.3395
16476TIP3    H170919   6.779   2.231   3.566  0.7080  0.5168 -0.6221
16476TIP3    H270920   6.725   2.106   3.500 -0.6679  1.7589 -1.9278
16477TIP3   OH270921   1.919   1.057  11.696 -0.1137 -0.5390  0.4328
16477TIP3    H170922   1.943   1.085  11.608 -1.0238 -0.0468  0.3276
16477TIP3    H270923   1.855   1.122  11.725 -1.9638 -2.2061  0.3542
16478TIP3   OH270924   0.121   6.456   3.009 -0.5863  0.1621 -0.1514
16478TIP3    H170925   0.134   6.363   3.029  2.2739  0.5535  0.1491
16478TIP3    H270926   0.048   6.483   3.065 -0.6938 -1.6050  0.6222
16479TIP3   OH270927   5.363   4.055  16.870  0.3019 -0.5526 -0.4671
16479TIP3    H170928   5.453   4.028  16.892 -0.0407 -0.6043  1.0171
16479TIP3    H270929   5.370   4.148  16.851  0.5421 -0.3348  0.6067
16480TIP3   OH270930   2.378   3.067  11.562 -0.1959 -0.1830  0.1697
16480TIP3    H170931   2.428   3.149  11.554  1.6347 -1.1113  1.5584
16480TIP3    H270932   2.370   3.053  11.656 -2.0570 -0.7235 -0.0405
16481TIP3   OH270933   1.305   3.477  12.891 -0.0155 -0.1130  0.2707
16481TIP3    H170934   1.214   3.475  12.920 -0.0944 -0.0606  0.0329
16481TIP3    H270935   1.326   3.571  12.883  0.2246 -0.1150  0.8306
16482TIP3   OH270936   0.028   2.328   1.128 -0.0654 -0.1423 -0.6982
16482TIP3    H170937   0.106   2.378   1.150 -1.4964  1.5489  0.8853
16482TIP3    H270938  -0.013   2.378   1.057 -1.0214  0.4850  0.2618
16483TIP3   OH270939   0.371   1.004  13.316 -0.4958  0.7458  0.5802
16483TIP3    H170940   0.343   0.936  13.378  1.8071  0.7270  1.7175
16483TIP3    H270941   0.375   1.084  13.369 -0.7250  1.2195 -0.1138
16484TIP3   OH270942   0.482   2.697  11.499  0.1617 -0.3146  0.3104
16484TIP3    H170943   0.485   2.791  11.481 -1.0112 -0.3290 -0.0423
16484TIP3    H270944   0.524   2.688  11.585 -1.1548  0.7556  1.1170
16485TIP3   OH270945   4.266   3.487   6.370  0.0777 -0.2953 -0.2075
16485TIP3    H170946   4.286   3.513   6.460  1.7996  0.6787 -0.8118
16485TIP3    H270947   4.220   3.563   6.333 -0.9735 -0.8457 -0.0554
16486TIP3   OH270948   2.635   4.667  15.997 -0.1155 -0.3166  0.3283
16486TIP3    H170949   2.666   4.755  16.016  1.1574 -0.9896  1.5581
16486TIP3    H270950   2.697   4.609  16.042 -0.9650 -1.8394 -0.3718
16487TIP3   OH270951   5.593   6.380  11.654  0.2968 -0.3679  0.6085
16487TIP3    H170952   5.497   6.381  11.656  0.1492 -0.2651 -2.0621
16487TIP3    H270953   5.620   6.422  11.735 -1.9586  1.7952  0.3475
16488TIP3   OH270954   3.418   2.580  13.065  0.5261 -0.2548 -0.5614
16488TIP3    H170955   3.492   2.607  13.118  0.2399  0.0737 -0.3279
16488TIP3    H270956   3.341   2.614  13.110  0.2137 -0.7799 -0.6799
16489TIP3   OH270957   2.591   3.339   5.250  0.0384  0.0499  0.0192
16489TIP3    H170958   2.563   3.261   5.203  0.6227  0.1647 -0.5279
16489TIP3    H270959   2.622   3.398   5.181 -1.2115  1.1150  0.3293
16490TIP3   OH270960   6.080   1.269  11.852 -0.0976  0.1309 -0.0022
16490TIP3    H170961   6.147   1.312  11.799 -0.9449 -0.4341 -1.6073
16490TIP3    H270962   6.127   1.198  11.897  0.6259  0.5689 -0.0536
16491TIP3   OH270963   2.785   4.218  13.152  0.7264  0.5909 -0.1506
16491TIP3    H170964   2.791   4.287  13.218 -0.6054  0.4357  0.1571
16491TIP3    H270965   2.818   4.140  13.195 -1.8149  0.0555  1.0321
16492TIP3   OH270966   3.929   3.380   5.513 -0.0900 -0.4518  0.5205
16492TIP3    H170967   3.942   3.285   5.522 -3.2777 -1.1158 -0.5108
16492TIP3    H270968   3.917   3.411   5.603  0.6440 -1.0894  0.8472
16493TIP3   OH270969   2.931   0.146  15.128  0.1539 -0.0931  0.1630
16493TIP3    H170970   3.002   0.210  15.135 -0.7472  0.9498 -0.0769
16493TIP3    H270971   2.962   0.083  15.062  0.9134  0.2607  0.1749
16494TIP3   OH270972   1.426   2.492   2.010 -0.2317 -0.4297  0.1834
16494TIP3    H170973   1.473   2.447   1.940  2.2034  4.0236 -1.4346
16494TIP3    H270974   1.469   2.462   2.090  3.0666  0.6627 -1.0003
16495TIP3   OH270975   1.648   5.413   1.174 -0.0600 -1.0169 -0.3239
16495TIP3    H170976   1.592   5.486   1.146  0.0375 -1.2611 -1.1620
16495TIP3    H270977   1.726   5.455   1.209  0.1180 -0.7224 -1.0641
16496TIP3   OH270978   4.822   4.672   2.888 -0.1240  0.0772 -0.0522
16496TIP3    H170979   4.786   4.636   2.807  0.1737  0.5823 -0.4159
16496TIP3    H270980   4.868   4.751   2.861  1.0775 -0.4219  0.4280
16497TIP3   OH270981   1.638   6.717  12.921 -0.1287 -0.1460  0.7854
16497TIP3    H170982   1.722   6.752  12.895 -0.2338 -0.4898 -0.0406
16497TIP3    H270983   1.656   6.667  13.001  0.5560 -0.7036  0.2897
16498TIP3   OH270984   2.735   4.070   5.358 -0.0508 -0.1795 -0.5214
16498TIP3    H170985   2.748   4.030   5.272  3.0637  0.1976 -0.3068
16498TIP3    H270986   2.675   4.143   5.341  0.9278  0.2370 -2.5221
16499TIP3   OH270987   4.797   0.033   1.389  0.1364 -0.0350 -0.0506
16499TIP3    H170988   4.808  -0.060   1.410  0.0702  0.2479  1.3346
16499TIP3    H270989   4.724   0.062   1.445 -0.6262  0.5951 -1.3133
16500TIP3   OH270990   3.368   0.848   6.374  0.1553 -0.1740  0.0450
16500TIP3    H170991   3.318   0.785   6.426 -0.6023 -0.2753 -0.7839
16500TIP3    H270992   3.315   0.927   6.375 -0.9925 -0.8335 -2.3577
16501TIP3   OH270993   3.580   0.842  12.243 -0.3213  0.5783  0.3614
16501TIP3    H170994   3.656   0.807  12.197 -1.4598  1.8118 -2.7186
16501TIP3    H270995   3.586   0.804  12.330  0.6591 -4.0542 -1.4271
16502TIP3   OH270996   6.574   0.440   4.347  0.3071  0.0395 -0.2571
16502TIP3    H170997   6.493   0.492   4.344  0.4950  0.2969 -1.0919
16502TIP3    H270998   6.546   0.357   4.385  0.3190  1.2558  2.7195
16503TIP3   OH270999   4.466   4.096  11.774 -0.1574  0.4032  0.0473
16503TIP3    H171000   4.453   4.135  11.687  0.4984 -0.3381 -0.4067
16503TIP3    H271001   4.557   4.116  11.796  0.4742 -1.5280 -0.5824
16504TIP3   OH271002   0.592   4.238  12.934 -0.3645  0.4356  0.0390
16504TIP3    H171003   0.656   4.266  12.999 -1.2449 -2.1912  2.2561
16504TIP3    H271004   0.620   4.150  12.909 -1.0096  0.7420 -1.9279
16505TIP3   OH271005   6.608   5.954  12.281  0.1304  0.0444  0.1787
16505TIP3    H171006   6.656   5.904  12.215  0.8879  2.0785 -0.8795
16505TIP3    H271007   6.548   6.009  12.231  0.5006  1.4148  1.1664
16506TIP3   OH271008   3.361   6.437  16.088  0.1762 -0.2465 -0.3090
16506TIP3    H171009   3.445   6.398  16.111  0.0906 -1.6826 -2.2409
16506TIP3    H271010   3.303   6.413  16.160  1.6283  1.8939  1.7508
16507TIP3   OH271011   6.095   3.306   2.614 -0.2716  0.1722  0.1150
16507TIP3    H171012   6.019   3.323   2.670 -1.7278 -0.6008 -1.5274
16507TIP3    H271013   6.162   3.272   2.674 -1.3141  0.5484  1.5550
16508TIP3   OH271014   0.088   6.791   5.965  0.0090  0.0122 -0.1537
16508TIP3    H171015   0.107   6.878   6.002  1.1766 -0.2983  0.0219
16508TIP3    H271016   0.156   6.735   6.002  0.2014 -0.6548 -1.4825
16509TIP3   OH271017   3.157   5.782   5.226 -0.0645  0.6647  0.7672
16509TIP3    H171018   3.134   5.711   5.285  2.1252 -0.0078  0.8912
16509TIP3    H271019   3.137   5.748   5.138 -0.8758  0.6712  0.9434
16510TIP3   OH271020   1.173   6.710   1.078  0.2693  0.6720  0.1829
16510TIP3    H171021   1.172   6.739   0.987  0.8748 -0.3633 -0.1667
16510TIP3    H271022   1.255   6.743   1.113  0.0513  1.0427  0.3509
16511TIP3   OH271023   4.459   0.952   3.056  0.2290 -0.5423 -0.0900
16511TIP3    H171024   4.454   0.858   3.072  1.2309 -0.6857 -0.5670
16511TIP3    H271025   4.503   0.959   2.971 -2.5390  0.2612 -1.5779
16512TIP3   OH271026   2.913   2.526  15.330  0.0309 -0.0537  0.3535
16512TIP3    H171027   2.976   2.546  15.400 -1.2629 -3.4877  2.7363
16512TIP3    H271028   2.829   2.552  15.365 -0.5611 -1.0606 -0.2727
16513TIP3   OH271029   4.068   5.019   6.388  0.4308  0.1416  0.0778
16513TIP3    H171030   4.054   5.091   6.449  2.4421  1.1397 -0.5544
16513TIP3    H271031   4.032   5.050   6.305  0.5897  0.0904 -0.0098
16514TIP3   OH271032   6.063   4.716  14.070  0.3394 -0.3434  0.7422
16514TIP3    H171033   5.985   4.662  14.063 -0.2401  0.6723 -2.5103
16514TIP3    H271034   6.036   4.802  14.037  3.0553 -0.3531 -1.9807
16515TIP3   OH271035   4.665   6.134  15.024 -0.1607  0.3736 -0.1005
16515TIP3    H171036   4.638   6.200  14.960 -1.6264 -0.2033 -0.1052
16515TIP3    H271037   4.586   6.115  15.074  0.0769 -1.7753 -0.4447
16516TIP3   OH271038   2.311   4.644   4.555 -0.4489 -0.2109  0.1446
16516TIP3    H171039   2.397   4.684   4.545 -1.6235  3.4981  2.7093
16516TIP3    H271040   2.285   4.666   4.645 -4.4774 -0.1571 -0.8467
16517TIP3   OH271041   6.655   4.244   1.897  0.1068  0.0259  0.0778
16517TIP3    H171042   6.643   4.337   1.874 -1.2447 -0.2146 -0.2447
16517TIP3    H271043   6.659   4.243   1.992  0.7171  0.4735  0.0641
16518TIP3   OH271044   3.139   1.537   4.406  0.0935  0.3767  0.5381
16518TIP3    H171045   3.058   1.542   4.355  1.4109  2.1278 -1.5532
16518TIP3    H271046   3.148   1.624   4.445  0.8955  0.1464  0.8898
16519TIP3   OH271047   0.446   1.661   1.610 -0.0486  0.2964 -0.1409
16519TIP3    H171048   0.458   1.662   1.515  2.0202  2.7457  0.0295
16519TIP3    H271049   0.357   1.628   1.623 -0.2519 -0.4606 -2.8819
16520TIP3   OH271050   1.391   2.556  14.817  0.4523 -0.4484  0.3563
16520TIP3    H171051   1.460   2.619  14.839 -0.3161  0.2613  0.7848
16520TIP3    H271052   1.310   2.598  14.846  0.0033 -2.0871  1.6629
16521TIP3   OH271053   6.126   3.892  16.213 -0.0506  0.2999 -0.4338
16521TIP3    H171054   6.055   3.858  16.268 -0.7790  1.9083 -0.3117
16521TIP3    H271055   6.190   3.927  16.275  0.2895 -0.0662 -0.5744
16522TIP3   OH271056   2.478   1.096  16.850  0.1124  0.4900 -0.2054
16522TIP3    H171057   2.409   1.156  16.876 -1.2344 -1.4875  1.0029
16522TIP3    H271058   2.435   1.032  16.792  0.6554 -1.2678  1.2329
16523TIP3   OH271059   0.193   5.352   0.857 -0.5362 -0.0102  0.2836
16523TIP3    H171060   0.267   5.294   0.872 -0.3487  0.2596  0.4243
16523TIP3    H271061   0.233   5.434   0.827 -0.7436  0.2999  0.8456
16524TIP3   OH271062   6.657   3.541   1.631 -0.2899 -0.1405 -0.3143
16524TIP3    H171063   6.714   3.547   1.555  1.1279  0.9750  0.7753
16524TIP3    H271064   6.574   3.578   1.602  1.1882  3.4276 -0.4861
16525TIP3   OH271065   1.056   2.668  13.037  0.7004 -0.0551  0.4244
16525TIP3    H171066   1.117   2.595  13.041  0.2379 -0.4252  0.8668
16525TIP3    H271067   0.969   2.628  13.046  0.4965  0.6212  1.9257
16526TIP3   OH271068   1.782   6.437   4.164  0.4280 -0.3600  0.4468
16526TIP3    H171069   1.707   6.393   4.203 -0.1096 -0.4325 -0.6224
16526TIP3    H271070   1.757   6.530   4.162  0.6896 -0.2809  0.7951
16527TIP3   OH271071   0.697   6.458  15.341  0.1611  0.1540  0.0933
16527TIP3    H171072   0.703   6.375  15.388 -2.1720  0.0900  0.3712
16527TIP3    H271073   0.755   6.517  15.390  0.5966 -0.8701  0.8486
16528TIP3   OH271074   2.750   6.669  15.130 -0.1605  0.4301  0.0520
16528TIP3    H171075   2.842   6.678  15.156 -0.2419 -0.2942  0.6330
16528TIP3    H271076   2.701   6.678  15.212 -0.5173 -0.5249 -0.0459
16529TIP3   OH271077   4.163   1.497   4.818  0.7179 -0.3619  0.5695
16529TIP3    H171078   4.250   1.473   4.789  0.1773  0.1340 -1.6531
16529TIP3    H271079   4.146   1.582   4.776 -2.1054 -2.0268 -2.0453
16530TIP3   OH271080   6.643   3.927  12.664  0.1924 -0.3545 -0.2700
16530TIP3    H171081   6.607   4.012  12.688 -0.1419  0.1458 -2.3612
16530TIP3    H271082   6.737   3.937  12.676  0.2127  0.5284 -1.0223
16531TIP3   OH271083   6.423   5.040  15.145 -0.0980  0.5872 -0.0843
16531TIP3    H171084   6.497   5.098  15.163 -0.0595  0.4505  0.1905
16531TIP3    H271085   6.442   4.960  15.194  1.4003 -0.8895 -2.8082
16532TIP3   OH271086   4.381   6.163   2.529  0.2345  0.0063  0.9337
16532TIP3    H171087   4.294   6.122   2.526 -0.6265  1.5790  2.4881
16532TIP3    H271088   4.415   6.141   2.615 -0.6593  3.0973  2.2441
16533TIP3   OH271089   0.142   6.378  11.279 -0.2607  0.1782 -0.4048
16533TIP3    H171090   0.205   6.393  11.349 -2.0240  1.9110  0.9161
16533TIP3    H271091   0.111   6.289  11.293  0.9099 -0.2329 -0.3011
16534TIP3   OH271092   2.333   6.595   2.238  0.0800 -0.0953 -0.4243
16534TIP3    H171093   2.394   6.521   2.244 -1.5599 -1.4972  0.1865
16534TIP3    H271094   2.386   6.672   2.257  1.6814 -1.2235 -0.1003
16535TIP3   OH271095   6.617   5.124  13.353  0.1860  0.2747  0.0622
16535TIP3    H171096   6.652   5.041  13.384 -0.0667 -0.0951 -0.6240
16535TIP3    H271097   6.524   5.106  13.336  0.2478  0.5389 -0.6081
16536TIP3   OH271098   1.941   5.166  14.293 -0.2775 -0.5735 -0.8272
16536TIP3    H171099   1.897   5.136  14.213  1.3271  2.4691 -3.0700
16536TIP3    H271100   2.012   5.103  14.306 -1.4582 -1.9625 -0.8481
16537TIP3   OH271101   6.093   2.326   3.019  0.0926  0.3753  0.1916
16537TIP3    H171102   6.095   2.419   3.039 -1.6698  1.2409 -3.0219
16537TIP3    H271103   6.013   2.294   3.061  0.4718  0.3736  0.9298
16538TIP3   OH271104   0.730   5.911   5.357  0.1918  0.3385  0.2631
16538TIP3    H171105   0.685   5.948   5.433  0.3401  0.8583  0.1044
16538TIP3    H271106   0.779   5.984   5.321 -1.1572  0.5508 -1.2857
16539TIP3   OH271107   2.876   5.860   1.566 -0.3246  0.1938  0.3205
16539TIP3    H171108   2.904   5.951   1.576 -0.2334  0.3448 -1.0267
16539TIP3    H271109   2.950   5.817   1.522 -0.5259 -0.4276  0.5808
16540TIP3   OH271110   1.241   6.493   4.815 -0.0896  0.7253 -0.2845
16540TIP3    H171111   1.299   6.479   4.740  2.6506  0.4110  1.7375
16540TIP3    H271112   1.266   6.579   4.848 -0.8982  0.6392  0.5681
16541TIP3   OH271113   5.695   6.181  13.226 -0.4621  0.0669  0.2443
16541TIP3    H171114   5.778   6.133  13.233 -0.6614 -0.4283 -0.5776
16541TIP3    H271115   5.714   6.252  13.164 -0.4997  0.3135  0.5114
16542TIP3   OH271116   4.758   6.418  12.143  0.4549  0.9725  1.1479
16542TIP3    H171117   4.665   6.415  12.167 -0.6951 -1.4160 -2.7309
16542TIP3    H271118   4.782   6.326  12.130  2.8166  1.6682  0.1488
16543TIP3   OH271119   0.432   2.421   0.343  0.0471 -0.6378 -0.1290
16543TIP3    H171120   0.478   2.397   0.263  0.4487  1.0870 -0.4733
16543TIP3    H271121   0.434   2.343   0.398  3.5698 -0.6305 -0.0471
16544TIP3   OH271122   1.519   0.925  12.129  0.1464  0.1496  0.8463
16544TIP3    H171123   1.534   0.894  12.039  2.9659  2.0122  0.5385
16544TIP3    H271124   1.433   0.967  12.125  1.0371  2.0268 -1.6341
16545TIP3   OH271125   2.940   6.684  13.080  0.3626 -0.5993 -0.5116
16545TIP3    H171126   2.847   6.706  13.074  0.2046 -1.4951 -1.8184
16545TIP3    H271127   2.950   6.609  13.022  2.1551  0.2924 -1.4176
16546TIP3   OH271128   2.336   6.156  13.231 -0.2586 -0.1175  0.1620
16546TIP3    H171129   2.305   6.093  13.166 -2.6338 -1.0414  2.0192
16546TIP3    H271130   2.409   6.112  13.275 -0.5715 -0.7176  0.0837
16547TIP3   OH271131   3.337   3.163  12.905  0.1308 -0.3362 -0.9804
16547TIP3    H171132   3.317   3.132  12.994 -0.6317 -0.1474 -1.0877
16547TIP3    H271133   3.319   3.257  12.908  3.5248  0.4557 -0.3162
16548TIP3   OH271134   0.645   5.035   4.289  0.5860  0.3100 -0.1448
16548TIP3    H171135   0.685   4.954   4.257  0.0935  0.0209 -0.0444
16548TIP3    H271136   0.709   5.071   4.350  1.0680  0.3088 -0.6352
16549TIP3   OH271137   2.966   6.599  10.867  0.3683 -0.1049  0.0241
16549TIP3    H171138   2.964   6.544  10.946 -0.9887 -1.1299 -0.6896
16549TIP3    H271139   3.010   6.546  10.801 -1.9456 -0.8834 -0.9993
16550TIP3   OH271140   2.015   4.520   2.487  0.1900 -0.1120  0.0715
16550TIP3    H171141   2.060   4.463   2.549 -0.8680 -0.9488  0.0928
16550TIP3    H271142   2.068   4.516   2.408 -0.2427 -1.7432 -0.1728
16551TIP3   OH271143   0.286   1.951  16.396 -0.0371  0.3365  0.2120
16551TIP3    H171144   0.298   1.858  16.418  1.7515  0.5758  0.4298
16551TIP3    H271145   0.253   1.950  16.306 -1.2454 -0.5121  0.6326
16552TIP3   OH271146   2.740   3.657   5.376  0.0859 -0.2332 -0.1475
16552TIP3    H171147   2.735   3.577   5.428  2.8940 -1.8554 -2.0943
16552TIP3    H271148   2.826   3.694   5.397 -0.3938  1.2653 -0.6980
16553TIP3   OH271149   3.458   2.904   6.270  0.2073 -0.0131 -0.6374
16553TIP3    H171150   3.461   2.897   6.365 -0.3009 -0.3496 -0.6458
16553TIP3    H271151   3.365   2.900   6.248  0.2810  0.6533 -1.1079
16554TIP3   OH271152   2.235   2.013   6.055 -0.3301  0.0430 -0.4047
16554TIP3    H171153   2.210   1.921   6.042  1.1939 -0.4406 -0.1480
16554TIP3    H271154   2.301   2.010   6.124 -0.5876  1.3969 -0.0743
16555TIP3   OH271155   5.497   3.225   2.608 -0.5690  0.6199 -1.0228
16555TIP3    H171156   5.532   3.142   2.639  0.2027  0.4135 -2.3423
16555TIP3    H271157   5.510   3.286   2.680 -0.3164 -0.1918 -0.3703
16556TIP3   OH271158   5.231   4.529  10.410  0.0246 -0.0883  0.2061
16556TIP3    H171159   5.326   4.529  10.416  0.2053 -0.5594 -1.9701
16556TIP3    H271160   5.202   4.483  10.489  1.6785 -1.5000  0.0499
16557TIP3   OH271161   0.078   1.234  12.929 -0.6352  0.2005 -0.5597
16557TIP3    H171162   0.138   1.275  12.867 -0.5128  0.8365 -0.0417
16557TIP3    H271163   0.133   1.211  13.004 -0.6961 -0.9864 -0.8668
16558TIP3   OH271164   1.453   3.049  16.893 -0.4198 -0.1427 -0.2055
16558TIP3    H171165   1.488   3.067  16.980  0.4574  1.2309 -0.8053
16558TIP3    H271166   1.367   3.093  16.893 -0.3619 -0.0274 -0.0794
16559TIP3   OH271167   3.368   0.554  17.198 -0.0453 -0.6968  0.3514
16559TIP3    H171168   3.297   0.490  17.198 -1.6522  0.9784 -0.8645
16559TIP3    H271169   3.345   0.616  17.128  2.7219 -0.1669 -0.2182
16560TIP3   OH271170   5.181   0.707   5.773 -0.2251  0.4611 -0.2925
16560TIP3    H171171   5.145   0.625   5.805 -1.9100  0.1664 -2.7343
16560TIP3    H271172   5.226   0.683   5.692  0.1635  1.8037 -0.4906
16561TIP3   OH271173   6.755   1.807   6.342  0.0327  0.5091  0.1481
16561TIP3    H171174   6.664   1.782   6.355  0.2419 -0.2708  0.1312
16561TIP3    H271175   6.798   1.728   6.309  1.1540  0.2322  2.1294
16562TIP3   OH271176   3.611   1.094  15.083 -0.6690  0.4558 -0.6454
16562TIP3    H171177   3.534   1.047  15.051 -0.5563 -0.7848  0.8145
16562TIP3    H271178   3.663   1.109  15.004  0.0707 -3.3624 -1.0869
16563TIP3   OH271179   0.554   5.516  16.523  0.1585  0.2887 -0.5983
16563TIP3    H171180   0.460   5.531  16.511  0.3720  2.4051 -0.0026
16563TIP3    H271181   0.560   5.428  16.560 -1.6855  0.5014  0.3179
16564TIP3   OH271182   3.102   3.654   4.061 -0.3310 -0.5530  0.1605
16564TIP3    H171183   3.171   3.720   4.064 -1.6030  0.9223 -0.7728
16564TIP3    H271184   3.040   3.681   4.129 -0.5220 -1.1841  0.2379
16565TIP3   OH271185   2.642   5.548   0.291 -0.3535 -0.4182  0.3594
16565TIP3    H171186   2.556   5.509   0.307 -0.6616  0.6117  1.3719
16565TIP3    H271187   2.624   5.641   0.277  0.5439 -0.2919 -0.0615
16566TIP3   OH271188   5.685   5.610  12.445  0.2966  0.1949  0.1033
16566TIP3    H171189   5.628   5.598  12.370 -0.8444  1.2027  0.7791
16566TIP3    H271190   5.692   5.704  12.457 -0.6115  0.0831  2.0049
16567TIP3   OH271191   4.181   5.725   5.542 -0.7994 -0.0005  0.4357
16567TIP3    H171192   4.193   5.639   5.583 -0.2294  0.2648  0.8470
16567TIP3    H271193   4.270   5.753   5.521 -1.1042 -0.3238 -1.4126
16568TIP3   OH271194   1.205   1.956  13.858  0.0656 -0.0656 -0.0090
16568TIP3    H171195   1.157   1.911  13.789  1.2189  0.7945 -1.4242
16568TIP3    H271196   1.207   2.048  13.830  0.2744  0.3562  1.3300
16569TIP3   OH271197   4.014   4.378  14.678 -0.4694  0.4447 -0.2202
16569TIP3    H171198   3.990   4.366  14.770 -0.9515 -0.0911 -0.4080
16569TIP3    H271199   3.953   4.322  14.630  1.1128 -0.9074 -0.7379
16570TIP3   OH271200   3.169   5.236  13.730 -0.1388 -0.5548  0.3068
16570TIP3    H171201   3.226   5.159  13.733  3.0714  1.6448  2.6378
16570TIP3    H271202   3.121   5.233  13.813 -2.3877 -1.5205 -0.9374
16571TIP3   OH271203   1.009   0.891   2.120 -0.1821 -0.4743 -0.1846
16571TIP3    H171204   0.950   0.839   2.174  1.0231 -2.7438 -0.9059
16571TIP3    H271205   0.984   0.870   2.030  1.8389 -1.7421 -0.5168
16572TIP3   OH271206   4.239   3.699   1.127 -0.2040  0.0947 -0.0489
16572TIP3    H171207   4.242   3.648   1.208 -1.0300  0.6955  0.3780
16572TIP3    H271208   4.320   3.678   1.082  2.1125  2.4652  2.5895
16573TIP3   OH271209   6.357   3.127   4.240 -0.3520  0.6652  0.8747
16573TIP3    H171210   6.417   3.167   4.303  0.1653 -0.0747  0.8798
16573TIP3    H271211   6.369   3.033   4.253 -1.9487  0.5015  1.2630
16574TIP3   OH271212   0.856   6.719  15.550  0.0564  0.1881 -0.0518
16574TIP3    H171213   0.804   6.771  15.489  1.3406 -1.1318 -2.4381
16574TIP3    H271214   0.792   6.678  15.608 -1.4114  0.1311 -1.6468
16575TIP3   OH271215   0.643   0.990  14.900 -0.3638  0.2384  0.1994
16575TIP3    H171216   0.657   0.899  14.876 -2.0409  0.3694 -1.4071
16575TIP3    H271217   0.610   1.032  14.821  1.1368  2.4628  0.6500
16576TIP3   OH271218   3.567   3.093  11.380 -0.4763  0.4527  0.3283
16576TIP3    H171219   3.576   3.024  11.445  0.9969 -0.5055 -0.8087
16576TIP3    H271220   3.594   3.052  11.298 -0.5565  2.1045 -0.5650
16577TIP3   OH271221   0.359   3.304   1.755 -0.0081 -0.8738  0.0474
16577TIP3    H171222   0.420   3.233   1.733  0.6249 -0.2840 -0.1196
16577TIP3    H271223   0.322   3.331   1.671 -2.7322 -3.1369  0.3401
16578TIP3   OH271224   2.728   4.903  11.656 -0.5221 -0.2327 -0.8512
16578TIP3    H171225   2.732   4.988  11.700 -1.1755 -0.7560  0.2473
16578TIP3    H271226   2.647   4.908  11.604 -0.5332 -0.1733 -0.8287
16579TIP3   OH271227   0.941   3.352  10.683 -0.0329  1.3553  0.0330
16579TIP3    H171228   0.888   3.422  10.721 -3.1658  0.1522 -1.7224
16579TIP3    H271229   0.892   3.272  10.703  2.2022 -0.1269 -0.0667
16580TIP3   OH271230   3.516   4.838  12.559 -1.0654 -0.6176 -0.1692
16580TIP3    H171231   3.514   4.783  12.638 -1.3582 -2.2302 -1.2580
16580TIP3    H271232   3.444   4.900  12.571 -1.7125 -1.4638  0.4170
16581TIP3   OH271233   6.127   3.857   5.180  0.1331 -0.2076  0.0646
16581TIP3    H171234   6.182   3.779   5.193 -1.3208 -1.2704  0.1591
16581TIP3    H271235   6.091   3.847   5.092 -0.4149  0.1190  0.2469
16582TIP3   OH271236   0.101   5.058  13.696 -0.0273  0.0441  0.0576
16582TIP3    H171237   0.126   5.035  13.785  0.4023  0.5273  0.0666
16582TIP3    H271238   0.005   5.059  13.697 -0.0239 -0.1873  0.4506
16583TIP3   OH271239   6.546   3.824  15.610  0.4361 -0.1773  0.3002
16583TIP3    H171240   6.493   3.885  15.662  0.4482  0.2532 -0.1786
16583TIP3    H271241   6.623   3.876  15.584  0.6337 -0.5151  0.2071
16584TIP3   OH271242   4.293   2.812  16.938  1.0548  0.2725  0.2757
16584TIP3    H171243   4.227   2.836  17.003 -1.1169 -0.2063 -1.6152
16584TIP3    H271244   4.345   2.892  16.926 -0.0793  1.1100  0.7857
16585TIP3   OH271245   5.409   2.447   4.521  0.1545  0.1806  0.2512
16585TIP3    H171246   5.456   2.524   4.486 -0.6228  0.2837 -0.6054
16585TIP3    H271247   5.367   2.480   4.600 -1.6772  1.1867 -1.0638
16586TIP3   OH271248   5.186   1.393   4.558 -0.1000 -0.1932  0.7487
16586TIP3    H171249   5.251   1.337   4.516 -1.8997 -2.2311  0.5185
16586TIP3    H271250   5.182   1.471   4.502 -0.3751 -1.5826 -1.2630
16587TIP3   OH271251   4.471   0.249   1.834  0.2572  0.7704 -0.1109
16587TIP3    H171252   4.484   0.287   1.920  2.2903  1.1067 -0.5111
16587TIP3    H271253   4.442   0.159   1.851 -1.5414  1.4832  0.8578
16588TIP3   OH271254   3.769   3.732   6.036 -0.3532  0.2670  0.3037
16588TIP3    H171255   3.676   3.712   6.035 -0.4774  0.8184  0.4500
16588TIP3    H271256   3.793   3.730   6.129  0.0616 -1.1147  0.1810
16589TIP3   OH271257   2.933   6.040  11.896  0.0371 -0.1024  0.5162
16589TIP3    H171258   2.971   6.020  11.810  0.5975 -0.9514  0.9531
16589TIP3    H271259   2.914   5.955  11.934 -0.4776  0.2770  1.1297
16590TIP3   OH271260   0.566   1.095   1.415  0.5601  0.5270  0.2712
16590TIP3    H171261   0.563   1.148   1.336  0.1083  0.4813  0.2587
16590TIP3    H271262   0.646   1.124   1.460  1.2037  0.0685 -0.5359
16591TIP3   OH271263   6.281   6.175   0.925  0.5225 -0.0159  0.2084
16591TIP3    H171264   6.307   6.117   0.997  2.1008 -1.4767 -1.4087
16591TIP3    H271265   6.356   6.231   0.911  0.6802 -0.4866 -0.9601
16592TIP3   OH271266   6.384   5.318  14.694  0.0791 -0.3000  1.0132
16592TIP3    H171267   6.467   5.349  14.658  0.0708 -0.5651  0.7641
16592TIP3    H271268   6.317   5.361  14.642  0.0630 -0.2988  1.0355
16593TIP3   OH271269   2.695   0.386  17.182 -0.6112 -0.2503  0.2510
16593TIP3    H171270   2.632   0.314  17.185 -1.9152  0.8475  0.3661
16593TIP3    H271271   2.691   0.418  17.092 -0.8377  0.3345  0.4641
16594TIP3   OH271272   5.754   4.510  13.815 -0.1233 -0.8906 -0.3530
16594TIP3    H171273   5.778   4.418  13.801 -3.7616 -2.4366  2.0636
16594TIP3    H271274   5.689   4.528  13.747  0.6814  0.0235 -0.9108
16595TIP3   OH271275   0.961   4.985  11.405 -0.2524  0.0670  0.2240
16595TIP3    H171276   1.014   5.060  11.434  0.5317 -0.0901 -0.7410
16595TIP3    H271277   0.942   4.936  11.485  2.2393 -0.6117  0.4695
16596TIP3   OH271278   4.474   5.607   5.043 -0.7194 -0.4599  0.0891
16596TIP3    H171279   4.472   5.579   5.135  0.9326  1.1625  0.6772
16596TIP3    H271280   4.551   5.563   5.007  0.2912  1.0924  0.2842
16597TIP3   OH271281   6.159   5.216   3.476  0.0376 -0.1962 -0.0217
16597TIP3    H171282   6.201   5.211   3.390  0.9413  0.7928  0.3462
16597TIP3    H271283   6.225   5.186   3.537  0.4922  1.9542  0.6310
16598TIP3   OH271284   6.289   1.442  11.202 -0.5504 -0.0114  0.6435
16598TIP3    H171285   6.325   1.415  11.117 -0.8598 -0.3492  0.6143
16598TIP3    H271286   6.220   1.378  11.219 -1.1565  0.6334  0.6755
16599TIP3   OH271287   1.968   5.165  13.775  0.2600  0.0944 -0.4686
16599TIP3    H171288   1.888   5.183  13.727  0.8926  0.1091 -1.5639
16599TIP3    H271289   2.003   5.085  13.735  1.4502  0.8060 -0.9358
16600TIP3   OH271290   5.724   5.497  11.071  0.4906  0.2614 -0.0558
16600TIP3    H171291   5.691   5.426  11.016  0.5043  2.0753 -2.5924
16600TIP3    H271292   5.675   5.574  11.042  4.0711  2.3112 -1.1911
16601TIP3   OH271293   6.659   5.935   2.044  0.3440  0.1364 -0.4176
16601TIP3    H171294   6.742   5.922   1.999  0.4838 -0.1985 -0.0604
16601TIP3    H271295   6.675   6.007   2.105 -0.3262  1.8327 -2.1265
16602TIP3   OH271296   5.802   5.757   2.085 -0.1513  0.4535 -0.0754
16602TIP3    H171297   5.711   5.785   2.096 -0.1771  0.4329 -0.2399
16602TIP3    H271298   5.806   5.722   1.996 -0.4342 -1.2257  0.5382
16603TIP3   OH271299   0.035   3.471   4.685 -0.1638  0.1463  0.1163
16603TIP3    H171300   0.020   3.562   4.712  3.0903  1.1729 -1.0453
16603TIP3    H271301   0.111   3.476   4.627  0.7970 -3.4820  0.8382
16604TIP3   OH271302   3.937   1.902  16.443  0.3747 -0.2012 -0.3060
16604TIP3    H171303   3.997   1.861  16.505 -1.3539 -1.6617  0.5009
16604TIP3    H271304   3.941   1.847  16.365  1.8037  1.0688 -1.1839
16605TIP3   OH271305   5.312   1.273  16.290  0.4505  0.0181  0.2104
16605TIP3    H171306   5.266   1.356  16.275 -0.8011 -0.9088 -1.4372
16605TIP3    H271307   5.359   1.286  16.372 -2.9889  0.9760  2.2255
16606TIP3   OH271308   3.981   6.641   4.470  0.1899 -0.0789  0.0998
16606TIP3    H171309   4.064   6.659   4.425 -0.4144 -1.6643 -1.7559
16606TIP3    H271310   4.002   6.568   4.529 -0.0636 -1.0744 -1.0196
16607TIP3   OH271311   0.300   1.415  15.238  0.0121 -0.3091  0.3575
16607TIP3    H171312   0.221   1.420  15.292  0.7477 -1.3836  1.5767
16607TIP3    H271313   0.305   1.323  15.212  0.6529 -0.1653 -0.0461
16608TIP3   OH271314   4.359   3.385  15.132 -0.2218  0.0743  0.1225
16608TIP3    H171315   4.430   3.347  15.185  0.2095 -0.1945 -0.6350
16608TIP3    H271316   4.401   3.455  15.083 -0.3667 -0.3947 -0.6878
16609TIP3   OH271317   3.954   1.624   3.726 -0.4723 -0.3472 -0.2675
16609TIP3    H171318   3.859   1.622   3.737 -0.3008 -0.0929  1.5298
16609TIP3    H271319   3.973   1.714   3.701 -0.6937 -0.3720 -0.5291
16610TIP3   OH271320   4.270   4.470  12.983  0.1025 -0.1031 -0.1861
16610TIP3    H171321   4.214   4.407  13.030  1.4319 -1.4664 -0.3464
16610TIP3    H271322   4.211   4.542  12.962 -1.1639 -0.6402  1.2494
16611TIP3   OH271323   4.136   6.420  16.102  0.4204 -0.2218 -0.3641
16611TIP3    H171324   4.084   6.386  16.175  0.9576 -1.7997 -0.6846
16611TIP3    H271325   4.073   6.426  16.029  0.2258 -0.1268 -0.1904
16612TIP3   OH271326   5.030   4.924  12.323  0.5313  0.6744  0.2883
16612TIP3    H171327   5.088   4.907  12.248 -0.5457  0.3062 -0.4709
16612TIP3    H271328   5.045   5.017  12.343  2.0552  0.3735  0.7013
16613TIP3   OH271329   0.705   1.785  17.082 -0.1813  0.2773  0.0339
16613TIP3    H171330   0.782   1.757  17.132 -0.4298 -0.1156  0.2112
16613TIP3    H271331   0.730   1.868  17.043  0.8152 -0.4728 -1.0153
16614TIP3   OH271332   3.109   5.255   1.236  0.5017  0.0339  0.0018
16614TIP3    H171333   3.179   5.234   1.297  0.1531 -1.4151 -0.0679
16614TIP3    H271334   3.138   5.335   1.192  1.7108 -0.0791  0.5734
16615TIP3   OH271335   1.503   5.403  11.993 -0.4842 -0.2890  0.0168
16615TIP3    H171336   1.413   5.435  11.995 -1.0125 -1.7038  0.8041
16615TIP3    H271337   1.494   5.311  11.967  0.7714 -0.3558 -0.2349
16616TIP3   OH271338   0.581   5.271   0.358 -0.4681 -0.6861 -0.2200
16616TIP3    H171339   0.636   5.315   0.422 -0.1047 -1.5271  0.0612
16616TIP3    H271340   0.516   5.224   0.410 -1.3385  0.1245 -0.5415
16617TIP3   OH271341   1.756   3.728   3.067  0.3244 -0.1482 -0.1016
16617TIP3    H171342   1.773   3.751   2.976  0.6791  1.8429  0.4165
16617TIP3    H271343   1.661   3.739   3.077  0.4450  0.9081  0.0523
16618TIP3   OH271344   4.283   4.102  12.490 -0.3180  0.0364  0.0259
16618TIP3    H171345   4.328   4.159  12.553 -2.3728 -0.4393  2.0424
16618TIP3    H271346   4.198   4.143  12.477 -0.9527 -1.3314 -0.3315
16619TIP3   OH271347   5.834   2.262  14.087 -0.3325  0.0967  0.1823
16619TIP3    H171348   5.809   2.307  14.167 -0.0025 -0.2712  0.4969
16619TIP3    H271349   5.754   2.260  14.035 -0.3765  0.9512  0.2026
16620TIP3   OH271350   3.600   0.244   3.884 -0.2901 -0.9739 -0.0695
16620TIP3    H171351   3.679   0.232   3.937  0.5514 -0.5880 -1.1962
16620TIP3    H271352   3.629   0.225   3.794 -1.0326  0.9187 -0.7448
16621TIP3   OH271353   2.322   5.284   0.833 -0.6004  0.4006 -0.0689
16621TIP3    H171354   2.356   5.197   0.853 -1.1809  0.1899  0.0130
16621TIP3    H271355   2.341   5.296   0.740 -2.1020 -0.5608 -0.5394
16622TIP3   OH271356   5.372   0.927   5.452  0.3395 -0.3521 -0.2615
16622TIP3    H171357   5.388   0.999   5.513  0.3343 -0.9247  0.4288
16622TIP3    H271358   5.283   0.940   5.421 -0.3940 -1.1702  1.4044
16623TIP3   OH271359   6.507   5.289  11.105 -0.4001 -0.1561 -0.4050
16623TIP3    H171360   6.446   5.339  11.051 -0.9115 -0.5155 -0.1668
16623TIP3    H271361   6.498   5.199  11.075  0.7935 -0.0749 -1.0906
16624TIP3   OH271362   2.951   0.478  15.770  0.8869  0.3637  0.1050
16624TIP3    H171363   3.024   0.444  15.718  0.4752  0.3801 -0.4945
16624TIP3    H271364   2.899   0.529  15.708  0.1623  0.0418  0.4324
16625TIP3   OH271365   3.328   6.509  14.004 -1.0797 -0.6419 -0.1140
16625TIP3    H171366   3.348   6.462  13.923  2.8641  0.3779  0.0823
16625TIP3    H271367   3.314   6.440  14.069 -0.2625 -1.5075 -0.8363
16626TIP3   OH271368   4.717   4.838   0.431  0.3049 -0.6652 -0.2905
16626TIP3    H171369   4.651   4.789   0.382 -0.1103 -2.5723  1.9485
16626TIP3    H271370   4.667   4.904   0.479  0.5022  0.1675 -1.2201
16627TIP3   OH271371   3.528   5.152  16.545  0.2716  0.7605 -0.2663
16627TIP3    H171372   3.533   5.233  16.595  1.0955  0.3002  0.4238
16627TIP3    H271373   3.446   5.112  16.574  1.5380 -0.3528  2.1324
16628TIP3   OH271374   2.188   1.780   4.923 -0.2008 -0.6258 -0.1541
16628TIP3    H171375   2.239   1.704   4.896  2.1027  0.5731  0.6201
16628TIP3    H271376   2.144   1.752   5.003  0.3654 -1.2466 -0.0496
16629TIP3   OH271377   6.716   1.139   5.851 -0.4926  0.2113  0.4329
16629TIP3    H171378   6.692   1.227   5.821 -0.1205  0.3491  0.5276
16629TIP3    H271379   6.649   1.117   5.915 -0.2803  0.6554  0.8139
16630TIP3   OH271380   4.969   4.026  11.850 -0.6569  0.5000 -0.1443
16630TIP3    H171381   5.045   3.969  11.863 -0.1510  0.6767 -2.0730
16630TIP3    H271382   4.988   4.104  11.904  0.6666  0.6497 -0.7966
16631TIP3   OH271383   0.820   4.235   1.623 -0.4027  0.4276 -0.1824
16631TIP3    H171384   0.907   4.247   1.584  0.0281 -2.1484 -0.2099
16631TIP3    H271385   0.783   4.323   1.626  1.2478  1.3120 -2.3954
16632TIP3   OH271386   4.065   6.239  13.204  0.7188 -0.5475  0.6908
16632TIP3    H171387   4.006   6.276  13.270  1.3058 -0.2897  1.0852
16632TIP3    H271388   4.035   6.277  13.121  0.0155 -0.8243  0.8106
16633TIP3   OH271389   4.167   1.338   2.355  0.0445  0.0406 -0.5973
16633TIP3    H171390   4.087   1.348   2.406  0.0153 -0.5871 -0.5175
16633TIP3    H271391   4.199   1.251   2.377  0.0675 -0.2149 -1.5830
16634TIP3   OH271392   5.468   3.042  17.204  0.3812  0.1762 -0.5895
16634TIP3    H171393   5.545   3.075  17.157  0.7229  2.5629  1.4178
16634TIP3    H271394   5.482   3.069  17.295 -2.3912 -0.1411  0.0171
16635TIP3   OH271395   3.743   3.265   3.699  0.4201 -0.7637 -0.0129
16635TIP3    H171396   3.693   3.312   3.632 -1.4814 -1.1510  1.0922
16635TIP3    H271397   3.822   3.319   3.711  0.7508 -0.6034 -2.4065
16636TIP3   OH271398   2.816   4.606  13.580  0.0752  0.3128 -0.1795
16636TIP3    H171399   2.797   4.675  13.517  2.7780 -0.6969 -2.3078
16636TIP3    H271400   2.860   4.651  13.652 -1.0004  1.1733 -0.0261
16637TIP3   OH271401   4.143   6.663   4.033  0.0079  0.4648  0.7859
16637TIP3    H171402   4.123   6.578   4.072  0.3529  1.0426  2.2590
16637TIP3    H271403   4.085   6.668   3.956 -1.1259 -0.4371  1.5523
16638TIP3   OH271404   6.676   6.571  10.992 -0.2561  0.1104 -0.1461
16638TIP3    H171405   6.602   6.630  10.980 -1.3756 -1.2712 -0.3181
16638TIP3    H271406   6.714   6.596  11.077 -1.3911  0.3563  0.3038
16639TIP3   OH271407   4.086   6.336   6.531  0.3073 -0.1568 -0.6095
16639TIP3    H171408   4.074   6.417   6.580 -1.0686 -1.6276  1.6212
16639TIP3    H271409   3.999   6.297   6.526  0.9624 -1.6156 -1.4590
16640TIP3   OH271410   6.274   3.073   4.851  0.3273  0.6252 -0.3683
16640TIP3    H171411   6.223   3.094   4.773 -0.7211  1.2340  0.4666
16640TIP3    H271412   6.359   3.115   4.836  0.1555  0.6986 -1.1852
16641TIP3   OH271413   4.509   6.764   2.373  0.3138 -0.3218  0.0089
16641TIP3    H171414   4.579   6.817   2.411 -0.6107  0.7168  0.3205
16641TIP3    H271415   4.553   6.685   2.341  1.7964  0.7632 -0.7675
16642TIP3   OH271416   1.490   4.621  16.969  0.5704  0.2541 -0.4831
16642TIP3    H171417   1.415   4.679  16.953 -0.8645 -0.4908  2.7622
16642TIP3    H271418   1.541   4.666  17.037 -0.1758 -1.8042  1.5603
16643TIP3   OH271419   1.050   6.209  15.970 -0.5385 -0.2958 -0.2415
16643TIP3    H171420   1.009   6.183  16.052  0.5274 -0.3118  0.3095
16643TIP3    H271421   1.001   6.164  15.902 -0.5307 -1.4365  0.4916
16644TIP3   OH271422   0.359   1.692   4.925 -0.5214 -0.5282  0.0479
16644TIP3    H171423   0.348   1.749   4.849 -1.8920 -0.7025  0.0911
16644TIP3    H271424   0.415   1.742   4.985 -1.4521  0.6654 -0.0356
16645TIP3   OH271425   5.012   0.171  12.068  0.0329 -0.0538  0.0200
16645TIP3    H171426   4.934   0.225  12.060 -0.8207 -1.3898 -1.2743
16645TIP3    H271427   4.988   0.104  12.132  0.1252 -0.4100 -0.3102
16646TIP3   OH271428   3.407   5.715   5.341  0.4365  0.1145 -0.1180
16646TIP3    H171429   3.333   5.745   5.394  0.2365 -1.9015  0.8168
16646TIP3    H271430   3.483   5.728   5.397  0.6453  1.0073 -0.5981
16647TIP3   OH271431   3.373   5.051  13.769  0.4833  0.2040  0.8191
16647TIP3    H171432   3.338   4.981  13.824 -1.4780  1.3351  1.0666
16647TIP3    H271433   3.438   5.095  13.824  0.1443 -0.0546  1.4254
16648TIP3   OH271434   2.349   2.203   0.361 -0.4735  0.4131  0.4163
16648TIP3    H171435   2.409   2.182   0.289  1.0240  0.7778  1.4973
16648TIP3    H271436   2.283   2.260   0.322  0.7937  1.2915 -0.5086
16649TIP3   OH271437   4.150   4.634  10.599 -0.6138  0.0559  0.0812
16649TIP3    H171438   4.114   4.691  10.531  0.8782 -0.0045 -0.7851
16649TIP3    H271439   4.101   4.552  10.589 -1.7223  0.6618  0.3538
16650TIP3   OH271440   2.972   4.005  12.191 -0.3991 -0.0522 -0.1604
16650TIP3    H171441   2.949   3.960  12.110 -2.6046  0.2852  0.2240
16650TIP3    H271442   2.898   4.063  12.208  1.2339  1.8972  0.6876
16651TIP3   OH271443   5.568   6.009   0.884 -0.0764 -0.4319 -0.2818
16651TIP3    H171444   5.481   6.039   0.859  0.5175 -0.6987 -3.0743
16651TIP3    H271445   5.619   6.089   0.895  0.5010 -0.1728 -3.7267
16652TIP3   OH271446   1.482   5.515  11.221 -0.2621  0.3912  0.0669
16652TIP3    H171447   1.485   5.521  11.126  1.3608 -1.2353 -0.0337
16652TIP3    H271448   1.573   5.514  11.249 -0.6186 -1.4157  1.4136
16653TIP3   OH271449   3.757   4.614  16.679  0.0185 -0.0971 -0.2231
16653TIP3    H171450   3.819   4.660  16.734 -0.2995  1.3243 -1.0004
16653TIP3    H271451   3.691   4.680  16.656 -1.1104 -1.2438 -0.4110
16654TIP3   OH271452   3.853   1.234  16.080 -0.3240  0.5777  0.1162
16654TIP3    H171453   3.896   1.249  16.164 -0.5759  0.9988  0.1766
16654TIP3    H271454   3.848   1.139  16.071  0.1817  0.5312  0.3312
16655TIP3   OH271455   5.434   1.238   5.125 -0.0927  0.3079  0.7233
16655TIP3    H171456   5.446   1.144   5.135 -0.7667 -0.1278 -1.8506
16655TIP3    H271457   5.339   1.249   5.113 -0.0466  1.3535  1.1835
16656TIP3   OH271458   1.701   4.437  12.392  0.5894 -0.4623  0.1184
16656TIP3    H171459   1.676   4.480  12.474 -0.1346  0.6023 -0.6390
16656TIP3    H271460   1.794   4.456  12.382  1.2822 -2.5032  1.7978
16657TIP3   OH271461   3.078   5.310  12.659  0.0754 -0.3800 -0.4045
16657TIP3    H171462   3.118   5.337  12.741 -0.2788 -0.1002 -0.3236
16657TIP3    H271463   3.152   5.292  12.601  0.4500  3.5182 -1.4174
16658TIP3   OH271464   3.968   0.817  13.704 -0.4739  0.2564 -0.4739
16658TIP3    H171465   4.020   0.749  13.746 -1.3683  0.3726  0.9294
16658TIP3    H271466   3.968   0.795  13.611  0.2073 -0.9888 -0.1959
16659TIP3   OH271467   4.780   0.757   0.339  0.6775  0.3665  0.1850
16659TIP3    H171468   4.808   0.685   0.282 -1.9597 -1.1953  0.6864
16659TIP3    H271469   4.737   0.819   0.280  0.6882  0.2633  0.0693
16660TIP3   OH271470   6.763   2.350  12.215 -0.2876  0.1698 -0.2288
16660TIP3    H171471   6.761   2.427  12.159  0.8331  0.7892  0.5296
16660TIP3    H271472   6.714   2.377  12.293 -0.9295 -0.3171 -0.4558
16661TIP3   OH271473   2.511   6.315  13.558 -0.0166  0.3071  0.3198
16661TIP3    H171474   2.474   6.396  13.522 -0.0971  0.0956 -0.0742
16661TIP3    H271475   2.536   6.338  13.648 -0.2373  0.7096  0.2799
16662TIP3   OH271476   0.639   6.798  15.022 -0.3381 -0.4399  0.3347
16662TIP3    H171477   0.621   6.844  14.941  1.1558 -0.7651 -0.2029
16662TIP3    H271478   0.595   6.713  15.011 -1.8320  0.2427  0.7254
16663TIP3   OH271479   5.300   3.874   2.031 -0.1438  0.4507  0.2821
16663TIP3    H171480   5.352   3.839   2.103  1.1140  1.2168 -0.2292
16663TIP3    H271481   5.305   3.807   1.963 -2.0511 -0.6770  1.1564
16664TIP3   OH271482   5.438   6.463  13.439 -0.0474 -0.0383  0.2558
16664TIP3    H171483   5.432   6.388  13.381 -1.9103 -0.5129  0.9982
16664TIP3    H271484   5.531   6.486  13.438  0.6005 -2.3701  0.0436
16665TIP3   OH271485   2.392   2.712  10.303  0.0626  0.3251 -0.2831
16665TIP3    H171486   2.312   2.662  10.316 -0.0144  0.6509  0.5520
16665TIP3    H271487   2.462   2.654  10.335  0.3850 -0.6601 -2.5885
16666TIP3   OH271488   0.875   0.957  11.911 -0.4752  0.6240  0.4557
16666TIP3    H171489   0.793   0.999  11.888  0.2415  0.8043 -1.9869
16666TIP3    H271490   0.942   1.006  11.864  0.6049 -1.9673 -0.9485
16667TIP3   OH271491   6.641   5.108  13.771 -0.1691  0.9544 -0.2243
16667TIP3    H171492   6.636   5.045  13.843  0.9917 -0.2180 -1.1146
16667TIP3    H271493   6.692   5.181  13.806  1.4730 -0.1527 -0.1901
16668TIP3   OH271494   5.510   1.532  11.636  0.2179 -0.0711  0.2511
16668TIP3    H171495   5.571   1.557  11.705 -0.4059  2.8899 -0.1396
16668TIP3    H271496   5.555   1.554  11.555 -0.2550 -0.6139 -0.1672
16669TIP3   OH271497   2.349   1.229  12.025  0.1108 -0.5415 -0.0448
16669TIP3    H171498   2.432   1.211  11.980 -0.0265 -1.1868 -0.0504
16669TIP3    H271499   2.365   1.310  12.073  0.5739 -0.3703 -0.4812
16670TIP3   OH271500   3.985   6.731  12.327  0.7603 -0.4509 -0.2248
16670TIP3    H171501   3.959   6.655  12.380  1.7491 -0.4798  0.2332
16670TIP3    H271502   3.902   6.765  12.293  0.2750 -1.5410 -0.1792
16671TIP3   OH271503   4.656   4.843   1.908 -0.1573  0.0875 -0.2204
16671TIP3    H171504   4.583   4.803   1.860  0.1312  0.1158 -0.6955
16671TIP3    H271505   4.642   4.937   1.898 -0.5050  0.1028  0.3867
16672TIP3   OH271506   3.422   2.371   5.865  0.7675 -0.5372  0.1145
16672TIP3    H171507   3.329   2.361   5.844  1.0154 -0.2835 -1.1649
16672TIP3    H271508   3.423   2.424   5.945 -0.2020 -1.2608  0.6267
16673TIP3   OH271509   3.646   4.682  11.577 -0.5426 -0.0730 -0.1103
16673TIP3    H171510   3.625   4.737  11.502 -2.4239  0.1919  0.5771
16673TIP3    H271511   3.731   4.715  11.608 -0.0103  0.1739 -1.7524
16674TIP3   OH271512   5.202   2.765   4.669  0.3487 -0.5291  0.3291
16674TIP3    H171513   5.222   2.822   4.595 -1.1116  0.1399  0.4118
16674TIP3    H271514   5.113   2.734   4.652 -0.2751  0.1457  2.0955
16675TIP3   OH271515   2.352   2.968  12.382  0.0178  0.6935  0.0061
16675TIP3    H171516   2.427   3.010  12.426  0.5718 -0.6345  0.3716
16675TIP3    H271517   2.391   2.901  12.326 -0.8700  0.3290 -0.1938
16676TIP3   OH271518   2.537   4.762  14.091  0.0294 -0.0812 -0.3486
16676TIP3    H171519   2.597   4.689  14.075 -0.1731 -0.9589  2.3222
16676TIP3    H271520   2.451   4.721  14.098 -0.2562  0.5744  0.0111
16677TIP3   OH271521   2.461   5.691   3.025 -0.9744 -0.0153 -0.1146
16677TIP3    H171522   2.406   5.651   3.093 -0.4501  0.1121  0.3952
16677TIP3    H271523   2.548   5.695   3.064 -1.1675  2.4856  0.2593
16678TIP3   OH271524   0.522   4.182   5.775 -0.6771  0.0890  0.2454
16678TIP3    H171525   0.546   4.251   5.837 -0.0286  1.6970 -1.6854
16678TIP3    H271526   0.426   4.180   5.778 -0.6655  0.3295  1.0833
16679TIP3   OH271527   0.791   2.163  16.399 -0.0024 -0.7611  0.0359
16679TIP3    H171528   0.756   2.224  16.464  1.2744 -1.6635  1.6659
16679TIP3    H271529   0.718   2.104  16.379 -1.0583  0.8415 -1.0804
16680TIP3   OH271530   1.884   6.193  15.733 -0.9282 -0.5076 -0.1978
16680TIP3    H171531   1.923   6.205  15.820  1.5537  0.8387 -1.4185
16680TIP3    H271532   1.842   6.107  15.738 -2.0756  0.0795  2.7278
16681TIP3   OH271533   6.026   0.141  12.266 -0.1974  0.2763  0.2547
16681TIP3    H171534   5.994   0.115  12.180 -1.0118  0.6343  0.4389
16681TIP3    H271535   6.120   0.154  12.254 -0.3382  0.5586 -0.6388
16682TIP3   OH271536   2.386   1.195  11.138  0.1990  0.4041 -0.5275
16682TIP3    H171537   2.428   1.260  11.082 -1.1739  2.0146  0.2077
16682TIP3    H271538   2.296   1.190  11.106  0.3043 -1.3438 -0.6959
16683TIP3   OH271539   5.938   2.602   2.786 -0.7072  0.0831  0.1400
16683TIP3    H171540   5.932   2.625   2.879  0.8624 -0.1522  0.3248
16683TIP3    H271541   5.977   2.678   2.744  2.6109 -1.2862  0.4251
16684TIP3   OH271542   4.588   6.629  13.440 -0.5673 -0.2489 -0.1646
16684TIP3    H171543   4.652   6.649  13.507  0.7242 -0.3222 -1.3321
16684TIP3    H271544   4.514   6.686  13.460  0.1161  0.3215  0.8301
16685TIP3   OH271545   6.485   2.464   1.189  0.2782 -0.0112  0.1011
16685TIP3    H171546   6.437   2.489   1.111  0.1621 -0.8122 -0.0989
16685TIP3    H271547   6.514   2.374   1.172  0.5061 -0.0937  0.8543
16686TIP3   OH271548   3.798   0.189   0.488 -0.0335 -0.6697  0.0333
16686TIP3    H171549   3.872   0.192   0.548 -0.4677 -0.7227  0.5711
16686TIP3    H271550   3.726   0.151   0.539 -0.5259 -0.3084 -0.3835
16687TIP3   OH271551   0.428   0.304   3.728  0.3993 -0.2376  0.2281
16687TIP3    H171552   0.518   0.306   3.761 -0.2929 -0.5954  2.2785
16687TIP3    H271553   0.375   0.336   3.801 -1.1928 -0.4829 -0.7683
16688TIP3   OH271554   3.341   5.192   0.969 -0.2693 -0.1684 -0.1493
16688TIP3    H171555   3.298   5.107   0.965 -1.9767  0.6881 -1.6700
16688TIP3    H271556   3.355   5.209   1.062  0.5616 -2.2875  0.1588
16689TIP3   OH271557   0.711   2.858   2.055  0.5637 -0.2797 -0.1665
16689TIP3    H171558   0.746   2.845   2.143 -0.5490 -0.2328  0.3043
16689TIP3    H271559   0.627   2.901   2.069 -0.0780 -1.1347 -1.1975
16690TIP3   OH271560   1.781   0.966   1.050 -0.1307 -0.7047 -0.1886
16690TIP3    H171561   1.704   0.923   1.088 -0.2253  0.2306  0.7438
16690TIP3    H271562   1.755   1.058   1.043  0.9580 -0.3468  0.2988
16691TIP3   OH271563   2.909   3.033   4.064 -0.5690 -0.8510 -0.4173
16691TIP3    H171564   2.964   3.089   4.010 -0.3783 -0.4332  0.2008
16691TIP3    H271565   2.934   2.944   4.040 -0.0612 -0.6651 -0.5796
16692TIP3   OH271566   0.445   3.353   0.858 -0.6694 -0.4579 -1.1249
16692TIP3    H171567   0.409   3.286   0.801 -1.5313 -0.2561 -0.8350
16692TIP3    H271568   0.415   3.329   0.946  0.0418 -0.3729 -0.8508
16693TIP3   OH271569   6.804   0.885  16.027 -0.3859  0.4797  0.8215
16693TIP3    H171570   6.877   0.925  15.980 -0.5801  0.4924  0.5254
16693TIP3    H271571   6.845   0.819  16.083 -0.3512 -1.6819 -1.5662
16694TIP3   OH271572   2.655   2.986  16.388  0.2472 -0.2568  0.9767
16694TIP3    H171573   2.572   2.941  16.406  0.4484 -0.6824  0.8578
16694TIP3    H271574   2.706   2.977  16.468  0.2463 -0.1462  0.9899
16695TIP3   OH271575   4.671   1.909   1.060  0.4534 -0.6633  0.2552
16695TIP3    H171576   4.717   1.970   1.003 -0.9756  1.3905  1.1502
16695TIP3    H271577   4.717   1.915   1.144  2.3287 -3.3992 -0.4760
16696TIP3   OH271578   4.994   3.810  14.815 -0.4538  0.0960 -0.1489
16696TIP3    H171579   5.073   3.755  14.810 -0.8444 -0.5197  0.2750
16696TIP3    H271580   4.986   3.832  14.907 -0.9001 -0.0293 -0.1575
16697TIP3   OH271581   1.402   0.110   5.808  0.3819  0.1602 -0.6151
16697TIP3    H171582   1.311   0.106   5.781  0.5530 -0.8774 -1.0627
16697TIP3    H271583   1.398   0.123   5.903 -0.2187  0.2277 -0.6454
16698TIP3   OH271584   3.855   5.048  16.694 -0.1611 -0.2915 -0.1426
16698TIP3    H171585   3.800   4.978  16.660 -0.2411 -0.3823  0.1689
16698TIP3    H271586   3.857   5.113  16.624  1.7087 -1.5539 -1.3518
16699TIP3   OH271587   3.809   4.906  14.900 -0.0907 -1.1625 -0.4439
16699TIP3    H171588   3.743   4.951  14.847  2.7085  2.1490 -1.4761
16699TIP3    H271589   3.801   4.944  14.987 -0.5002 -1.8788 -0.1619
16700TIP3   OH271590   3.851   3.341  17.151  0.2902 -0.1268 -0.7332
16700TIP3    H171591   3.876   3.419  17.201  0.1625 -0.0885 -0.7287
16700TIP3    H271592   3.884   3.356  17.063 -2.8337  1.5715 -1.7552
16701TIP3   OH271593   5.291   5.162   0.540 -0.0875  0.2330  0.0416
16701TIP3    H171594   5.366   5.112   0.508 -0.3708  0.9671 -1.9236
16701TIP3    H271595   5.241   5.100   0.593  1.0648 -0.7067  0.0803
16702TIP3   OH271596   0.777   0.437   6.566 -0.5210 -0.2856  0.0205
16702TIP3    H171597   0.762   0.528   6.541  0.5275  0.8561  3.0863
16702TIP3    H271598   0.712   0.420   6.635 -0.6806 -1.8843 -0.4735
16703TIP3   OH271599   5.397   5.031  10.813 -0.3049 -0.1867  0.3133
16703TIP3    H171600   5.394   5.061  10.722 -1.4261  1.7246  0.9437
16703TIP3    H271601   5.366   5.105  10.865  0.6310 -1.1084  2.3133
16704TIP3   OH271602   0.124   4.648  12.934 -0.6426 -0.9153 -0.3385
16704TIP3    H171603   0.130   4.735  12.895  0.4860 -1.4493 -1.4410
16704TIP3    H271604   0.150   4.661  13.025  1.4363 -0.3668 -0.9461
16705TIP3   OH271605   5.561   5.283  14.236 -0.0545 -0.1111  0.1349
16705TIP3    H171606   5.485   5.227  14.219  0.5663 -0.2785 -2.5304
16705TIP3    H271607   5.629   5.223  14.268 -0.6638 -0.1427  1.4168
16706TIP3   OH271608   0.382   3.093   0.752 -0.3457 -0.1098  0.3261
16706TIP3    H171609   0.299   3.048   0.770  0.2612 -0.8575  1.3797
16706TIP3    H271610   0.448   3.024   0.759  0.4142  0.5738 -0.0158
16707TIP3   OH271611   3.426   2.634   3.077  0.5060  0.6394 -0.1198
16707TIP3    H171612   3.470   2.682   3.147 -1.1655  1.4978  0.4058
16707TIP3    H271613   3.388   2.558   3.121  1.0130  0.1753 -0.4720
16708TIP3   OH271614   5.082   3.011  16.871 -0.1420 -0.2303 -0.2328
16708TIP3    H171615   5.028   3.027  16.948 -3.3253 -0.0874 -2.3500
16708TIP3    H271616   5.106   3.098  16.840  0.0032 -0.2516 -0.1819
16709TIP3   OH271617   4.982   5.966   0.416  0.1125  0.1883 -0.0407
16709TIP3    H171618   5.072   5.991   0.439 -0.3250  1.3501  0.4327
16709TIP3    H271619   4.985   5.954   0.321  0.6774  0.6390 -0.0891
16710TIP3   OH271620   2.245   2.046   5.768  0.0468 -0.2673  0.6328
16710TIP3    H171621   2.294   1.993   5.705 -0.4765  0.0392 -0.0440
16710TIP3    H271622   2.285   2.026   5.852  1.0013 -0.4048  0.1591
16711TIP3   OH271623   5.406   5.752  12.841  0.0713 -0.4438 -0.1898
16711TIP3    H171624   5.460   5.673  12.846  0.4837 -0.1483  0.0489
16711TIP3    H271625   5.400   5.771  12.747 -3.1818 -2.9039 -0.6654
16712TIP3   OH271626   4.135   4.355  10.593  0.3083 -0.0088 -0.4267
16712TIP3    H171627   4.230   4.357  10.593  0.3420 -0.5706 -1.5758
16712TIP3    H271628   4.113   4.263  10.611  0.0938 -0.6044 -3.1903
16713TIP3   OH271629   5.331   3.359   2.441  0.2248 -0.2399  0.6633
16713TIP3    H171630   5.399   3.332   2.502 -0.1117 -1.4747  0.5162
16713TIP3    H271631   5.282   3.427   2.488 -0.7427 -1.9354  2.2763
16714TIP3   OH271632   6.798   3.704   0.170  0.0589 -0.0933 -0.6620
16714TIP3    H171633   6.786   3.613   0.198 -0.9229 -0.4911 -2.2452
16714TIP3    H271634   6.790   3.701   0.075  0.3146  1.6178 -0.7652
16715TIP3   OH271635   2.228   3.607   2.989  0.4636 -0.1411 -0.1313
16715TIP3    H171636   2.256   3.696   2.972 -1.8871  0.6446 -0.2616
16715TIP3    H271637   2.263   3.556   2.916  0.2421  1.0247 -1.0751
16716TIP3   OH271638   2.020   3.661  13.974 -0.2960  0.8873 -0.2468
16716TIP3    H171639   1.985   3.633  14.059 -0.8623 -0.0419 -0.7731
16716TIP3    H271640   2.107   3.623  13.970 -0.4329  0.5762 -0.2636
16717TIP3   OH271641   4.272   2.657   5.493 -0.0280 -0.2793  0.1130
16717TIP3    H171642   4.193   2.674   5.544  0.8079 -1.7087  2.0061
16717TIP3    H271643   4.251   2.580   5.441 -0.0948 -0.2503  0.0968
16718TIP3   OH271644   6.055   2.472  15.102  0.1907 -0.3426 -0.3649
16718TIP3    H171645   6.013   2.418  15.035  0.9265 -0.2811 -0.8941
16718TIP3    H271646   6.041   2.424  15.184 -0.1486 -0.7546 -0.6622
16719TIP3   OH271647   1.106   4.614  12.374 -0.2271  1.1906  0.0279
16719TIP3    H171648   1.037   4.593  12.311  0.8807  1.2777 -1.2826
16719TIP3    H271649   1.092   4.554  12.447 -2.0093  1.6066  0.0531
16720TIP3   OH271650   1.724   4.388  16.951 -0.2591 -0.0085 -0.0424
16720TIP3    H171651   1.702   4.478  16.929 -0.2846  0.3010  1.1845
16720TIP3    H271652   1.646   4.355  16.995 -0.2635 -0.6569 -0.5159
16721TIP3   OH271653   2.867   0.621   5.875  1.0933  0.3622  0.7141
16721TIP3    H171654   2.816   0.644   5.798  1.4450  0.5001  0.5180
16721TIP3    H271655   2.958   0.625   5.845  1.3132  1.7826  1.4895
16722TIP3   OH271656   0.297   5.713   0.246  0.3631 -0.0877  0.0544
16722TIP3    H171657   0.302   5.759   0.330 -0.8431  3.0415 -1.4439
16722TIP3    H271658   0.204   5.696   0.234  0.2725  1.3261 -1.5068
16723TIP3   OH271659   6.737   2.839  14.241  0.1290  0.2284  0.0318
16723TIP3    H171660   6.747   2.751  14.204 -0.2866  0.1089  0.1913
16723TIP3    H271661   6.777   2.897  14.176 -1.4274  0.1074 -1.0981
16724TIP3   OH271662   3.607   4.199  14.622  0.4377 -0.3497 -0.0178
16724TIP3    H171663   3.694   4.182  14.588  1.5515 -2.8700  3.5116
16724TIP3    H271664   3.608   4.290  14.650  0.3620  0.9484 -3.7145
16725TIP3   OH271665   3.128   3.316   1.744 -0.6771  0.3579 -0.2631
16725TIP3    H171666   3.131   3.411   1.733  0.7400  0.3706 -0.0476
16725TIP3    H271667   3.220   3.289   1.742 -0.9812 -0.8799  0.7862
16726TIP3   OH271668   5.884   5.282  14.510 -0.4305 -0.0442 -0.0515
16726TIP3    H171669   5.927   5.306  14.428  1.4054 -0.9570  0.5873
16726TIP3    H271670   5.887   5.186  14.512 -0.5762 -0.0377  1.0275
16727TIP3   OH271671   0.782   5.428  17.002 -0.0194 -0.7587 -0.3489
16727TIP3    H171672   0.750   5.491  17.067  3.4368 -1.0893  1.9120
16727TIP3    H271673   0.729   5.350  17.017 -1.6371  0.2677 -0.4220
16728TIP3   OH271674   4.979   2.030   5.671  0.3700 -0.4337 -0.3264
16728TIP3    H171675   5.013   2.028   5.760  1.2997 -0.5840 -0.6707
16728TIP3    H271676   4.949   2.120   5.658 -0.0243 -0.4824  0.2236
16729TIP3   OH271677   4.383   4.667   2.487  0.2090  0.3537 -0.9307
16729TIP3    H171678   4.410   4.727   2.417 -4.1063  0.7489 -2.5237
16729TIP3    H271679   4.397   4.580   2.450  1.9966  0.3832 -0.4556
16730TIP3   OH271680   1.910   0.635   4.210  0.0313  0.1666  0.2890
16730TIP3    H171681   1.912   0.685   4.292 -0.5293  0.3155  0.2166
16730TIP3    H271682   2.000   0.602   4.200 -0.0578 -0.4388  1.3223
16731TIP3   OH271683   1.083   5.902   1.674  0.2925  0.1239  0.0187
16731TIP3    H171684   1.156   5.911   1.735 -0.8278 -0.0662  1.4486
16731TIP3    H271685   1.083   5.985   1.626 -0.6528  1.6626  2.4679
16732TIP3   OH271686   5.396   0.245   0.276  0.5074 -0.4120 -0.4637
16732TIP3    H171687   5.443   0.193   0.342  1.0580 -0.4620 -0.8881
16732TIP3    H271688   5.304   0.224   0.291  0.6019 -0.2455  0.4412
16733TIP3   OH271689   2.441   5.815   4.831  0.0706  0.6917  0.3502
16733TIP3    H171690   2.390   5.795   4.909 -0.7083  0.4934 -0.1983
16733TIP3    H271691   2.416   5.905   4.808  0.3722  0.7856  0.3796
16734TIP3   OH271692   2.262   5.002  12.143  0.6258 -0.7986  0.2398
16734TIP3    H171693   2.278   4.961  12.228 -0.6007  0.3105  1.0322
16734TIP3    H271694   2.198   5.071  12.160  1.6555  0.6223 -1.2813
16735TIP3   OH271695   0.950   4.341  13.830  0.3969 -0.1236 -0.5499
16735TIP3    H171696   0.973   4.408  13.765 -1.6977  0.5600 -0.6957
16735TIP3    H271697   0.910   4.391  13.901  1.6844 -0.9677  0.8020
16736TIP3   OH271698   1.959   3.381   2.272 -0.3245  0.4731 -0.2784
16736TIP3    H171699   1.935   3.436   2.346  0.3932 -0.3738  0.6207
16736TIP3    H271700   2.018   3.436   2.220 -0.1469  0.7855  0.2436
16737TIP3   OH271701   4.572   5.830  13.070  0.4645  0.1235  0.3912
16737TIP3    H171702   4.504   5.865  13.013 -0.5395  1.6812  2.3857
16737TIP3    H271703   4.641   5.896  13.067  0.0925  0.5865  1.4642
16738TIP3   OH271704   0.572   0.707  17.099  0.4186 -1.0349  0.0595
16738TIP3    H171705   0.544   0.721  17.009 -0.8066  0.8172  0.6694
16738TIP3    H271706   0.509   0.645  17.135 -1.0866  0.6467  0.4878
16739TIP3   OH271707   1.902   1.029   3.058  0.2390  0.4280 -0.3564
16739TIP3    H171708   1.906   1.124   3.054 -2.8977  0.6877  0.7318
16739TIP3    H271709   1.946   1.007   3.140 -1.3095  1.1977  0.7186
16740TIP3   OH271710   0.953   5.454  12.155 -0.0625  0.1306  0.0808
16740TIP3    H171711   1.015   5.401  12.205 -0.7556 -0.5211  0.2790
16740TIP3    H271712   0.918   5.393  12.090  1.5316  1.1992 -1.8786
16741TIP3   OH271713   1.079   4.263  14.214 -0.5296  0.6904  0.0072
16741TIP3    H171714   1.074   4.352  14.250  1.0465  0.4328  0.9710
16741TIP3    H271715   0.990   4.229  14.222 -1.0518  2.0007  0.0904
16742TIP3   OH271716   5.679   5.882   4.251 -1.0228  0.8154  0.3407
16742TIP3    H171717   5.696   5.791   4.273  1.3047  1.1580  0.2232
16742TIP3    H271718   5.626   5.914   4.324 -1.1467 -0.4127  0.8158
16743TIP3   OH271719   0.642   2.559  17.205 -0.1853 -0.3881 -0.3214
16743TIP3    H171720   0.632   2.564  17.300 -0.0491 -1.1462 -0.2603
16743TIP3    H271721   0.614   2.470  17.183  3.4782 -1.6378 -0.5213
16744TIP3   OH271722   2.773   2.653  13.900  0.3647  0.3856 -0.4913
16744TIP3    H171723   2.804   2.586  13.961  2.6540  0.5517 -1.3684
16744TIP3    H271724   2.693   2.617  13.863  1.4322 -1.8184 -0.7945
16745TIP3   OH271725   1.690   1.468  14.906  0.1850 -0.0885  0.1391
16745TIP3    H171726   1.671   1.375  14.898  0.5297 -0.2207  0.8425
16745TIP3    H271727   1.606   1.511  14.888 -0.1974 -0.5717  0.7202
16746TIP3   OH271728   2.603   2.123  16.120 -0.0214  0.7574 -0.1243
16746TIP3    H171729   2.526   2.093  16.070 -0.1324 -1.2477  1.1457
16746TIP3    H271730   2.646   2.042  16.149  1.4669  1.8535  0.8767
16747TIP3   OH271731   2.061   1.402  11.191  0.4031 -0.1354 -0.1867
16747TIP3    H171732   1.977   1.442  11.212  0.6099  0.6416 -0.7745
16747TIP3    H271733   2.126   1.460  11.231  0.7548  0.7615 -1.9503
16748TIP3   OH271734   3.531   2.267   0.859 -0.7196  0.0646 -1.1848
16748TIP3    H171735   3.492   2.211   0.926 -0.5044 -0.6878 -1.6778
16748TIP3    H271736   3.536   2.211   0.781  3.1496 -0.5557 -0.6688
16749TIP3   OH271737   2.363   0.461  12.642  0.0326  0.3402  0.1340
16749TIP3    H171738   2.326   0.536  12.597  1.0763  1.7946  1.6003
16749TIP3    H271739   2.414   0.498  12.714  2.4058 -1.6412 -0.3778
16750TIP3   OH271740   2.433   4.367   4.822 -0.3119 -0.3330  0.5512
16750TIP3    H171741   2.384   4.289   4.794 -2.3062  0.8728  0.4942
16750TIP3    H271742   2.398   4.387   4.909  0.4874  0.2583  0.7430
16751TIP3   OH271743   1.284   1.644  15.412  0.2865  0.1494 -0.5488
16751TIP3    H171744   1.378   1.631  15.402  0.3600  0.0134  0.2536
16751TIP3    H271745   1.274   1.739  15.424  0.2867  0.2039 -0.9818
16752TIP3   OH271746   3.278   3.137   5.379  0.0357  0.0801 -0.3216
16752TIP3    H171747   3.277   3.074   5.308  3.1466 -1.7990  1.0492
16752TIP3    H271748   3.247   3.088   5.455  0.1512  0.9531  0.3085
16753TIP3   OH271749   6.070   4.584  11.360 -0.3670  0.0994 -0.0103
16753TIP3    H171750   6.068   4.532  11.279 -0.7781  1.1548 -0.7060
16753TIP3    H271751   6.157   4.570  11.396  0.3412  0.7128 -1.3996
16754TIP3   OH271752   5.282   1.414   6.480  0.0788  0.1817  0.0734
16754TIP3    H171753   5.218   1.354   6.442 -0.2966  0.6158  0.0196
16754TIP3    H271754   5.231   1.470   6.538  0.5291  0.0279  0.6327
16755TIP3   OH271755   6.291   6.211   4.018 -0.4525 -0.8733  0.4614
16755TIP3    H171756   6.297   6.149   4.091  0.1530 -0.9212  0.3727
16755TIP3    H271757   6.199   6.240   4.019 -0.3821 -0.6452  1.4357
16756TIP3   OH271758   2.702   6.660  15.668  0.5571  0.5167  0.1244
16756TIP3    H171759   2.742   6.595  15.725  0.9295  0.4091 -0.2516
16756TIP3    H271760   2.609   6.641  15.672  0.6964 -0.2798 -0.2709
16757TIP3   OH271761   3.265   4.517  16.974  0.0910  0.1821 -0.1396
16757TIP3    H171762   3.175   4.515  17.009  0.5289 -0.7715  1.0438
16757TIP3    H271763   3.273   4.434  16.927  0.1928  0.5131 -0.7140
16758TIP3   OH271764   5.133   6.021  16.161  0.1654 -0.0939  0.0988
16758TIP3    H171765   5.122   6.038  16.068  1.4051 -0.8132 -0.1994
16758TIP3    H271766   5.142   6.107  16.201 -1.4854  0.2813 -0.2624
16759TIP3   OH271767   5.965   5.378  10.882  0.6189  0.2574  0.7447
16759TIP3    H171768   6.030   5.308  10.874 -0.9958 -1.1592 -1.2160
16759TIP3    H271769   6.013   5.452  10.919  3.1073 -0.9987  0.2255
16760TIP3   OH271770   0.351   2.920   2.531  0.6326  0.6654 -0.3781
16760TIP3    H171771   0.349   2.977   2.608  0.7413  2.4877 -1.6618
16760TIP3    H271772   0.386   2.837   2.564 -1.3434  0.6455  1.9631
16761TIP3   OH271773   2.449   1.523   0.780 -0.4274 -0.6475 -0.3048
16761TIP3    H171774   2.540   1.514   0.808 -0.7784 -1.4693  0.6137
16761TIP3    H271775   2.430   1.443   0.732 -1.2232 -1.3665  1.1544
16762TIP3   OH271776   6.071   4.860  17.205  0.3157  0.1685 -0.5226
16762TIP3    H171777   6.020   4.862  17.287  0.2927 -1.8969 -0.4122
16762TIP3    H271778   6.125   4.938  17.208 -2.0018  1.8814 -0.0995
16763TIP3   OH271779   1.876   2.940   4.560 -0.2889  0.2852 -0.4056
16763TIP3    H171780   1.945   2.892   4.606 -1.0908 -1.4208 -0.8896
16763TIP3    H271781   1.833   2.991   4.629  0.5940  0.3306  0.1358
16764TIP3   OH271782   0.529   1.337   2.979  0.2545 -0.7221 -0.3128
16764TIP3    H171783   0.490   1.409   2.930  1.1108  0.0934  0.1631
16764TIP3    H271784   0.497   1.349   3.068 -1.9251 -2.6558 -0.7517
16765TIP3   OH271785   4.983   3.995  13.883 -0.1559 -0.2567  0.1799
16765TIP3    H171786   4.978   4.088  13.905 -1.4746 -0.2423 -0.1293
16765TIP3    H271787   5.049   3.991  13.814 -0.0293  0.4364  0.2489
16766TIP3   OH271788   4.724   6.130   5.328 -0.1654 -0.6710  0.0398
16766TIP3    H171789   4.775   6.152   5.406 -1.1503 -0.9486  0.8029
16766TIP3    H271790   4.787   6.126   5.257  0.8877 -1.1387  0.9697
16767TIP3   OH271791   2.142   4.965   0.668  0.0307 -0.1688  0.6190
16767TIP3    H171792   2.105   4.877   0.670 -1.2638  0.3630  1.0651
16767TIP3    H271793   2.201   4.968   0.743  0.2535 -0.7104  0.4738
16768TIP3   OH271794   1.890   4.884  15.531  0.6403  0.2609 -0.6772
16768TIP3    H171795   1.970   4.935  15.523  0.3986  0.7124 -0.2869
16768TIP3    H271796   1.820   4.949  15.526  0.2753 -0.1691 -1.4381
16769TIP3   OH271797   0.532   3.803  15.060 -0.1379 -0.4456 -0.5114
16769TIP3    H171798   0.613   3.757  15.037 -0.4732 -1.6006  0.5520
16769TIP3    H271799   0.485   3.811  14.977  0.3907 -1.1124 -0.8861
16770TIP3   OH271800   3.927   4.453   6.344 -0.0279 -0.1344 -0.0431
16770TIP3    H171801   4.007   4.488   6.384  0.0790 -0.1791 -0.2192
16770TIP3    H271802   3.944   4.360   6.331 -0.1616 -0.1720  0.0494
16771TIP3   OH271803   0.252   3.750  13.347  0.0593  0.4147 -0.2752
16771TIP3    H171804   0.209   3.664  13.349  1.3242 -0.3119 -1.9732
16771TIP3    H271805   0.327   3.740  13.404  1.2418 -0.2594 -1.8693
16772TIP3   OH271806   6.597   4.334   4.024  0.9521 -0.1769 -0.3891
16772TIP3    H171807   6.556   4.354   4.108  2.2724 -0.3958  0.3368
16772TIP3    H271808   6.602   4.238   4.022  1.7480 -0.1424 -0.2959
16773TIP3   OH271809   1.700   0.254  11.381 -0.1088 -0.5275  0.6596
16773TIP3    H171810   1.755   0.327  11.352 -0.4108 -0.6762 -0.3423
16773TIP3    H271811   1.757   0.177  11.373  0.5245 -0.3134  2.6485
16774TIP3   OH271812   0.883   2.315  14.750  0.2720  0.7951 -0.2383
16774TIP3    H171813   0.936   2.290  14.826 -0.0730  0.2807 -0.1670
16774TIP3    H271814   0.800   2.271  14.763  0.3762  0.3034 -1.1677
16775TIP3   OH271815   2.406   2.098  13.512  0.0627 -0.0577  0.0289
16775TIP3    H171816   2.425   2.182  13.470  2.4781 -0.6416 -0.1836
16775TIP3    H271817   2.357   2.121  13.591  1.9576  1.7012  0.7756
16776TIP3   OH271818   2.218   0.928   6.533  0.0594  0.4067 -0.6671
16776TIP3    H171819   2.286   0.865   6.556  0.5636  1.2825  0.3386
16776TIP3    H271820   2.165   0.884   6.467 -0.6293 -1.7229  1.1907
16777TIP3   OH271821   1.631   0.542  12.602  0.6452  0.2696 -0.1564
16777TIP3    H171822   1.608   0.474  12.538  0.5472  1.4622 -1.4346
16777TIP3    H271823   1.597   0.509  12.685  0.7567 -1.3136 -0.7119
16778TIP3   OH271824   6.685   2.831   3.815 -0.0947  0.0563  0.0985
16778TIP3    H171825   6.622   2.785   3.760 -0.4433 -1.0260  1.3283
16778TIP3    H271826   6.638   2.849   3.896  0.0731  2.5619 -0.2824
16779TIP3   OH271827   1.150   4.573   0.561  0.2516  0.0591  0.2333
16779TIP3    H171828   1.228   4.620   0.590 -0.0906  0.7340  0.0627
16779TIP3    H271829   1.108   4.544   0.642 -0.1131  0.9913  0.3903
16780TIP3   OH271830   6.586   0.924  16.917 -0.1264 -0.1533 -0.3597
16780TIP3    H171831   6.627   0.991  16.863 -0.2539  0.8833  0.7759
16780TIP3    H271832   6.509   0.896  16.867  1.7024 -1.8898 -2.3702
16781TIP3   OH271833   2.944   5.003   5.219 -0.3012 -0.1147 -0.1645
16781TIP3    H171834   3.014   4.941   5.242 -0.7453 -0.4905  0.1913
16781TIP3    H271835   2.935   4.993   5.124 -0.1568 -0.3723 -0.1536
16782TIP3   OH271836   2.595   3.610  13.381 -0.2463  0.3822  0.3301
16782TIP3    H171837   2.566   3.701  13.368  1.4493  1.4579  3.1259
16782TIP3    H271838   2.682   3.607  13.342 -0.8462 -0.5085 -0.9943
16783TIP3   OH271839   6.669   2.019   4.972 -0.0407  0.4092  0.0968
16783TIP3    H171840   6.753   2.030   4.927  0.4238  0.0719  0.8665
16783TIP3    H271841   6.670   1.929   5.003 -0.7236  0.3846  0.0577
16784TIP3   OH271842   0.625   4.564   2.822 -0.1418 -0.5149  0.1117
16784TIP3    H171843   0.607   4.498   2.755  0.0568 -1.1644  0.6880
16784TIP3    H271844   0.650   4.514   2.899 -0.3054  0.2275  0.6587
16785TIP3   OH271845   4.129   3.015   1.365 -0.1561 -0.0313  0.3824
16785TIP3    H171846   4.128   3.081   1.435 -0.0032 -0.0175  0.3706
16785TIP3    H271847   4.207   3.036   1.313 -0.3804  0.0866  0.0873
16786TIP3   OH271848   5.203   6.449   2.735 -0.0335  0.8125  0.3003
16786TIP3    H171849   5.179   6.492   2.653 -3.4256 -1.1468  0.0852
16786TIP3    H271850   5.279   6.395   2.711 -1.4048 -0.3206 -1.8687
16787TIP3   OH271851   1.774   5.992   3.013 -0.2567  0.0943  0.1492
16787TIP3    H171852   1.745   6.056   3.078 -0.0035  1.7395 -1.2601
16787TIP3    H271853   1.695   5.969   2.965 -0.3959 -0.9010  0.8368
16788TIP3   OH271854   4.882   0.331   0.350  1.0604 -0.0724  0.0122
16788TIP3    H171855   4.798   0.299   0.385  0.6331 -0.9853 -1.7549
16788TIP3    H271856   4.940   0.330   0.426 -0.1369 -0.8191  0.9746
16789TIP3   OH271857   1.301   0.679   5.025  0.1485  0.7471 -0.5080
16789TIP3    H171858   1.353   0.599   5.014  1.2650  1.3860 -0.0114
16789TIP3    H271859   1.211   0.647   5.036  0.7126 -0.5205  0.8298
16790TIP3   OH271860   1.720   2.588   2.864 -0.3262  0.3334 -0.0407
16790TIP3    H171861   1.645   2.531   2.881  0.2081 -0.5781 -0.6475
16790TIP3    H271862   1.795   2.529   2.858  0.3947  1.1939  0.2243
16791TIP3   OH271863   2.013   5.823  13.762 -0.4146  0.5555  0.5967
16791TIP3    H171864   2.064   5.852  13.687  1.8017  0.5886  2.0489
16791TIP3    H271865   1.964   5.747  13.730  0.8885  0.2460 -0.7272
16792TIP3   OH271866   4.324   6.369   1.504 -0.2287  0.1097  0.0332
16792TIP3    H171867   4.353   6.306   1.570 -0.3409 -1.1151 -1.0317
16792TIP3    H271868   4.397   6.375   1.443 -0.7947 -0.1733 -0.6904
16793TIP3   OH271869   4.107   1.802  16.626 -0.0811  0.1944  0.0020
16793TIP3    H171870   4.163   1.731  16.596 -0.4744  0.5215 -1.6072
16793TIP3    H271871   4.080   1.776  16.715  0.5314 -1.1927 -0.1915
16794TIP3   OH271872   3.280   0.806  17.037 -0.2155 -0.1280 -0.1650
16794TIP3    H171873   3.284   0.774  16.946 -0.4590 -1.2808  0.2077
16794TIP3    H271874   3.262   0.899  17.029 -0.7324 -0.3062 -1.2952
16795TIP3   OH271875   4.891   5.129  10.743  0.1129 -0.3505  0.4871
16795TIP3    H171876   4.936   5.189  10.803  2.3644 -1.2799 -0.1386
16795TIP3    H271877   4.961   5.095  10.687 -1.4291 -1.8799 -0.6157
16796TIP3   OH271878   2.501   4.538   0.318  0.3652  0.3542  0.6911
16796TIP3    H171879   2.521   4.573   0.231  0.8547 -1.4948  0.0237
16796TIP3    H271880   2.435   4.598   0.353 -0.6606  0.5361 -1.3950
16797TIP3   OH271881   0.998   0.378  11.535  0.0254  0.2631  0.0161
16797TIP3    H171882   1.026   0.448  11.476 -0.6565 -0.1476 -0.8202
16797TIP3    H271883   0.911   0.354  11.504  0.5426 -1.4821 -0.1915
16798TIP3   OH271884   0.649   5.102  12.656 -0.0111  0.0592 -0.7888
16798TIP3    H171885   0.555   5.119  12.661 -0.6808 -2.6910 -2.0044
16798TIP3    H271886   0.673   5.123  12.565 -0.0600 -1.5699 -1.2149
16799TIP3   OH271887   1.946   1.330   2.776 -0.0559  0.0701  0.1616
16799TIP3    H171888   1.985   1.258   2.726 -0.8128 -0.9610  1.0153
16799TIP3    H271889   1.979   1.318   2.865  0.6077  1.3891  0.1165
16800TIP3   OH271890   0.567   5.288  12.843 -0.2041  0.6580  0.4912
16800TIP3    H171891   0.490   5.343  12.827  0.8986  1.7282 -1.5926
16800TIP3    H271892   0.625   5.343  12.897 -0.3647  0.3267  1.0110
16801TIP3   OH271893   2.312   3.447  11.057 -0.3396 -0.1878  1.4231
16801TIP3    H171894   2.271   3.516  11.109 -1.3889  0.1005  0.2616
16801TIP3    H271895   2.261   3.368  11.077 -0.0669 -0.3088  1.6428
16802TIP3   OH271896   6.763   4.634   5.198 -0.1083 -0.2870 -0.4191
16802TIP3    H171897   6.846   4.609   5.240  0.3046  1.1019 -0.3481
16802TIP3    H271898   6.699   4.633   5.270 -0.1165 -1.1834 -0.4367
16803TIP3   OH271899   5.732   4.260  12.691 -0.2393  0.2589 -0.3194
16803TIP3    H171900   5.718   4.170  12.720  0.5744  0.4538  0.7350
16803TIP3    H271901   5.727   4.312  12.770  2.8761  0.7145 -0.3140
16804TIP3   OH271902   0.759   0.027   1.147  0.0607 -0.1636 -0.6410
16804TIP3    H171903   0.800  -0.028   1.213 -0.9099 -0.1664 -0.0201
16804TIP3    H271904   0.774   0.117   1.178  2.4293  0.0302 -2.1117
16805TIP3   OH271905   0.897   6.226  17.006 -0.5305  0.3871  0.5667
16805TIP3    H171906   0.889   6.264  17.094  0.5612 -1.2982  1.4675
16805TIP3    H271907   0.972   6.167  17.013 -0.4138  0.2128 -1.5272
16806TIP3   OH271908   1.487   5.482   3.091  0.6361 -0.3056  0.2969
16806TIP3    H171909   1.545   5.477   3.167  1.0249  1.9027  0.2370
16806TIP3    H271910   1.418   5.542   3.119  2.9821  4.1090 -2.2246
16807TIP3   OH271911   6.409   2.901   6.116  0.1257 -0.3868 -0.1208
16807TIP3    H171912   6.436   2.954   6.191 -0.2670  0.9411 -0.9019
16807TIP3    H271913   6.471   2.924   6.047 -0.8448  0.0601 -0.8623
16808TIP3   OH271914   1.438   6.352  15.353 -0.6886 -0.0809  0.1184
16808TIP3    H171915   1.530   6.338  15.376 -0.5784 -1.0305 -0.7886
16808TIP3    H271916   1.407   6.418  15.415  0.8368  0.8998 -0.1119
16809TIP3   OH271917   5.161   4.741   1.281  0.5239  0.2218  0.3457
16809TIP3    H171918   5.236   4.702   1.235  0.0218  0.6026 -0.8520
16809TIP3    H271919   5.116   4.668   1.321  1.1773 -0.0874  0.5271
16810TIP3   OH271920   4.458   6.243   4.689  0.0143 -0.3543 -0.1770
16810TIP3    H171921   4.375   6.196   4.690  1.1396 -2.5115  2.0510
16810TIP3    H271922   4.436   6.331   4.722 -1.5370 -0.4327 -0.8941
16811TIP3   OH271923   0.569   0.681   5.244 -0.1751 -0.1768  0.0854
16811TIP3    H171924   0.501   0.640   5.190 -0.9679  1.5830 -0.3390
16811TIP3    H271925   0.521   0.715   5.319  0.3493  0.4314  0.1494
16812TIP3   OH271926   4.953   5.990   4.142 -0.2289 -0.2881  0.3775
16812TIP3    H171927   4.888   6.060   4.151 -1.4659 -1.6043  2.8188
16812TIP3    H271928   4.903   5.914   4.113  0.9400 -0.4408 -1.3777
16813TIP3   OH271929   3.715   4.846   4.898 -0.0278 -0.4105  0.7191
16813TIP3    H171930   3.657   4.845   4.974  0.8850  1.9565  1.5439
16813TIP3    H271931   3.803   4.836   4.935  0.2653 -2.1969 -0.3440
16814TIP3   OH271932   4.788   1.479  12.202  0.0699  0.4068 -0.0535
16814TIP3    H171933   4.789   1.462  12.296  0.9389  1.2388  0.1030
16814TIP3    H271934   4.870   1.526  12.185  3.0076 -4.6151 -2.1611
16815TIP3   OH271935   6.736   3.402  11.718 -0.0911  0.1940 -0.4660
16815TIP3    H171936   6.698   3.397  11.630 -0.8051  2.9609 -0.4062
16815TIP3    H271937   6.830   3.393  11.704 -0.3312 -1.5208 -1.2235
16816TIP3   OH271938   0.845   1.898  16.530 -0.3951  0.3117  0.3806
16816TIP3    H171939   0.917   1.878  16.589 -2.1688 -0.7944  2.2823
16816TIP3    H271940   0.868   1.983  16.492  1.7631  0.0898  1.0670
16817TIP3   OH271941   0.840   4.834  13.726 -0.0450  0.4980  0.7636
16817TIP3    H171942   0.802   4.747  13.735  2.1980 -0.9457 -2.0382
16817TIP3    H271943   0.775   4.883  13.676  0.2536 -0.9012 -1.1212
16818TIP3   OH271944   6.276   1.777  12.865  0.2437  0.1454  0.2921
16818TIP3    H171945   6.346   1.728  12.909 -0.6945 -0.3087  1.3280
16818TIP3    H271946   6.274   1.861  12.910  0.4026  0.3124 -0.0162
16819TIP3   OH271947   3.301   3.350  15.709  0.0477  0.3307  0.5038
16819TIP3    H171948   3.288   3.444  15.700  0.9080  0.6364  2.0592
16819TIP3    H271949   3.213   3.313  15.713 -0.2940  1.0772  0.0693
16820TIP3   OH271950   3.929   6.596   5.550  0.1487  0.0359 -0.5107
16820TIP3    H171951   4.011   6.614   5.505  0.2535  0.6064 -0.1019
16820TIP3    H271952   3.887   6.682   5.559 -1.2792 -0.4243 -2.1985
16821TIP3   OH271953   3.875   4.346   5.479 -0.0513  0.5884  0.0697
16821TIP3    H171954   3.860   4.441   5.480  0.5791  0.6862  0.2629
16821TIP3    H271955   3.791   4.309   5.451 -1.3356  1.0066  3.0351
16822TIP3   OH271956   0.500   3.228  14.684 -0.3551 -0.6375 -0.0559
16822TIP3    H171957   0.566   3.187  14.628 -0.0979  0.5674 -0.6790
16822TIP3    H271958   0.449   3.155  14.719 -0.6559 -1.4421 -2.0185
16823TIP3   OH271959   5.013   3.530  10.591 -0.2758  0.5685  0.0961
16823TIP3    H171960   5.037   3.448  10.549  0.4878  0.2152  1.1657
16823TIP3    H271961   4.955   3.574  10.529 -1.1114 -1.0069 -0.2688
16824TIP3   OH271962   2.369   1.179   5.011 -0.2347 -0.5231  0.2899
16824TIP3    H171963   2.326   1.228   5.081 -0.8356 -0.9734  0.2446
16824TIP3    H271964   2.457   1.162   5.044  1.1735  3.3429 -0.9529
16825TIP3   OH271965   3.265   2.497   1.016 -0.1467  0.8856 -0.4738
16825TIP3    H171966   3.292   2.511   0.925 -0.8993 -1.1519 -1.0808
16825TIP3    H271967   3.343   2.462   1.059 -0.5365 -0.9285 -1.1352
16826TIP3   OH271968   2.903   1.499   1.528  0.3096 -0.5570  0.4034
16826TIP3    H171969   2.907   1.409   1.561 -3.2823 -0.6627  0.9075
16826TIP3    H271970   2.866   1.492   1.441 -0.2618  0.4564  0.5495
16827TIP3   OH271971   4.568   6.250  16.059 -0.1739 -0.4385  0.0111
16827TIP3    H171972   4.602   6.210  16.139 -1.2795  2.7094  2.2186
16827TIP3    H271973   4.498   6.191  16.030  1.7297 -2.8267 -0.0926
16828TIP3   OH271974   3.411   1.412  13.232 -0.0432 -0.3457  0.4901
16828TIP3    H171975   3.405   1.472  13.307  0.8723 -0.4511  0.6515
16828TIP3    H271976   3.345   1.446  13.171  1.1646  1.4919  0.1214
16829TIP3   OH271977   1.180   4.666  13.424 -0.0268 -0.2680  0.4381
16829TIP3    H171978   1.202   4.748  13.381  0.0670 -1.3895 -1.8402
16829TIP3    H271979   1.265   4.626  13.444 -0.0686 -0.1104  0.9396
16830TIP3   OH271980   3.195   0.521  16.629  0.4914  0.2123 -0.2495
16830TIP3    H171981   3.102   0.497  16.629  0.5081  0.1507 -0.3083
16830TIP3    H271982   3.216   0.535  16.537  0.4733  0.4809 -0.2159
16831TIP3   OH271983   0.356   3.280  12.032 -0.1256  0.0278 -0.5880
16831TIP3    H171984   0.396   3.193  12.035  0.1425  0.1687  0.0287
16831TIP3    H271985   0.373   3.312  11.943 -1.8677 -1.3049 -1.4588
16832TIP3   OH271986   2.512   4.687   3.576 -0.7496 -0.0312  0.3031
16832TIP3    H171987   2.573   4.652   3.641 -1.5678  1.3426  1.8990
16832TIP3    H271988   2.556   4.673   3.492  1.1019 -0.4009  1.2733
16833TIP3   OH271989   0.240   0.911   2.576 -0.3844 -0.1008 -0.2589
16833TIP3    H171990   0.269   0.832   2.530  0.6818  0.6006 -0.8396
16833TIP3    H271991   0.202   0.879   2.658  2.5553 -1.0840  0.8334
16834TIP3   OH271992   1.086   5.855   1.248 -0.3742  0.6918 -0.4804
16834TIP3    H171993   1.054   5.851   1.158  1.5115  0.5491 -1.1845
16834TIP3    H271994   1.174   5.893   1.241  0.7690 -1.4831  1.0148
16835TIP3   OH271995   2.494   1.930  12.022  0.0091  0.2899 -0.1509
16835TIP3    H171996   2.542   1.877  11.959  0.2798 -2.3961  2.1145
16835TIP3    H271997   2.416   1.877  12.042 -0.3872  1.3644  1.2607
16836TIP3   OH271998   5.536   5.114  12.248 -0.2509 -0.5216  0.2075
16836TIP3    H171999   5.578   5.192  12.284 -0.7243 -0.5141  0.7596
16836TIP3    H272000   5.584   5.096  12.167  1.2381 -0.9078  1.1338
16837TIP3   OH272001   3.356   2.209   2.089 -0.2258  0.3151 -0.2407
16837TIP3    H172002   3.310   2.126   2.103  0.8148 -0.0266  1.5115
16837TIP3    H272003   3.303   2.274   2.136  1.2385 -0.1780  2.3052
16838TIP3   OH272004   5.329   0.956   2.958  0.8177 -0.6180 -0.2401
16838TIP3    H172005   5.377   0.927   2.880  0.7819 -0.4452 -0.3259
16838TIP3    H272006   5.398   0.985   3.018  0.7462  2.7910 -1.5892
16839TIP3   OH272007   4.562   0.905  12.035 -0.0338 -0.3349  0.0236
16839TIP3    H172008   4.647   0.888  12.076  0.9168 -0.2748 -1.8217
16839TIP3    H272009   4.562   0.999  12.016 -1.4069  0.0891  1.8206
16840TIP3   OH272010   5.884   5.058   0.842 -0.0078 -0.8024  0.3230
16840TIP3    H172011   5.921   5.138   0.878 -1.2157 -0.2093  0.3184
16840TIP3    H272012   5.936   4.987   0.881  0.2966 -0.0654  1.2968
16841TIP3   OH272013   5.322   2.309   4.175  0.3428 -0.5194 -0.2344
16841TIP3    H172014   5.391   2.251   4.208  0.7600 -0.2601 -0.6419
16841TIP3    H272015   5.338   2.392   4.219  1.3405  0.0414 -1.5918
16842TIP3   OH272016   2.090   5.974   0.952 -0.4611  0.3996 -0.0244
16842TIP3    H172017   2.016   6.014   0.998 -0.3989  1.6798 -0.9722
16842TIP3    H272018   2.056   5.955   0.865  0.5404  1.9212 -0.8088
16843TIP3   OH272019   0.956   4.331   3.410 -0.3610  0.1023 -0.3409
16843TIP3    H172020   0.909   4.394   3.355  0.3317  1.0472  0.1177
16843TIP3    H272021   1.028   4.301   3.355 -0.7429 -0.3802 -0.5915
16844TIP3   OH272022   4.111   1.688  12.303  0.2462  0.1872 -0.0010
16844TIP3    H172023   4.022   1.702  12.333  0.0160 -0.4493 -0.3894
16844TIP3    H272024   4.111   1.720  12.213  0.2784 -0.2977 -0.1718
16845TIP3   OH272025   1.904   5.848  13.039 -0.4880  0.4054 -0.3422
16845TIP3    H172026   1.824   5.802  13.065 -0.4439 -0.5827 -1.8476
16845TIP3    H272027   1.924   5.816  12.951  1.7452  0.3815  0.0932
16846TIP3   OH272028   2.572   0.158   2.478 -0.0796 -0.5552  0.5393
16846TIP3    H172029   2.664   0.133   2.476  0.1419  0.2760 -0.1342
16846TIP3    H272030   2.531   0.096   2.538  0.7182 -1.5864  0.0267
16847TIP3   OH272031   2.983   6.121   1.581 -0.0104  0.3487 -0.0649
16847TIP3    H172032   3.063   6.160   1.546 -0.0115 -0.6796 -1.2790
16847TIP3    H272033   2.920   6.193   1.584  0.5693  0.8717 -0.3629
16848TIP3   OH272034   2.768   3.759   6.455  0.0174  0.5629 -0.4779
16848TIP3    H172035   2.795   3.692   6.393  0.7996  0.2963  0.1426
16848TIP3    H272036   2.847   3.811   6.471 -0.7368  2.1057 -1.5012
16849TIP3   OH272037   1.649   5.887  11.230 -0.1065  0.1898  0.4394
16849TIP3    H172038   1.608   5.850  11.152 -0.1277 -0.4270  0.7401
16849TIP3    H272039   1.735   5.847  11.234 -0.7722 -1.2098  1.7382
16850TIP3   OH272040   0.631   2.469  12.529  0.0533  0.2540 -0.3157
16850TIP3    H172041   0.636   2.373  12.528  1.8252  0.3004 -1.1117
16850TIP3    H272042   0.712   2.496  12.572 -0.4485  1.4076 -0.0736
16851TIP3   OH272043   1.924   5.132   5.534 -0.1711  0.1158 -0.0777
16851TIP3    H172044   2.019   5.122   5.543 -0.3159 -1.5666 -0.1389
16851TIP3    H272045   1.895   5.162   5.621  0.4675  1.1998 -0.2274
16852TIP3   OH272046   3.402   1.669  16.526 -0.2826 -0.5345  0.1319
16852TIP3    H172047   3.337   1.718  16.577 -1.3252 -2.1630  0.4625
16852TIP3    H272048   3.419   1.724  16.450 -1.1130  0.5038  0.6604
16853TIP3   OH272049   3.973   3.299  11.886 -1.0687 -0.4618  0.4505
16853TIP3    H172050   3.936   3.237  11.824 -0.3965 -0.5492  0.1277
16853TIP3    H272051   3.960   3.385  11.846  1.2643 -0.6385 -0.8861
16854TIP3   OH272052   5.446   6.066   1.353 -0.0810 -0.0479 -0.0405
16854TIP3    H172053   5.523   6.114   1.323  0.0270  1.1611  1.9606
16854TIP3    H272054   5.394   6.052   1.274  1.6414  0.0920 -1.2641
16855TIP3   OH272055   0.609   1.865   3.801 -0.7756  0.3863  0.0953
16855TIP3    H172056   0.636   1.775   3.817 -1.4262  0.3342  0.9540
16855TIP3    H272057   0.515   1.866   3.820 -0.9541  1.0541 -0.7364
16856TIP3   OH272058   4.713   1.947  16.913 -0.2440 -0.4462 -0.2933
16856TIP3    H172059   4.721   1.928  16.819 -1.7192 -0.2913 -0.4857
16856TIP3    H272060   4.620   1.931  16.932 -0.0203 -0.1946  1.0805
16857TIP3   OH272061   6.636   5.565  11.736 -0.2540 -0.2222 -0.1232
16857TIP3    H172062   6.608   5.494  11.678  1.0576 -0.3168 -0.6735
16857TIP3    H272063   6.566   5.630  11.731 -1.1547 -1.1808 -0.1282
16858TIP3   OH272064   3.338   6.599   0.991 -0.0285  0.4922 -0.1480
16858TIP3    H172065   3.283   6.668   0.954 -0.0817  0.6601  0.2501
16858TIP3    H272066   3.341   6.532   0.922 -2.6497 -0.5898  0.6769
16859TIP3   OH272067   6.221   3.960  14.579  0.2812  0.0290  0.0801
16859TIP3    H172068   6.232   3.897  14.651 -0.1489  2.7263  2.7340
16859TIP3    H272069   6.127   3.974  14.575  0.1596 -1.0161 -2.0227
16860TIP3   OH272070   0.627   5.362   4.796 -0.2308 -0.6604  0.2268
16860TIP3    H172071   0.549   5.308   4.807 -0.7204 -0.0865 -0.3641
16860TIP3    H272072   0.595   5.452   4.800  0.2046 -0.4103 -1.1419
16861TIP3   OH272073   4.888   6.427   1.116 -0.1090  0.1088 -0.1993
16861TIP3    H172074   4.896   6.429   1.020 -0.2843  3.2607 -0.2631
16861TIP3    H272075   4.978   6.434   1.147  0.0682 -2.2429 -0.0412
16862TIP3   OH272076   1.312   4.679   1.260 -0.0354  0.3460 -0.4304
16862TIP3    H172077   1.362   4.736   1.318  0.3283 -0.1533 -0.2392
16862TIP3    H272078   1.351   4.693   1.174  0.2918  0.1244 -0.3206
16863TIP3   OH272079   1.465   2.999   4.234  0.5346 -0.2637  0.0085
16863TIP3    H172080   1.469   3.092   4.256 -1.4854  0.0823 -0.8741
16863TIP3    H272081   1.459   2.997   4.139 -2.2574 -1.0810  0.1021
16864TIP3   OH272082   3.224   1.843  15.717 -1.0202 -0.1281 -0.2884
16864TIP3    H172083   3.132   1.815  15.709 -1.1718  0.7033 -1.6254
16864TIP3    H272084   3.231   1.920  15.661  0.3528  0.2108  0.3089
16865TIP3   OH272085   1.286   3.943   2.107  0.0228 -0.0133  0.4271
16865TIP3    H172086   1.277   3.984   2.021  0.0904 -0.2207  0.3207
16865TIP3    H272087   1.196   3.920   2.132 -0.1606  1.2770  1.0227
16866TIP3   OH272088   3.664   5.238   2.412 -0.4452  0.3654 -0.2741
16866TIP3    H172089   3.571   5.216   2.420 -0.0498 -0.7889  2.2187
16866TIP3    H272090   3.673   5.319   2.463  0.1393 -0.3600  0.8041
16867TIP3   OH272091   5.178   6.574   1.986 -0.1613 -0.0262  0.1590
16867TIP3    H172092   5.132   6.650   2.020 -0.4162  0.5124 -1.3112
16867TIP3    H272093   5.270   6.601   1.984  0.3012 -1.0349  2.9147
16868TIP3   OH272094   5.202   5.077  11.156 -0.8882  0.2672 -0.2525
16868TIP3    H172095   5.243   4.995  11.127 -2.1881 -0.7240  0.5660
16868TIP3    H272096   5.232   5.143  11.094 -1.2115 -1.1821 -2.0391
16869TIP3   OH272097   5.642   6.095   5.121  0.2230 -0.2368  0.0865
16869TIP3    H172098   5.680   6.043   5.192 -0.1664 -1.6726 -0.6957
16869TIP3    H272099   5.686   6.062   5.042  0.1704  0.8531 -0.4072
16870TIP3   OH272100   0.614   4.287   0.658 -0.4815  0.2527  0.5814
16870TIP3    H172101   0.657   4.351   0.602 -0.4432  0.0449  0.3739
16870TIP3    H272102   0.553   4.339   0.711  0.3116  0.6069  1.1657
16871TIP3   OH272103   2.630   6.581  16.891 -0.5216 -0.1448 -0.1665
16871TIP3    H172104   2.552   6.636  16.894 -0.7125 -0.4400  2.3486
16871TIP3    H272105   2.689   6.619  16.956  1.3803 -0.0769 -1.8196
16872TIP3   OH272106   3.600   4.978   0.863  0.6835  0.4197  0.2107
16872TIP3    H172107   3.524   4.949   0.813  1.0567 -1.1947  0.5434
16872TIP3    H272108   3.633   4.899   0.905  1.7606  1.3366  1.1468
16873TIP3   OH272109   6.054   3.949  12.068  0.3755 -0.2397  0.4031
16873TIP3    H172110   5.969   3.927  12.106 -0.1689  0.2520 -0.5018
16873TIP3    H272111   6.059   3.898  11.987 -0.4859  2.0500 -1.2286
16874TIP3   OH272112   2.444   4.462  15.221 -0.2470 -0.1838  0.1951
16874TIP3    H172113   2.486   4.466  15.135  0.0276 -2.6058  0.1624
16874TIP3    H272114   2.516   4.443  15.282 -0.8055 -1.1371  0.5802
16875TIP3   OH272115   5.950   0.532   2.567 -0.4386 -0.1749  0.3135
16875TIP3    H172116   5.948   0.519   2.472 -1.5233 -0.3273  0.3405
16875TIP3    H272117   5.983   0.621   2.578 -0.0328 -0.2570 -0.1918
16876TIP3   OH272118   6.654   5.485  11.206  0.0395 -0.2281  0.0099
16876TIP3    H172119   6.673   5.547  11.135 -0.6088  2.0234  1.6855
16876TIP3    H272120   6.595   5.421  11.166  1.3700 -0.2779 -2.0131
16877TIP3   OH272121   0.145   6.532  15.659 -0.0344 -0.2741  0.9123
16877TIP3    H172122   0.130   6.604  15.721 -2.6308 -1.1198  1.3678
16877TIP3    H272123   0.112   6.566  15.576 -2.2460 -1.2226  1.3458
16878TIP3   OH272124   0.362   6.683  12.717  0.5549 -0.1960  0.1250
16878TIP3    H172125   0.344   6.591  12.698  1.7751 -0.5476  0.5814
16878TIP3    H272126   0.334   6.730  12.638 -0.5336 -0.8994  0.0883
16879TIP3   OH272127   4.992   0.015  10.590  0.5489  0.5073  0.4851
16879TIP3    H172128   5.040  -0.057  10.550 -1.6252  1.3951 -4.4426
16879TIP3    H272129   5.033   0.094  10.553 -0.9283  1.5045  0.9055
16880TIP3   OH272130   5.741   0.791  13.707 -0.1173  0.5781 -0.1878
16880TIP3    H172131   5.724   0.795  13.613 -1.4321 -4.6020 -0.4582
16880TIP3    H272132   5.835   0.803  13.715  0.1754  0.0647 -2.3241
16881TIP3   OH272133   3.448   2.587  15.125 -0.7722  0.2929  0.1588
16881TIP3    H172134   3.447   2.637  15.044 -0.8163 -1.0265 -0.6844
16881TIP3    H272135   3.409   2.503  15.102  1.5215 -1.0627  0.9084
16882TIP3   OH272136   2.219   1.646   0.828 -0.0960 -0.1356 -0.8763
16882TIP3    H172137   2.293   1.589   0.810 -0.3859 -1.1417  0.9136
16882TIP3    H272138   2.226   1.666   0.921 -1.1110  1.1659 -1.0447
16883TIP3   OH272139   2.727   0.936  12.724 -0.0623 -0.1687  0.3766
16883TIP3    H172140   2.790   1.006  12.706  0.3270 -0.3140  1.1356
16883TIP3    H272141   2.769   0.882  12.790 -0.6910 -0.6796  0.3705
16884TIP3   OH272142   5.531   0.532   5.431  0.1159 -0.1528 -0.2379
16884TIP3    H172143   5.571   0.525   5.518  0.1589 -0.6605 -0.2899
16884TIP3    H272144   5.575   0.463   5.380  0.3833  0.4071 -0.7780
16885TIP3   OH272145   0.382   0.543  17.188 -0.1180 -0.7528 -0.6452
16885TIP3    H172146   0.318   0.593  17.139  1.5481  0.8457 -1.3134
16885TIP3    H272147   0.341   0.528  17.273 -1.1132  0.8349 -0.8080
16886TIP3   OH272148   2.111   1.089  13.960 -0.2184 -0.5902 -0.3417
16886TIP3    H172149   2.176   1.026  13.929  1.4158  1.7221 -1.9679
16886TIP3    H272150   2.127   1.096  14.054  1.1933 -0.8160 -0.5481
16887TIP3   OH272151   6.663   1.730   4.161  0.0057  0.6692 -0.4775
16887TIP3    H172152   6.592   1.750   4.100 -1.1263  1.4485  1.0522
16887TIP3    H272153   6.718   1.668   4.113 -2.2206 -0.7531 -1.3591
16888TIP3   OH272154   6.295   0.207  12.267  0.2318  0.3686  0.9524
16888TIP3    H172155   6.348   0.178  12.340  3.5856  1.9872 -0.6211
16888TIP3    H272156   6.309   0.302  12.262 -0.2880  0.4062 -1.4295
16889TIP3   OH272157   5.060   2.623  11.718  0.6823 -0.0998  0.0221
16889TIP3    H172158   5.113   2.672  11.781  1.9369 -0.0893 -0.9816
16889TIP3    H272159   5.057   2.534  11.753  1.0641 -0.0096  0.2872
16890TIP3   OH272160   2.541   5.510  15.073  0.0155  0.1774  0.4360
16890TIP3    H172161   2.472   5.572  15.054 -0.2691  0.3598  1.9575
16890TIP3    H272162   2.604   5.521  15.002 -0.8880  0.9257 -0.2606
16891TIP3   OH272163   3.461   5.042   4.545 -0.5879  0.0581  0.0614
16891TIP3    H172164   3.531   5.081   4.598 -2.4307  1.1229  1.8241
16891TIP3    H272165   3.477   5.075   4.456  0.8505  0.6685  0.5172
16892TIP3   OH272166   6.202   1.846   4.300  0.6202  0.1702 -0.2435
16892TIP3    H172167   6.142   1.865   4.372  0.0787 -0.3309 -0.5503
16892TIP3    H272168   6.285   1.823   4.343  0.2892 -0.1767  0.2246
16893TIP3   OH272169   5.915   6.028  13.214 -0.0537  0.4515  0.4447
16893TIP3    H172170   5.902   5.959  13.148 -0.7770  0.8125  0.2005
16893TIP3    H272171   5.941   6.104  13.163 -1.5922  1.0163  0.4352
16894TIP3   OH272172   2.162   6.032  12.950 -0.5172 -0.0672  0.3423
16894TIP3    H172173   2.225   6.091  12.909 -1.1052  1.2282  1.2178
16894TIP3    H272174   2.135   6.078  13.030 -2.0358 -0.9069  0.3503
16895TIP3   OH272175   0.205   3.207  14.879 -0.3210  0.4251  0.1736
16895TIP3    H172176   0.209   3.225  14.785 -2.5089 -0.3131 -0.1137
16895TIP3    H272177   0.150   3.277  14.915 -1.5608 -0.6747  0.4747
16896TIP3   OH272178   2.302   1.793   0.422 -0.2522  0.0733  0.9819
16896TIP3    H172179   2.253   1.872   0.441 -1.3684 -0.7675  1.7333
16896TIP3    H272180   2.383   1.803   0.472  0.4514  1.5208 -0.3631
16897TIP3   OH272181   4.934   2.694   0.852  0.2767 -0.2135 -0.4675
16897TIP3    H172182   5.002   2.754   0.821 -0.3212  1.1921  0.8479
16897TIP3    H272183   4.932   2.705   0.947 -0.9132 -1.1897 -0.3432
16898TIP3   OH272184   2.553   2.357   2.344 -0.2945 -0.5457 -0.0464
16898TIP3    H172185   2.568   2.284   2.284  2.0761 -0.4601  0.3462
16898TIP3    H272186   2.638   2.399   2.352 -1.7174  2.7605 -0.8157
16899TIP3   OH272187   0.766   4.154   4.100 -0.7640  0.0755  0.1143
16899TIP3    H172188   0.841   4.141   4.042  0.3727 -0.9019  1.7273
16899TIP3    H272189   0.782   4.238   4.142 -1.2020  0.4306 -0.4189
16900TIP3   OH272190   1.279   0.908   4.851  0.3909 -0.1798 -0.2414
16900TIP3    H172191   1.252   0.840   4.913  1.5659 -1.5943 -1.2268
16900TIP3    H272192   1.366   0.934   4.880 -0.4838  1.8476  0.8360
16901TIP3   OH272193   4.066   2.849  14.679 -0.1502 -0.2319 -0.9153
16901TIP3    H172194   4.098   2.806  14.600 -0.8724  0.5764 -1.6775
16901TIP3    H272195   4.141   2.900  14.710  0.5398 -1.5720 -0.3106
16902TIP3   OH272196   4.813   6.492   4.631  0.0891  0.3115  0.2949
16902TIP3    H172197   4.753   6.466   4.561  0.2889  0.6820 -0.0201
16902TIP3    H272198   4.757   6.525   4.701 -0.1176 -0.1577  0.3519
16903TIP3   OH272199   5.637   6.352  14.471  0.2008  0.2956  0.2915
16903TIP3    H172200   5.620   6.321  14.382  0.7715 -2.9364  1.2109
16903TIP3    H272201   5.726   6.387  14.469 -0.0962  1.0366 -0.5507
16904TIP3   OH272202   1.042   0.353  14.656 -0.8313 -0.2699  0.2326
16904TIP3    H172203   1.010   0.370  14.744 -1.4723  0.7865 -0.1910
16904TIP3    H272204   1.009   0.266  14.635 -0.8346 -0.4524  0.9550
16905TIP3   OH272205   1.295   6.386   5.101  0.1809 -0.2493  0.0943
16905TIP3    H172206   1.236   6.447   5.056 -0.7056 -1.6091 -0.6700
16905TIP3    H272207   1.297   6.309   5.044  2.6942 -0.2759  0.1438
16906TIP3   OH272208   3.747   0.740   0.378  0.4775 -0.3674 -0.1452
16906TIP3    H172209   3.748   0.706   0.467 -1.4509 -1.5248 -0.5039
16906TIP3    H272210   3.831   0.785   0.368 -0.0020  1.4895  2.8668
16907TIP3   OH272211   0.830   1.576  16.565  0.6604 -0.4797 -0.6430
16907TIP3    H172212   0.886   1.525  16.508  1.5834  0.2781 -0.4399
16907TIP3    H272213   0.849   1.667  16.544  0.6931 -0.1860  0.5401
16908TIP3   OH272214   0.913   2.276  14.015 -0.5973 -0.3480 -0.4095
16908TIP3    H172215   0.924   2.242  14.104  1.8269  2.9639  0.7715
16908TIP3    H272216   0.825   2.314  14.015 -0.6581 -0.4439  0.5888
16909TIP3   OH272217   6.723   2.592   0.576  0.0072 -0.3517  0.5171
16909TIP3    H172218   6.629   2.603   0.590 -0.0914 -1.6901  1.0880
16909TIP3    H272219   6.732   2.579   0.481 -0.3191  0.2310  0.4015
16910TIP3   OH272220   3.855   3.580   4.062  0.0486 -0.1011 -0.1032
16910TIP3    H172221   3.800   3.631   4.002  1.1830 -0.2415 -1.2891
16910TIP3    H272222   3.803   3.501   4.081 -0.8800  0.5596  0.1876
16911TIP3   OH272223   4.475   3.116   3.898 -0.0062  0.5457  0.0814
16911TIP3    H172224   4.544   3.168   3.939 -1.2132  1.5059  0.9927
16911TIP3    H272225   4.429   3.076   3.972 -1.5725  1.4492 -0.3642
16912TIP3   OH272226   3.138   4.411  15.138 -0.3385 -0.1853  0.3551
16912TIP3    H172227   3.193   4.479  15.100  0.1844 -0.3596  0.7882
16912TIP3    H272228   3.113   4.445  15.224 -1.5966  0.2501 -0.1550
16913TIP3   OH272229   6.671   5.541  13.216 -0.0381  0.4814  0.2025
16913TIP3    H172230   6.637   5.536  13.126  0.1910  2.2841 -0.0182
16913TIP3    H272231   6.598   5.577  13.267  0.9020  2.8077  0.0354
16914TIP3   OH272232   1.020   3.737  14.083  0.2168 -0.3783  0.0516
16914TIP3    H172233   0.981   3.752  13.997  1.0237  1.1253 -0.0765
16914TIP3    H272234   1.052   3.646  14.080 -0.1064 -0.4576 -1.0903
16915TIP3   OH272235   1.423   0.442   6.009 -0.4247 -0.7701  0.1043
16915TIP3    H172236   1.328   0.442   6.022 -0.1019 -2.0651  3.1963
16915TIP3    H272237   1.459   0.403   6.089  2.6986 -1.0381 -1.2734
16916TIP3   OH272238   3.966   4.168  11.741  0.7050  0.2031  0.1635
16916TIP3    H172239   3.884   4.156  11.692  0.5292  0.6465  0.3416
16916TIP3    H272240   3.968   4.095  11.802  0.4184  0.2121  0.1851
16917TIP3   OH272241   5.535   4.328   4.615  0.4410 -0.8032 -0.1878
16917TIP3    H172242   5.620   4.371   4.623 -0.4862  0.8950  1.0364
16917TIP3    H272243   5.476   4.396   4.583 -0.7383 -1.6001  0.2127
16918TIP3   OH272244   4.184   5.801  13.391 -0.4684  0.3849 -0.0194
16918TIP3    H172245   4.184   5.708  13.366 -0.6868  0.3902 -0.0460
16918TIP3    H272246   4.275   5.828  13.382 -0.1007 -0.2279  1.5128
16919TIP3   OH272247   6.368   6.423  11.265 -0.1225 -0.1159  0.0464
16919TIP3    H172248   6.358   6.410  11.359 -0.6113 -2.1405 -0.2308
16919TIP3    H272249   6.319   6.503  11.246 -1.2536 -0.4716  1.3146
16920TIP3   OH272250   2.160   2.969   1.719 -0.0801  0.6711 -0.6333
16920TIP3    H172251   2.080   2.990   1.767 -0.6360 -0.8890 -0.8287
16920TIP3    H272252   2.129   2.931   1.637  0.8159 -1.8268  0.1108
16921TIP3   OH272253   3.745   2.135  11.429 -0.0017  0.0061 -0.0633
16921TIP3    H172254   3.672   2.117  11.371  0.9478 -0.1793 -1.2298
16921TIP3    H272255   3.776   2.222  11.403 -0.2923  0.4415  0.9676
16922TIP3   OH272256   4.920   5.477  11.479  0.0820 -0.3151  0.1714
16922TIP3    H172257   4.968   5.550  11.440 -1.4426  0.1402 -0.9424
16922TIP3    H272258   4.907   5.504  11.570 -0.8598  1.0822 -0.3298
16923TIP3   OH272259   2.679   4.843   2.222 -0.0132 -0.1941  0.0229
16923TIP3    H172260   2.631   4.865   2.302  1.2364  1.9694  0.2818
16923TIP3    H272261   2.715   4.927   2.193  2.1724 -1.4092 -1.0522
16924TIP3   OH272262   5.014   3.567  11.845  0.1180  0.2175  0.3998
16924TIP3    H172263   5.057   3.505  11.786  0.1105 -0.9340  1.5629
16924TIP3    H272264   4.963   3.625  11.787  0.8616 -0.2725 -0.7690
16925TIP3   OH272265   4.912   5.288   1.278 -0.4803  0.2174  0.7442
16925TIP3    H172266   4.873   5.311   1.363 -1.1689 -2.3894  1.1961
16925TIP3    H272267   4.843   5.244   1.230  0.5274 -0.2126 -0.3652
16926TIP3   OH272268   0.091   5.813  16.074  0.2010 -0.1196 -0.8021
16926TIP3    H172269   0.029   5.885  16.071  0.2365 -0.0954 -0.9586
16926TIP3    H272270   0.166   5.847  16.123  1.4328  0.8985 -3.2357
16927TIP3   OH272271   4.695   2.495  15.849  0.3841 -0.2155 -0.2491
16927TIP3    H172272   4.787   2.518  15.838  0.0344  1.0208 -0.8240
16927TIP3    H272273   4.649   2.578  15.841 -0.6176 -0.4013  2.5720
16928TIP3   OH272274   0.213   5.782   1.545 -0.6319 -1.1237  0.3779
16928TIP3    H172275   0.282   5.779   1.479 -0.5120  1.1982  0.3018
16928TIP3    H272276   0.255   5.755   1.626  0.7037  1.1051  0.5200
16929TIP3   OH272277   0.607   2.310   1.284  0.1811  0.1897 -0.0169
16929TIP3    H172278   0.648   2.380   1.234 -1.9670  1.1978 -0.4440
16929TIP3    H272279   0.627   2.330   1.376 -1.1763  1.9284 -0.0611
16930TIP3   OH272280   4.803   5.342  14.855 -0.0069  0.2781  0.0183
16930TIP3    H172281   4.751   5.261  14.851  0.4904 -0.0210 -0.4552
16930TIP3    H272282   4.754   5.398  14.914  0.4802 -0.9951  1.7252
16931TIP3   OH272283   2.619   5.250   2.343 -0.5878  0.6846 -0.1955
16931TIP3    H172284   2.533   5.237   2.302 -1.0387 -1.5963  1.2933
16931TIP3    H272285   2.666   5.306   2.282 -2.6287  0.8282 -1.7652
16932TIP3   OH272286   6.702   0.053   5.794 -0.3144 -0.4526 -0.3248
16932TIP3    H172287   6.767   0.023   5.857  0.5043  1.8549  0.0556
16932TIP3    H272288   6.743   0.043   5.709 -0.2500 -0.8112 -0.2528
16933TIP3   OH272289   4.117   0.326   0.111 -0.0340  0.6732  0.2326
16933TIP3    H172290   4.050   0.301   0.175 -0.6756  1.6810 -0.0132
16933TIP3    H272291   4.077   0.398   0.063  0.4599 -0.0373 -1.2800
16934TIP3   OH272292   4.110   4.126  12.826  0.4644  0.1599  0.2004
16934TIP3    H172293   4.160   4.157  12.751  0.8000  2.2301  1.2145
16934TIP3    H272294   4.040   4.191  12.836  0.0328 -0.4512  1.2777
16935TIP3   OH272295   4.144   6.647  10.960  0.2989  0.3143 -0.4533
16935TIP3    H172296   4.115   6.631  11.050  0.8444 -0.9080 -0.4854
16935TIP3    H272297   4.070   6.694  10.920 -0.0553  0.6496  0.5422
16936TIP3   OH272298   5.112   1.004   5.274 -0.0975 -0.4803 -0.5046
16936TIP3    H172299   5.025   1.045   5.276  0.1058  0.0690 -1.9502
16936TIP3    H272300   5.113   0.954   5.192  0.6171 -1.2704 -0.0373
16937TIP3   OH272301   0.193   4.705   4.472  0.1128  0.1124  0.3553
16937TIP3    H172302   0.252   4.648   4.422 -1.4279 -0.6779 -0.6580
16937TIP3    H272303   0.232   4.792   4.466  1.7552 -0.5503  0.7052
16938TIP3   OH272304   3.153   3.285   0.983 -0.5216  0.7924  0.9387
16938TIP3    H172305   3.163   3.288   1.078  1.5442  2.1378  0.7495
16938TIP3    H272306   3.122   3.373   0.960  1.1835  1.2647  0.2425
16939TIP3   OH272307   5.241   4.830   2.878  0.7147  0.2356  0.0090
16939TIP3    H172308   5.221   4.809   2.787  3.2499 -0.1272 -0.5363
16939TIP3    H272309   5.285   4.915   2.874 -2.0836  1.9369  1.3429
16940TIP3   OH272310   1.105   0.318  15.514 -0.0443  0.3032 -0.5908
16940TIP3    H172311   1.012   0.302  15.500  0.1212  0.0801 -1.4828
16940TIP3    H272312   1.108   0.396  15.571 -0.7635  0.7889 -1.2105
16941TIP3   OH272313   3.469   0.297  12.049 -0.2099  0.1271 -0.2808
16941TIP3    H172314   3.394   0.355  12.043  1.9404  2.9861 -2.3600
16941TIP3    H272315   3.505   0.312  12.137  0.3594  2.1632 -0.8085
16942TIP3   OH272316   0.042   1.673  11.337 -0.0422  0.0760 -0.5898
16942TIP3    H172317  -0.039   1.724  11.342 -0.0315  0.0232  0.3653
16942TIP3    H272318   0.037   1.614  11.412  1.7186  1.3358  0.5843
16943TIP3   OH272319   2.928   1.548   4.235  0.1174  0.6759  0.6226
16943TIP3    H172320   2.900   1.607   4.165  1.0169  0.0429 -0.3015
16943TIP3    H272321   2.865   1.476   4.234  1.3305 -0.4395 -1.0420
16944TIP3   OH272322   2.832   2.088   2.550  0.0127 -0.6640 -0.5018
16944TIP3    H172323   2.795   2.047   2.472 -0.0348 -1.2289 -0.1870
16944TIP3    H272324   2.841   2.016   2.613 -1.2563  0.0412  0.5114
16945TIP3   OH272325   6.377   5.616   5.495 -0.1345 -0.4083  0.5437
16945TIP3    H172326   6.419   5.686   5.544  2.2456 -0.2095 -1.5781
16945TIP3    H272327   6.323   5.661   5.430  1.3380 -0.4324 -0.7719
16946TIP3   OH272328   0.923   1.623  14.073 -0.0114 -0.4452 -0.5522
16946TIP3    H172329   0.835   1.632  14.108  0.4888  0.7381  0.4892
16946TIP3    H272330   0.980   1.650  14.145  1.1002  1.2072 -1.9800
16947TIP3   OH272331   3.821   6.776  15.026  0.3694 -0.4484 -0.0834
16947TIP3    H172332   3.897   6.825  14.996  0.0701  0.0404 -0.0420
16947TIP3    H272333   3.748   6.837  15.019  0.2699 -0.3607  1.5123
16948TIP3   OH272334   3.719   0.807   5.803  0.5607  0.9619  0.3787
16948TIP3    H172335   3.641   0.858   5.826  1.0577  1.2680  1.4774
16948TIP3    H272336   3.736   0.827   5.711 -0.2546  1.4245  0.3234
16949TIP3   OH272337   1.341   5.911   4.574 -0.4180 -0.2587  0.3795
16949TIP3    H172338   1.254   5.934   4.608 -0.5360 -2.1365  1.4650
16949TIP3    H272339   1.323   5.852   4.500 -0.0677 -0.3587  0.3759
16950TIP3   OH272340   2.311   4.831  16.758 -1.0070  0.6127 -0.3612
16950TIP3    H172341   2.329   4.923  16.782  0.9458  0.8761 -2.4940
16950TIP3    H272342   2.361   4.780  16.821 -0.3950  1.1000 -0.4415
16951TIP3   OH272343   5.940   6.819   5.253  0.2896  0.7237  0.4246
16951TIP3    H172344   5.943   6.874   5.175  0.1470  1.0269  0.6323
16951TIP3    H272345   5.849   6.790   5.259  0.0939  1.4220  0.9744
16952TIP3   OH272346   2.737   4.994   3.822 -0.2233 -0.0210 -0.1098
16952TIP3    H172347   2.644   5.014   3.829 -0.3123 -0.0201 -1.1273
16952TIP3    H272348   2.755   4.997   3.728  0.4571 -1.5681 -0.0658
16953TIP3   OH272349   3.566   1.259  12.220 -0.1403 -0.4355 -0.6905
16953TIP3    H172350   3.608   1.218  12.145  0.2726 -0.0629 -0.6644
16953TIP3    H272351   3.516   1.332  12.183 -0.1714 -0.4291 -0.6361
16954TIP3   OH272352   4.958   3.652   1.280 -0.1137  0.1763  0.3845
16954TIP3    H172353   5.020   3.724   1.267 -0.1190  0.2178  0.5899
16954TIP3    H272354   4.939   3.621   1.191  1.0477 -0.5681  0.3732
16955TIP3   OH272355   5.094   6.517   1.419 -0.3362  0.0119 -0.7665
16955TIP3    H172356   5.069   6.572   1.493  2.9310  0.1607  0.3774
16955TIP3    H272357   5.073   6.570   1.342 -0.1363  1.5593  0.2033
16956TIP3   OH272358   2.927   1.761  12.761  0.0843 -0.0788  0.3122
16956TIP3    H172359   2.952   1.744  12.852  0.2803  1.2991  0.5418
16956TIP3    H272360   3.010   1.775  12.715 -0.0565  0.3183  0.1697
16957TIP3   OH272361   2.404   2.308  14.111  0.0653 -0.1184  0.2121
16957TIP3    H172362   2.325   2.343  14.070 -0.8906 -0.6348  1.5168
16957TIP3    H272363   2.458   2.276  14.039 -0.0781  1.8917 -0.8397
16958TIP3   OH272364   6.684   3.382  13.759  0.6120  0.2428  0.0710
16958TIP3    H172365   6.591   3.360  13.754  1.0927 -2.1568  0.4635
16958TIP3    H272366   6.717   3.332  13.833  2.2285  1.0817 -0.0311
16959TIP3   OH272367   4.676   3.722  15.953 -0.4774  0.1286  0.3803
16959TIP3    H172368   4.744   3.655  15.938 -0.7791  0.5552 -4.2804
16959TIP3    H272369   4.722   3.793  15.999  1.3611 -0.8942  0.2180
16960TIP3   OH272370   5.922   1.964  14.299 -0.7731  0.3957  0.1032
16960TIP3    H172371   5.916   1.888  14.242 -0.1628  2.1005 -2.4267
16960TIP3    H272372   5.836   2.006  14.292 -0.2580  1.3533 -0.7428
16961TIP3   OH272373   4.108   0.048  15.276  0.1595 -0.1243  0.1255
16961TIP3    H172374   4.095  -0.046  15.279 -1.7171  0.1256  0.7733
16961TIP3    H272375   4.112   0.069  15.182 -0.8024 -0.6907 -0.0528
16962TIP3   OH272376   2.457   0.098  14.572 -0.2410  0.2547 -0.4074
16962TIP3    H172377   2.526   0.039  14.542  0.6949  1.7966 -1.4117
16962TIP3    H272378   2.492   0.138  14.651 -0.0596  0.8988 -0.8120
16963TIP3   OH272379   2.272   0.420  15.179 -0.1934  0.4558 -0.3783
16963TIP3    H172380   2.226   0.356  15.124 -2.1650 -0.4562  2.1300
16963TIP3    H272381   2.348   0.372  15.212  0.3103  0.6117 -1.2672
16964TIP3   OH272382   5.234   0.953  11.280  0.2437  0.2413 -0.1466
16964TIP3    H172383   5.141   0.971  11.275  0.1911  0.2475  0.7297
16964TIP3    H272384   5.266   1.009  11.351  0.8921  0.1570 -0.3637
16965TIP3   OH272385   0.135   2.500   2.559  0.0912  0.0845  0.2299
16965TIP3    H172386   0.225   2.481   2.584 -0.1948  0.6163  1.8345
16965TIP3    H272387   0.111   2.576   2.612 -0.8096  0.9348 -1.3255
16966TIP3   OH272388   1.073   0.776  16.515  0.2275 -0.0223  0.6109
16966TIP3    H172389   1.010   0.706  16.536  1.3304 -1.4435 -0.6837
16966TIP3    H272390   1.136   0.773  16.587  0.2680 -0.3611  0.5642
16967TIP3   OH272391   2.994   5.087   2.067  0.0498 -0.6513 -0.0236
16967TIP3    H172392   2.989   5.020   1.999 -2.8274  0.5585 -1.1292
16967TIP3    H272393   3.010   5.169   2.021 -0.6090  0.0150  0.8908
16968TIP3   OH272394   3.094   5.683   2.950 -0.1046  0.4551  0.0121
16968TIP3    H172395   3.025   5.748   2.966  0.2387  0.3846  2.0356
16968TIP3    H272396   3.160   5.702   3.016  0.5024 -1.2913 -0.0404
16969TIP3   OH272397   3.873   4.143   4.910 -0.2674 -0.2012 -0.6675
16969TIP3    H172398   3.838   4.169   4.824 -1.5706 -0.0818 -0.1336
16969TIP3    H272399   3.807   4.084   4.946 -0.9212  1.5291  1.2037
16970TIP3   OH272400   1.214   4.122   2.600  0.2308 -0.2668  0.2316
16970TIP3    H172401   1.181   4.202   2.560 -1.3999 -1.1974 -0.4227
16970TIP3    H272402   1.289   4.149   2.652 -0.4693  1.7218  0.2758
16971TIP3   OH272403   1.961   5.552   6.745 -0.7747  0.2642 -0.3492
16971TIP3    H172404   1.967   5.563   6.840 -0.4949  0.8893 -0.4292
16971TIP3    H272405   2.038   5.500   6.721 -0.4531  0.7191 -0.3155
16972TIP3   OH272406   5.778   3.839   0.804 -0.2750  0.6621  0.4263
16972TIP3    H172407   5.728   3.918   0.784 -0.9593 -0.0802 -0.9616
16972TIP3    H272408   5.841   3.867   0.870 -2.6056  1.6210  2.4392
16973TIP3   OH272409   1.585   5.030  12.196 -0.2243 -0.5197 -0.0251
16973TIP3    H172410   1.491   5.019  12.186 -0.3504 -0.6724  1.2276
16973TIP3    H272411   1.622   4.999  12.113 -1.3533  1.0647 -1.1733
16974TIP3   OH272412   5.541   5.285  16.281 -0.6164 -0.6372  0.3631
16974TIP3    H172413   5.618   5.317  16.233 -1.8135  0.0495 -1.1958
16974TIP3    H272414   5.572   5.207  16.326  0.6379 -1.2944 -1.4981
16975TIP3   OH272415   1.838   5.931  13.936  0.2605  0.6365  0.4361
16975TIP3    H172416   1.772   5.970  13.879  0.2118  0.3519  0.2970
16975TIP3    H272417   1.910   5.907  13.877 -0.8537 -2.0802  0.0580
16976TIP3   OH272418   5.085   6.619  12.668 -0.2114  0.1340 -0.1994
16976TIP3    H172419   5.062   6.675  12.741  0.2091 -1.2975  1.0845
16976TIP3    H272420   5.098   6.532  12.707  0.4216 -0.5912 -1.9064
16977TIP3   OH272421   2.119   4.950  13.710 -0.3624 -0.5817  0.0883
16977TIP3    H172422   2.104   4.880  13.647  1.1030 -0.2098 -0.7206
16977TIP3    H272423   2.212   4.942  13.733 -0.3703  0.5966  0.6019
16978TIP3   OH272424   5.043   1.847   2.257  0.5155 -0.3931 -0.5757
16978TIP3    H172425   5.060   1.916   2.322  0.6780 -1.9379  1.0979
16978TIP3    H272426   5.102   1.776   2.281 -1.5567 -2.1997 -0.5212
16979TIP3   OH272427   6.012   5.492   3.942  0.0007  0.2844  0.6457
16979TIP3    H172428   5.995   5.522   3.853 -0.6244  1.9466  1.2803
16979TIP3    H272429   5.929   5.502   3.987  0.1826 -1.0196  1.3093
16980TIP3   OH272430   4.997   3.977  14.594  0.3019 -0.0582 -0.3109
16980TIP3    H172431   4.995   3.927  14.676 -1.3001 -0.0113 -0.2905
16980TIP3    H272432   4.999   4.068  14.622  1.3483 -0.0581 -0.3458
16981TIP3   OH272433   1.064   3.698   1.976 -0.9780 -0.2031 -0.4280
16981TIP3    H172434   1.154   3.676   2.001 -0.4893  0.2810 -1.7179
16981TIP3    H272435   1.073   3.761   1.905 -2.3486  0.9891  0.3920
16982TIP3   OH272436   4.263   4.026   3.116 -0.5214  0.2277  0.4513
16982TIP3    H172437   4.215   4.108   3.103  0.1248  0.9531  2.2778
16982TIP3    H272438   4.350   4.043   3.078  0.0290  0.8780  1.9411
16983TIP3   OH272439   3.048   5.888  13.609  0.3666  0.1108  0.1336
16983TIP3    H172440   2.990   5.877  13.534  1.2743  0.8750 -0.7126
16983TIP3    H272441   3.057   5.983  13.619  0.5765  0.0162  0.9657
16984TIP3   OH272442   0.248   1.970  14.550  0.2030 -0.0812 -0.0008
16984TIP3    H172443   0.312   2.039  14.536 -0.6883  0.8007  0.1366
16984TIP3    H272444   0.294   1.889  14.529  0.8182  0.6682 -1.7076
16985TIP3   OH272445   3.193   4.743  13.955 -0.1345  0.2799 -0.3679
16985TIP3    H172446   3.216   4.694  13.876  0.9549 -0.1900  0.2112
16985TIP3    H272447   3.277   4.756  14.001 -0.5806  1.6099  0.1101
16986TIP3   OH272448   5.183   1.639  12.215 -0.0211  0.0920 -0.3679
16986TIP3    H172449   5.169   1.708  12.280 -0.5292 -1.1518  0.8629
16986TIP3    H272450   5.116   1.656  12.148 -2.7187 -1.3720  1.7821
16987TIP3   OH272451   2.297   2.872   5.768  0.3678 -0.3407  0.2356
16987TIP3    H172452   2.235   2.852   5.698  1.4346  0.7831 -1.0978
16987TIP3    H272453   2.382   2.850   5.731  1.0033  0.8368  0.9328
16988TIP3   OH272454   2.176   5.859  14.276 -0.0011 -0.1905  0.4163
16988TIP3    H172455   2.173   5.784  14.336 -0.3900  0.4434  1.2177
16988TIP3    H272456   2.269   5.879  14.267  0.0317  0.1275  1.3692
16989TIP3   OH272457   4.797   4.527   2.501  0.0767  0.5704  0.4561
16989TIP3    H172458   4.858   4.545   2.573 -0.3543  0.1705  0.9332
16989TIP3    H272459   4.710   4.534   2.541 -0.1618  0.1361  0.0290
16990TIP3   OH272460   0.122   3.609  16.303 -0.0558  0.0946 -0.2024
16990TIP3    H172461   0.053   3.573  16.248 -0.5309  1.0744 -0.2741
16990TIP3    H272462   0.146   3.692  16.261 -0.1602  0.6733  0.8389
16991TIP3   OH272463   2.864   0.094   4.007  0.7466  0.0858 -0.0704
16991TIP3    H172464   2.769   0.098   3.994  0.6750 -1.0183  0.0506
16991TIP3    H272465   2.888   0.183   4.031 -0.0871  0.6709 -1.2498
16992TIP3   OH272466   5.191   6.270  16.487 -0.2027 -0.3296 -0.5683
16992TIP3    H172467   5.186   6.359  16.451  1.2478  0.2644  0.6030
16992TIP3    H272468   5.103   6.235  16.474 -1.0637  1.5794 -0.3259
16993TIP3   OH272469   5.726   5.630  15.280  0.0525 -0.1942  0.1521
16993TIP3    H172470   5.807   5.579  15.277 -0.4578 -1.0259 -2.8018
16993TIP3    H272471   5.734   5.694  15.210 -1.3339  0.5446  0.6230
16994TIP3   OH272472   1.721   4.765  15.733 -0.1516 -0.1812 -0.1248
16994TIP3    H172473   1.787   4.788  15.667  0.2885  0.9904  0.6834
16994TIP3    H272474   1.771   4.741  15.811 -0.6716 -0.1047  0.2404
16995TIP3   OH272475   1.195   1.646  13.483 -0.6891  0.3227 -0.2309
16995TIP3    H172476   1.250   1.664  13.560  0.2182  0.1981 -0.8400
16995TIP3    H272477   1.175   1.732  13.447 -0.6898  0.3592 -0.1436
16996TIP3   OH272478   5.835   2.369   3.732  0.0099 -0.5657  0.1252
16996TIP3    H172479   5.856   2.346   3.642  0.5708  2.0637 -0.4955
16996TIP3    H272480   5.919   2.389   3.773 -0.4556  1.5082  0.1900
16997TIP3   OH272481   0.176   5.087  15.156 -0.3222  0.3136 -0.8276
16997TIP3    H172482   0.240   5.132  15.212  0.7141 -0.7292 -1.1315
16997TIP3    H272483   0.204   4.996  15.157 -1.0087  0.0733 -2.0788
16998TIP3   OH272484   3.614   3.565  15.916 -0.3010 -0.2373  0.1620
16998TIP3    H172485   3.550   3.606  15.859  0.2684  1.8308  0.9294
16998TIP3    H272486   3.685   3.628  15.923  0.6580 -1.3799  1.3792
16999TIP3   OH272487   2.221   5.284  12.250  0.5850  0.2713 -0.2744
16999TIP3    H172488   2.272   5.364  12.249  1.1215 -0.0187 -2.5302
16999TIP3    H272489   2.217   5.258  12.342  0.5768  2.7347  0.4705
17000TIP3   OH272490   1.711   6.327  11.932 -0.4333 -0.1977 -0.1507
17000TIP3    H172491   1.617   6.341  11.945 -0.3218 -0.7494  1.4777
17000TIP3    H272492   1.739   6.280  12.010  0.6216 -2.7274 -1.9090
17001TIP3   OH272493   2.000   6.117  16.597  0.7729 -0.4911  0.4672
17001TIP3    H172494   1.982   6.029  16.563  1.6621 -0.5296  0.0554
17001TIP3    H272495   2.063   6.102  16.668  1.5087 -0.1391 -0.0959
17002TIP3   OH272496   1.459   1.902   5.818 -0.2942  0.0528 -0.2203
17002TIP3    H172497   1.536   1.958   5.812 -0.4934  0.2615 -0.9421
17002TIP3    H272498   1.437   1.900   5.911 -0.1264  0.9589 -0.1587
17003TIP3   OH272499   2.282   4.098   1.575  0.0116  0.1791  0.0787
17003TIP3    H172500   2.304   4.125   1.486  1.5480  1.3807  0.7676
17003TIP3    H272501   2.205   4.151   1.598 -0.8556 -0.6799 -0.7635
17004TIP3   OH272502   0.225   4.278   4.492 -0.4555 -0.4078  0.4730
17004TIP3    H172503   0.152   4.339   4.497 -0.1481 -0.0480  0.6079
17004TIP3    H272504   0.185   4.191   4.500 -1.0959 -0.3261 -1.4080
17005TIP3   OH272505   3.623   2.484  14.462 -0.3202  0.5263 -0.9635
17005TIP3    H172506   3.662   2.413  14.411 -2.3876 -0.8141 -0.8240
17005TIP3    H272507   3.612   2.448  14.550 -1.1697  1.0913 -0.8186
17006TIP3   OH272508   3.987   6.302  11.574  0.2718  0.0867  0.1140
17006TIP3    H172509   3.982   6.308  11.670  0.7191 -0.9484  0.2144
17006TIP3    H272510   4.050   6.369  11.549  0.5669 -0.0044  0.5952
17007TIP3   OH272511   6.398   3.132   3.666  0.0856  0.0673  0.3090
17007TIP3    H172512   6.493   3.118   3.668  0.9221  3.7713 -2.5486
17007TIP3    H272513   6.377   3.162   3.755  1.5078 -0.8995  1.0166
17008TIP3   OH272514   2.094   2.094  13.448 -0.8131 -0.5664  0.1779
17008TIP3    H172515   2.121   2.141  13.527 -0.8726 -2.9931  1.7639
17008TIP3    H272516   2.005   2.124  13.431 -0.2429  1.1546  0.0391
17009TIP3   OH272517   3.167   2.887   4.235  0.3263  0.6162 -0.2458
17009TIP3    H172518   3.107   2.952   4.269  0.0766 -0.5008  1.5792
17009TIP3    H272519   3.182   2.913   4.144 -2.3029  1.3624 -0.5513
17010TIP3   OH272520   4.945   2.136  13.941 -0.2588 -0.1620  0.1106
17010TIP3    H172521   4.987   2.221  13.948 -1.5575  0.4959  0.2369
17010TIP3    H272522   5.010   2.074  13.974  0.1650  0.9399  1.4452
17011TIP3   OH272523   2.657   4.778  11.336 -0.0594  0.6407  0.1381
17011TIP3    H172524   2.706   4.728  11.271  0.9963  0.6260  0.9277
17011TIP3    H272525   2.592   4.717  11.369  0.8405 -0.0480  0.6765
17012TIP3   OH272526   3.674   6.760  11.484  0.5797  0.4778 -0.3121
17012TIP3    H172527   3.653   6.695  11.551  3.9057 -0.9868 -0.4751
17012TIP3    H272528   3.612   6.831  11.499 -1.0429 -1.2758  2.0552
17013TIP3   OH272529   2.068   1.918   3.948 -0.0336 -0.3472 -0.5799
17013TIP3    H172530   2.071   2.013   3.941  0.2999 -0.4821 -3.3756
17013TIP3    H272531   2.050   1.901   4.040 -0.5867  2.4159 -0.1041
17014TIP3   OH272532   4.896   4.801   4.566 -0.1060 -0.1627 -0.0742
17014TIP3    H172533   4.919   4.710   4.586  2.4019  0.0733 -1.3505
17014TIP3    H272534   4.837   4.795   4.491  2.0239 -0.8143 -1.8222
17015TIP3   OH272535   4.444   0.452  16.821 -0.2077 -0.3782 -0.2131
17015TIP3    H172536   4.364   0.428  16.774 -2.1691  0.8321  2.2854
17015TIP3    H272537   4.418   0.455  16.913  2.9162 -0.5529  0.7762
17016TIP3   OH272538   5.306   6.139  13.861  0.2419 -0.1552 -0.1611
17016TIP3    H172539   5.317   6.171  13.771  2.0850  0.4250  0.2236
17016TIP3    H272540   5.372   6.186  13.911  0.4844 -1.8257  1.1621
17017TIP3   OH272541   4.043   5.372   6.803  0.6221  0.2388  0.0767
17017TIP3    H172542   4.097   5.364   6.881  0.4085  2.0603  0.4634
17017TIP3    H272543   3.974   5.434   6.827  1.1766  1.7191 -1.8235
17018TIP3   OH272544   5.008   4.332   5.080  0.2492  0.2660 -0.0757
17018TIP3    H172545   5.066   4.259   5.099  1.7610  1.1073 -1.2820
17018TIP3    H272546   4.920   4.293   5.078  1.0016 -1.4920 -0.6571
17019TIP3   OH272547   1.646   6.087   5.725  0.6148 -0.4094 -0.1115
17019TIP3    H172548   1.614   6.100   5.635 -0.9901 -0.3495  0.4288
17019TIP3    H272549   1.604   6.156   5.775  2.0797  0.0084  0.5805
17020TIP3   OH272550   6.728   5.117  14.926 -0.1149  0.0788  0.4533
17020TIP3    H172551   6.804   5.174  14.937 -0.7785  1.0691  0.0090
17020TIP3    H272552   6.766   5.032  14.905  0.8903  0.3997  0.8730
17021TIP3   OH272553   5.667   2.757   2.655 -0.2430 -0.2455  0.0262
17021TIP3    H172554   5.706   2.735   2.570  0.2104  2.5110 -0.6053
17021TIP3    H272555   5.589   2.703   2.661 -0.3258 -0.4766 -2.2054
17022TIP3   OH272556   6.595   6.533  11.530  0.6878  0.1846 -0.0722
17022TIP3    H172557   6.686   6.552  11.553  0.8758 -1.5105  0.7353
17022TIP3    H272558   6.566   6.610  11.481  2.3643  1.0130  0.1688
17023TIP3   OH272559   2.432   3.534  12.186  0.0679 -0.3574 -0.1923
17023TIP3    H172560   2.346   3.497  12.165  0.1398 -0.1333 -0.9248
17023TIP3    H272561   2.493   3.461  12.173 -0.0451 -0.6000  0.6340
17024TIP3   OH272562   3.815   6.524   5.800 -0.2636  0.1326 -0.1103
17024TIP3    H172563   3.754   6.462   5.761  1.7854 -1.8215 -0.3852
17024TIP3    H272564   3.870   6.553   5.727 -0.5961  1.5973  0.1842
17025TIP3   OH272565   1.088   0.761  14.315 -0.0152 -0.1403  0.7161
17025TIP3    H172566   1.025   0.804  14.256 -3.5091 -1.8009  2.9241
17025TIP3    H272567   1.104   0.825  14.384  1.5106  0.5917 -0.2610
17026TIP3   OH272568   6.230   6.152  14.319  0.4452 -0.4110  0.3684
17026TIP3    H172569   6.143   6.159  14.279  0.0343 -0.6102  1.2084
17026TIP3    H272570   6.214   6.113  14.405  1.2537  0.4808  0.9430
17027TIP3   OH272571   2.970   1.957   0.981 -0.4356  0.0576 -0.1139
17027TIP3    H172572   3.001   2.010   1.054 -1.6816  0.0317  0.4518
17027TIP3    H272573   2.875   1.952   0.993 -0.5085 -1.0643 -0.9854
17028TIP3   OH272574   0.505   2.156  10.090  0.9515  0.4862 -0.0570
17028TIP3    H172575   0.468   2.204  10.164  1.4594  1.0596 -0.1688
17028TIP3    H272576   0.438   2.162  10.022  0.1542 -0.6795  0.5749
17029TIP3   OH272577   2.377   5.667   1.085  0.4122 -0.3762  0.6526
17029TIP3    H172578   2.297   5.659   1.138 -0.2001 -0.5941 -0.2889
17029TIP3    H272579   2.353   5.728   1.015  0.5221 -1.7271 -0.6033
17030TIP3   OH272580   0.171   6.267  11.537  0.7512 -0.2771  0.6408
17030TIP3    H172581   0.248   6.276  11.593  0.7004  2.3836  0.4307
17030TIP3    H272582   0.116   6.203  11.582  2.2943 -0.9213  1.7057
17031TIP3   OH272583   2.200   6.280  11.144 -0.3654  0.3735 -0.2933
17031TIP3    H172584   2.150   6.327  11.078 -0.2679 -1.1242 -1.4982
17031TIP3    H272585   2.261   6.226  11.094  0.2366 -0.2424  1.0522
17032TIP3   OH272586   5.014   5.331   4.391 -0.2421 -0.0049 -0.2275
17032TIP3    H172587   4.970   5.256   4.432  0.4787 -1.0428 -1.2737
17032TIP3    H272588   4.949   5.401   4.394 -1.0778 -0.7776  0.4445
17033TIP3   OH272589   4.406   6.109  15.064 -0.5757 -0.2214 -0.0928
17033TIP3    H172590   4.321   6.074  15.036  0.9792 -1.6451 -3.5873
17033TIP3    H272591   4.410   6.196  15.024 -0.8188  0.3715  1.1164
17034TIP3   OH272592   5.015   4.726   0.575  0.1115  0.3984 -0.0194
17034TIP3    H172593   4.981   4.760   0.492 -1.9183 -2.0631 -0.3230
17034TIP3    H272594   4.937   4.713   0.629  1.1102 -0.6776  1.2200
17035TIP3   OH272595   5.328   1.259   3.841 -0.0058 -0.0642  0.3226
17035TIP3    H172596   5.272   1.245   3.765 -0.9894 -0.5564  1.1226
17035TIP3    H272597   5.303   1.345   3.874  0.7470  0.3538 -0.1642
17036TIP3   OH272598   6.005   1.764   0.133 -0.2862  0.4106 -0.7152
17036TIP3    H172599   5.977   1.787   0.045 -2.5490 -0.8849 -0.4146
17036TIP3    H272600   5.943   1.809   0.190 -0.5376 -0.9062  0.0905
17037TIP3   OH272601   6.274   2.819  15.013 -0.2734 -0.3075 -0.5382
17037TIP3    H172602   6.325   2.805  15.093  0.1444  0.9141 -0.5666
17037TIP3    H272603   6.185   2.836  15.044 -0.2174 -0.3347 -0.3607
17038TIP3   OH272604   4.417   5.340   6.009  0.2321  0.2774 -0.3162
17038TIP3    H172605   4.359   5.413   5.988 -1.8289 -1.0975  0.2436
17038TIP3    H272606   4.417   5.336   6.105  0.1674 -0.5462 -0.3390
17039TIP3   OH272607   0.062   2.887  14.748 -0.4362  0.6712 -0.2884
17039TIP3    H172608   0.117   2.955  14.709  0.6200  0.0375  0.0636
17039TIP3    H272609   0.111   2.806  14.736 -0.0014  0.4416  2.3560
17040TIP3   OH272610   5.829   2.638  14.296 -0.1849  0.1818  0.5951
17040TIP3    H172611   5.898   2.692  14.260 -1.1700  1.3234  0.3637
17040TIP3    H272612   5.825   2.661  14.389 -0.2313  0.0882  0.6174
17041TIP3   OH272613   4.603   1.579  14.062 -0.3021 -0.1094 -0.5647
17041TIP3    H172614   4.662   1.516  14.102  1.5855  0.2056 -2.6649
17041TIP3    H272615   4.520   1.566  14.107  0.6348 -2.4567  0.6430
17042TIP3   OH272616   5.238   5.683  13.041 -0.2157 -0.3168 -0.0872
17042TIP3    H172617   5.211   5.591  13.030 -0.1783 -0.2483 -0.8089
17042TIP3    H272618   5.301   5.697  12.971  0.9529 -0.1783  0.9660
17043TIP3   OH272619   6.449   5.212  16.434  0.8613 -0.1700 -0.1054
17043TIP3    H172620   6.476   5.153  16.505  2.0431  0.5541  0.0646
17043TIP3    H272621   6.493   5.177  16.357  1.1491  0.1745 -0.1017
17044TIP3   OH272622   0.018   4.382  16.324  0.4036 -0.5605 -0.1992
17044TIP3    H172623  -0.065   4.346  16.294  1.2490 -1.9206 -1.0684
17044TIP3    H272624   0.017   4.473  16.294 -1.2857 -0.1624  0.9549
17045TIP3   OH272625   1.973   3.237  14.605 -0.0564 -0.6904  0.3023
17045TIP3    H172626   1.937   3.246  14.693 -0.8412  0.4514 -0.1234
17045TIP3    H272627   2.047   3.297  14.602 -0.6426  0.0218 -0.1274
17046TIP3   OH272628   5.708   1.306   3.960 -0.0283 -0.2349  0.1326
17046TIP3    H172629   5.661   1.307   4.044  0.4126  1.0855  0.3785
17046TIP3    H272630   5.651   1.255   3.902 -0.2308 -1.3893  1.2764
17047TIP3   OH272631   4.911   6.014  17.039  0.0429 -0.2846 -0.0681
17047TIP3    H172632   4.919   6.091  17.095 -0.4455  0.3322 -0.8241
17047TIP3    H272633   4.972   6.029  16.967 -0.9155 -0.0080 -0.8586
17048TIP3   OH272634   0.260   4.543  16.970  0.4911  0.3242 -0.1964
17048TIP3    H172635   0.205   4.605  16.922  1.6480  1.5602  0.0111
17048TIP3    H272636   0.227   4.457  16.944 -1.8370  0.9908  0.2871
17049TIP3   OH272637   0.493   2.167   2.896 -0.0986  0.0695 -0.0322
17049TIP3    H172638   0.488   2.262   2.906  1.4881  0.2718 -0.7983
17049TIP3    H272639   0.568   2.141   2.949 -0.6632 -0.7956  0.3625
17050TIP3   OH272640   1.535   4.317   2.012  0.5180  0.1521  0.3355
17050TIP3    H172641   1.460   4.375   2.026 -0.0621 -0.1739 -1.2813
17050TIP3    H272642   1.563   4.293   2.101 -1.6634 -0.2064  0.9826
17051TIP3   OH272643   4.847   0.467   2.401  0.1043  0.0026  0.3787
17051TIP3    H172644   4.825   0.540   2.343  1.8792 -0.5877 -1.1727
17051TIP3    H272645   4.764   0.423   2.417 -0.5117  0.3816 -1.5127
17052TIP3   OH272646   6.046   6.033   5.129  0.1191 -0.7032 -0.8146
17052TIP3    H172647   6.137   6.029   5.159  0.4186 -0.5541 -1.6821
17052TIP3    H272648   6.039   6.117   5.083 -0.6684 -0.3664 -0.1138
17053TIP3   OH272649   3.632   3.679   1.528 -0.2600 -0.4337  0.0444
17053TIP3    H172650   3.609   3.750   1.589 -0.6681 -0.2811 -0.2794
17053TIP3    H272651   3.547   3.649   1.494 -0.1451 -1.5551  0.7062
17054TIP3   OH272652   3.724   6.586   6.062 -0.2451  0.4192  0.0595
17054TIP3    H172653   3.725   6.576   5.967 -2.1044  0.9031 -0.0420
17054TIP3    H272654   3.787   6.657   6.079 -1.0417  1.4167 -0.9751
17055TIP3   OH272655   5.131   0.214  15.705  0.2187  0.3778  0.0249
17055TIP3    H172656   5.178   0.137  15.739  0.7242  0.8251  0.3561
17055TIP3    H272657   5.054   0.222  15.762  0.8248  0.8545  0.7875
17056TIP3   OH272658   5.905   4.318  17.104 -0.4399 -0.1290  0.0952
17056TIP3    H172659   5.941   4.407  17.104 -0.8468  0.0743  1.9006
17056TIP3    H272660   5.815   4.329  17.134 -0.6206 -1.1060 -0.0779
17057TIP3   OH272661   0.364   3.240  16.500 -0.2248 -0.6517 -0.2754
17057TIP3    H172662   0.458   3.253  16.498 -0.0147 -1.5137  1.9512
17057TIP3    H272663   0.328   3.324  16.471  1.1700 -0.5314 -1.8537
17058TIP3   OH272664   3.102   0.043  16.052 -0.1037 -0.7457  0.2262
17058TIP3    H172665   3.103   0.119  15.994  1.1319 -0.1513  0.9824
17058TIP3    H272666   3.018  -0.000  16.033  1.3075 -2.1186 -3.8548
17059TIP3   OH272667   5.963   1.714  16.767  0.2389 -0.2899  0.4397
17059TIP3    H172668   5.885   1.768  16.781 -0.3611 -1.3701  1.4381
17059TIP3    H272669   5.935   1.646  16.707  0.5816 -0.3599  0.3563
17060TIP3   OH272670   6.471   4.562  16.630 -0.4639  0.0327  0.4247
17060TIP3    H172671   6.406   4.628  16.609 -0.9428 -0.6715 -0.3647
17060TIP3    H272672   6.433   4.513  16.703 -1.6520 -1.4706 -1.1196
17061TIP3   OH272673   2.579   1.494  11.661  0.3058  0.1169 -0.3392
17061TIP3    H172674   2.507   1.522  11.605 -2.3343 -0.0640  2.6942
17061TIP3    H272675   2.599   1.405  11.633 -2.3631 -0.7362  0.2019
17062TIP3   OH272676   0.821   4.754  10.597  0.3145 -0.1124  0.2790
17062TIP3    H172677   0.878   4.812  10.546 -1.9104  0.9012 -1.1843
17062TIP3    H272678   0.796   4.806  10.673  0.9070 -0.3710  0.6566
17063TIP3   OH272679   4.474   2.547  15.250  0.1174 -0.0799 -0.2390
17063TIP3    H172680   4.422   2.492  15.191 -0.5735 -2.1782  2.1223
17063TIP3    H272681   4.428   2.630  15.252 -0.2666 -0.2087 -2.0112
17064TIP3   OH272682   3.588   4.120   2.090 -0.1910  0.1822  0.6751
17064TIP3    H172683   3.550   4.186   2.147 -0.8460 -0.5221  1.0788
17064TIP3    H272684   3.518   4.099   2.028  0.4100  0.7112 -0.2010
17065TIP3   OH272685   1.555   5.813  15.651  0.0791  0.4537  0.2000
17065TIP3    H172686   1.650   5.799  15.649 -0.2062 -1.9074 -0.1884
17065TIP3    H272687   1.543   5.902  15.617  2.1425  0.8300  0.3159
17066TIP3   OH272688   4.444   3.096   0.080 -0.1092  0.1272 -0.3269
17066TIP3    H172689   4.357   3.066   0.109 -0.4335  1.0611 -0.2870
17066TIP3    H272690   4.474   3.027   0.020 -1.6695  0.6262 -1.7810
17067TIP3   OH272691   1.465   2.432  17.099 -0.1773  0.2117  0.1819
17067TIP3    H172692   1.460   2.346  17.140  0.1118  0.1111  0.0119
17067TIP3    H272693   1.405   2.487  17.149  1.2688  0.4910  1.7059
17068TIP3   OH272694   3.465   6.052  11.495 -0.6775  0.8468 -0.5366
17068TIP3    H172695   3.440   5.979  11.437 -0.2674  0.8472 -0.7134
17068TIP3    H272696   3.422   6.032  11.578 -0.2453  0.1986 -0.4633
17069TIP3   OH272697   4.563   0.813  13.724  0.1067  0.0406 -0.7580
17069TIP3    H172698   4.656   0.792  13.726 -0.4716 -2.8992  0.8415
17069TIP3    H272699   4.542   0.820  13.631  1.5070 -1.5590 -1.2411
17070TIP3   OH272700   5.977   4.323  11.643  0.4147 -0.4343  0.1961
17070TIP3    H172701   5.942   4.283  11.563  1.8370 -0.2520 -0.5348
17070TIP3    H272702   6.062   4.358  11.618  1.1922 -0.9320  1.9377
17071TIP3   OH272703   4.945   3.729  13.745 -0.2550 -0.3686 -0.5434
17071TIP3    H172704   4.864   3.738  13.796 -0.1951 -1.8267 -0.1379
17071TIP3    H272705   5.014   3.756  13.805 -0.4287  1.2577 -1.0137
17072TIP3   OH272706   2.917   4.774   1.844 -0.2380 -0.3761  0.5424
17072TIP3    H172707   2.828   4.751   1.818 -0.2234 -0.7076  0.7697
17072TIP3    H272708   2.949   4.833   1.776  0.1650 -1.9901 -0.7483
17073TIP3   OH272709   6.252   1.816  12.120  0.3711  0.7986  0.2924
17073TIP3    H172710   6.173   1.765  12.101  1.1669 -0.4990  0.3021
17073TIP3    H272711   6.228   1.906  12.102 -0.5087  0.2175 -1.7940
17074TIP3   OH272712   4.373   4.473  17.151 -0.1662 -0.3262 -0.2779
17074TIP3    H172713   4.315   4.542  17.117 -0.2180 -0.6781 -0.9107
17074TIP3    H272714   4.430   4.451  17.078 -1.3790 -2.2873 -0.7095
17075TIP3   OH272715   0.925   1.531  12.693  0.4078 -0.0653 -0.4553
17075TIP3    H172716   1.004   1.519  12.746 -2.3590 -3.4664  3.5392
17075TIP3    H272717   0.930   1.462  12.626  0.6982 -0.4503 -0.0426
17076TIP3   OH272718   4.767   1.556  11.803  0.1107 -0.2235 -0.1104
17076TIP3    H172719   4.737   1.519  11.886 -0.5282  1.3392  0.4071
17076TIP3    H272720   4.826   1.491  11.767 -0.2228 -1.2885  1.1893
17077TIP3   OH272721   4.417   4.105  10.891 -0.7322 -0.1261 -0.8435
17077TIP3    H172722   4.472   4.029  10.908 -0.6122  0.2203  0.4127
17077TIP3    H272723   4.352   4.074  10.827 -2.0352 -1.9386  1.2308
17078TIP3   OH272724   3.192   1.802   5.218 -0.1568  0.0181  0.3039
17078TIP3    H172725   3.268   1.746   5.233  2.9594  3.7947  0.2908
17078TIP3    H272726   3.193   1.819   5.124  1.4346  2.9634  0.7412
17079TIP3   OH272727   4.460   2.913   5.115  0.1168 -0.1783 -0.2640
17079TIP3    H172728   4.521   2.840   5.127  0.0722  0.1176  2.1557
17079TIP3    H272729   4.417   2.923   5.200  0.3297  2.8316 -0.4235
17080TIP3   OH272730   0.537   2.590  13.053  0.0451 -0.2117 -0.8183
17080TIP3    H172731   0.488   2.514  13.085 -0.2146  0.3446  0.1431
17080TIP3    H272732   0.515   2.596  12.961  0.7921 -1.8498 -1.1375
17081TIP3   OH272733   5.358   5.069  14.697 -0.6511  0.0115 -0.0263
17081TIP3    H172734   5.341   5.049  14.605  1.5641 -1.2531 -0.2431
17081TIP3    H272735   5.324   5.157  14.710  0.0641  0.7093 -2.4066
17082TIP3   OH272736   1.228   2.751   5.682  0.5699 -0.4447  0.3260
17082TIP3    H172737   1.289   2.695   5.634  0.8954 -0.1394  0.3891
17082TIP3    H272738   1.190   2.693   5.749  2.6968 -0.0233  2.0018
17083TIP3   OH272739   0.982   1.652  11.499  0.8993 -0.5304 -0.0435
17083TIP3    H172740   0.892   1.633  11.474  1.3973 -1.2390 -1.3900
17083TIP3    H272741   0.975   1.696  11.584 -0.7436  0.0326 -0.4418
17084TIP3   OH272742   1.836   5.806  12.754  0.3354 -0.0317  0.1315
17084TIP3    H172743   1.750   5.846  12.768  0.0655 -0.5370 -0.0699
17084TIP3    H272744   1.817   5.716  12.728  0.9667 -0.4701  1.1525
17085TIP3   OH272745   0.747   3.176  10.822 -0.3046 -0.3155 -0.0479
17085TIP3    H172746   0.658   3.189  10.856  0.3257 -1.4049  2.2075
17085TIP3    H272747   0.803   3.180  10.900  1.5884 -0.0886 -1.3673
17086TIP3   OH272748   3.881   2.190  15.479 -0.0934 -0.0796  0.5329
17086TIP3    H172749   3.803   2.176  15.425 -1.0999 -0.4944  2.0461
17086TIP3    H272750   3.854   2.165  15.567  1.7788 -0.2597  1.0884
17087TIP3   OH272751   1.764   0.166   2.678  0.2969 -0.2062  0.2833
17087TIP3    H172752   1.751   0.227   2.750 -0.0009 -1.0453  0.9647
17087TIP3    H272753   1.676   0.145   2.648  0.1583 -2.5107  1.9972
17088TIP3   OH272754   5.568   1.604   3.851 -0.2375 -0.3464 -0.0178
17088TIP3    H172755   5.566   1.640   3.940 -0.8017 -2.1367  0.7310
17088TIP3    H272756   5.660   1.585   3.835 -0.3955 -2.5228  1.2917
17089TIP3   OH272757   4.945   1.986  15.551  0.5608 -0.2183 -0.2341
17089TIP3    H172758   4.934   2.079  15.532  0.5882 -0.3358 -0.8569
17089TIP3    H272759   4.958   1.982  15.646 -3.0498  0.0901  0.4127
17090TIP3   OH272760   6.190   3.757   4.775  0.0952  0.5467  0.1617
17090TIP3    H172761   6.117   3.761   4.837  0.0709  0.5808  0.1305
17090TIP3    H272762   6.151   3.721   4.695  0.3433 -0.5064  0.4925
17091TIP3   OH272763   0.036   4.885  14.823  0.7084  0.7872 -0.7155
17091TIP3    H172764   0.122   4.913  14.852 -0.1096  0.4073  2.4145
17091TIP3    H272765   0.052   4.803  14.775  2.1639  1.5060 -1.5334
17092TIP3   OH272766   1.338   6.763   4.887  0.4014 -0.1177  0.3673
17092TIP3    H172767   1.367   6.725   4.970 -1.1529 -2.2531  0.0143
17092TIP3    H272768   1.247   6.787   4.902 -0.5412 -2.3876 -1.2262
17093TIP3   OH272769   4.431   2.245  13.739 -0.1619  0.1205 -0.4029
17093TIP3    H172770   4.503   2.308  13.731  1.4212 -1.0540  2.7762
17093TIP3    H272771   4.376   2.280  13.809 -1.8144  0.1296 -1.6392
17094TIP3   OH272772   3.852   1.728  11.478  0.3844 -0.1726  0.2847
17094TIP3    H172773   3.911   1.697  11.409  0.5651  1.3727 -0.3067
17094TIP3    H272774   3.908   1.780  11.536 -0.4500  1.9083 -0.6768
17095TIP3   OH272775   4.263   5.948   0.554 -0.0840  0.5673 -0.3711
17095TIP3    H172776   4.327   5.921   0.620 -1.7545 -1.9613  0.3484
17095TIP3    H272777   4.218   5.867   0.530 -1.6355  1.9346 -2.3524
17096TIP3   OH272778   4.037   3.726  11.432 -0.5402  0.0453  0.0105
17096TIP3    H172779   4.067   3.641  11.401  0.7291  0.7949 -0.9303
17096TIP3    H272780   4.058   3.786  11.360 -0.6968  1.2831  0.9681
17097TIP3   OH272781   1.359   0.345  16.457 -0.0367 -0.1620 -0.0079
17097TIP3    H172782   1.362   0.306  16.544  1.1883  0.0004  0.0347
17097TIP3    H272783   1.394   0.433  16.468  0.2979 -0.2022 -0.6921
17098TIP3   OH272784   0.591   5.709   2.340 -0.0854  0.0787 -0.3501
17098TIP3    H172785   0.552   5.687   2.425  1.9534 -0.0983  0.5875
17098TIP3    H272786   0.612   5.802   2.346 -0.3881  0.1870 -0.8739
17099TIP3   OH272787   3.527   5.829   1.765  0.1252 -0.3323  0.6528
17099TIP3    H172788   3.557   5.916   1.791 -0.6455  0.5228 -1.1341
17099TIP3    H272789   3.434   5.841   1.744 -0.0456 -1.6338  0.5762
17100TIP3   OH272790   3.089   5.970  16.696  0.1093  0.1005 -0.4181
17100TIP3    H172791   3.146   5.960  16.619  0.2805  1.2451 -0.4591
17100TIP3    H272792   3.009   6.010  16.661  0.5766  1.5745  0.1311
17101TIP3   OH272793   4.974   6.722  15.478  0.2202  0.2436 -0.2106
17101TIP3    H172794   5.033   6.680  15.541  2.0169  0.0386 -1.9315
17101TIP3    H272795   4.892   6.674  15.488  0.9321 -0.8466  0.8543
17102TIP3   OH272796   6.479   0.852  12.318 -0.0464  0.5633  0.0388
17102TIP3    H172797   6.402   0.804  12.287 -0.2614  0.6122  0.5067
17102TIP3    H272798   6.459   0.876  12.408 -0.6922  3.1421 -0.7365
17103TIP3   OH272799   1.748   5.929  16.512  0.7379  0.6434  0.0078
17103TIP3    H172800   1.729   6.019  16.538  0.1313  0.7014 -0.6044
17103TIP3    H272801   1.767   5.936  16.418 -0.5796 -0.0339 -0.3304
17104TIP3   OH272802   5.393   4.577   1.796 -0.7223  0.0021  0.2005
17104TIP3    H172803   5.483   4.604   1.813 -0.9972  0.0989  1.6236
17104TIP3    H272804   5.362   4.637   1.728 -0.5621  1.7808  1.6296
17105TIP3   OH272805   6.123   4.448   2.424 -0.4549 -0.2517  0.7226
17105TIP3    H172806   6.027   4.445   2.420 -0.4104 -0.9483 -0.2622
17105TIP3    H272807   6.144   4.411   2.509 -1.0596 -0.1594  0.9202
17106TIP3   OH272808   6.668   4.582  11.231  0.1840 -0.1828  0.3130
17106TIP3    H172809   6.608   4.609  11.300  0.5626  0.3790  0.4243
17106TIP3    H272810   6.689   4.491  11.251 -0.2716 -0.2392  0.5317
17107TIP3   OH272811   2.853   6.450  12.107  0.5288 -0.0421  0.5610
17107TIP3    H172812   2.870   6.491  12.022  0.3324  0.7641  0.9035
17107TIP3    H272813   2.778   6.498  12.142 -1.3534 -2.3057 -0.1177
17108TIP3   OH272814   5.719   0.616   0.658  0.4992 -0.1964  0.2974
17108TIP3    H172815   5.810   0.641   0.645  0.4870  0.5833  1.6402
17108TIP3    H272816   5.708   0.608   0.752 -0.7367 -0.6504  0.1476
17109TIP3   OH272817   5.160   3.915   6.169  0.1607  0.3869  0.6172
17109TIP3    H172818   5.194   3.998   6.201 -0.7594  0.1822  2.2256
17109TIP3    H272819   5.238   3.865   6.144  0.7274  1.6519 -0.2298
17110TIP3   OH272820   2.812   3.443  10.870 -0.4199  0.2472  0.3585
17110TIP3    H172821   2.735   3.404  10.829 -0.1857  0.8563 -0.6828
17110TIP3    H272822   2.830   3.387  10.946 -1.4405 -0.3241  0.1912
17111TIP3   OH272823   0.488   4.323  11.566 -0.4175  0.2076  0.3828
17111TIP3    H172824   0.554   4.260  11.538  1.0620  2.1850 -0.8375
17111TIP3    H272825   0.406   4.287  11.534  0.2780 -1.3870  0.2734
17112TIP3   OH272826   5.574   6.203   6.554 -0.6131 -0.1764  0.3204
17112TIP3    H172827   5.549   6.290   6.523  1.1399 -0.6800 -3.0561
17112TIP3    H272828   5.493   6.166   6.589 -2.1909  1.7094 -1.0909
17113TIP3   OH272829   0.819   4.536   0.258  0.1321 -0.0962  0.8175
17113TIP3    H172830   0.884   4.510   0.193 -0.6705 -1.3640  0.4773
17113TIP3    H272831   0.737   4.498   0.225 -0.5529  0.4875  1.8247
17114TIP3   OH272832   0.971   1.020   1.393 -0.3518 -0.2734  0.1369
17114TIP3    H172833   0.911   1.077   1.344  1.3308  1.5085  0.0494
17114TIP3    H272834   1.048   1.075   1.410  0.7429 -2.0912  1.3495
17115TIP3   OH272835   2.066   2.827  17.058  0.0148 -0.6544 -0.0028
17115TIP3    H172836   2.016   2.775  17.121  0.0837 -1.5129 -0.6386
17115TIP3    H272837   2.000   2.866  17.001  0.0495 -1.8518 -0.8919
17116TIP3   OH272838   0.493   2.903  16.242 -0.2089 -0.1578 -0.2769
17116TIP3    H172839   0.433   2.971  16.271 -0.9686 -0.7832 -0.3318
17116TIP3    H272840   0.559   2.897  16.311  0.7546  1.6569 -0.9713
17117TIP3   OH272841   2.849   1.946   1.298 -0.6133 -0.8153  0.4429
17117TIP3    H172842   2.927   1.951   1.353 -1.8070 -1.4685  2.2621
17117TIP3    H272843   2.793   2.017   1.329 -0.6399 -0.1289 -1.0822
17118TIP3   OH272844   5.370   2.432  16.770 -0.1181  0.4632 -0.1091
17118TIP3    H172845   5.457   2.419  16.732  0.2112 -0.4806  0.8993
17118TIP3    H272846   5.310   2.394  16.706  0.3470 -0.2352 -0.1428
17119TIP3   OH272847   5.841   5.112  12.397  0.4425  0.2559  0.2203
17119TIP3    H172848   5.899   5.036  12.388 -1.0805 -1.1469  1.4163
17119TIP3    H272849   5.753   5.074  12.399 -0.4695  2.2052 -0.4440
17120TIP3   OH272850   4.075   0.472   1.645  0.3529 -0.1288  0.4597
17120TIP3    H172851   3.997   0.512   1.684 -0.6044 -0.6448 -0.8493
17120TIP3    H272852   4.138   0.545   1.638 -1.1151  1.0404 -1.2816
17121TIP3   OH272853   1.754   5.915   1.363  0.1026  0.2630  0.5243
17121TIP3    H172854   1.833   5.916   1.310  0.4792  1.6812  1.0597
17121TIP3    H272855   1.753   5.829   1.404  2.4016  0.8396  1.9807
17122TIP3   OH272856   6.068   6.076  16.998  0.3677 -0.2240  0.0332
17122TIP3    H172857   6.048   6.022  17.074  2.8624 -0.5910  0.5271
17122TIP3    H272858   6.099   6.014  16.932  2.3705  0.4311  0.2812
17123TIP3   OH272859   3.399   0.488   4.159  1.1145  0.5902 -0.3055
17123TIP3    H172860   3.366   0.405   4.195  3.8103 -0.4610 -0.0177
17123TIP3    H272861   3.331   0.552   4.181 -0.9822 -1.4740 -0.3800
17124TIP3   OH272862   1.014   6.443   0.325  0.5056  0.0006 -0.0502
17124TIP3    H172863   1.058   6.381   0.382  0.0642 -0.7346 -0.4889
17124TIP3    H272864   1.080   6.509   0.304  0.7445  0.1372  1.0840
17125TIP3   OH272865   0.132   3.670  14.707 -0.6371 -0.5382  0.0624
17125TIP3    H172866   0.162   3.754  14.671  0.6453 -1.7442 -1.8990
17125TIP3    H272867   0.161   3.671  14.798  0.1534  0.7809 -0.1776
17126TIP3   OH272868   6.399   6.582  15.154  0.3121  0.0027  0.3367
17126TIP3    H172869   6.399   6.601  15.247  0.6167 -2.1726  0.8387
17126TIP3    H272870   6.309   6.600  15.126 -0.3923 -1.3398  1.5592
17127TIP3   OH272871   5.377   1.286  10.927 -0.1416  0.6956 -0.2444
17127TIP3    H172872   5.419   1.363  10.964  1.7806  0.2195 -1.2535
17127TIP3    H272873   5.414   1.212  10.976 -0.6840  0.3264 -0.3829
17128TIP3   OH272874   0.599   1.915   4.711  0.8116  0.1227  0.3484
17128TIP3    H172875   0.649   1.844   4.751  0.8121 -0.5399 -0.7711
17128TIP3    H272876   0.579   1.883   4.623 -0.1824  1.0445  0.2151
17129TIP3   OH272877   6.281   2.839  16.222 -0.2849 -0.2835  0.0283
17129TIP3    H172878   6.261   2.889  16.143  0.4096  0.2726  0.1862
17129TIP3    H272879   6.202   2.788  16.240 -0.2298 -0.8983 -1.3799
17130TIP3   OH272880   1.861   4.305   1.065 -0.3948  0.0500 -0.3940
17130TIP3    H172881   1.765   4.312   1.070 -0.3826 -0.6245  1.7241
17130TIP3    H272882   1.885   4.358   0.989 -2.2462  2.1852  0.4236
17131TIP3   OH272883   1.683   3.150   5.852 -0.3219  0.5902 -0.0612
17131TIP3    H172884   1.627   3.141   5.929  0.7609 -0.1640  0.6639
17131TIP3    H272885   1.697   3.245   5.844 -0.7044  0.6962  0.4555
17132TIP3   OH272886   3.423   0.367   1.468 -0.4263  0.6537 -0.0637
17132TIP3    H172887   3.431   0.276   1.440  1.3912  1.5234 -2.7971
17132TIP3    H272888   3.481   0.374   1.544  0.5526 -0.1858 -0.7029
17133TIP3   OH272889   6.456   0.222  15.436  0.0200  0.2840 -0.1518
17133TIP3    H172890   6.485   0.313  15.432  0.3491  0.1669 -0.5135
17133TIP3    H272891   6.514   0.181  15.501  0.0618  0.2637 -0.2021
17134TIP3   OH272892   5.282   3.838   1.510 -0.1200  0.0891 -0.0891
17134TIP3    H172893   5.230   3.895   1.567 -0.8851 -1.0417  0.3770
17134TIP3    H272894   5.257   3.864   1.421 -0.9556  0.0503  0.1249
17135TIP3   OH272895   6.041   1.415  13.491  0.0159  0.2761  0.2948
17135TIP3    H172896   6.006   1.371  13.569  0.0327  0.2655  0.2958
17135TIP3    H272897   6.057   1.344  13.429 -1.8264  0.4408 -0.4459
17136TIP3   OH272898   0.229   4.965   1.550  0.2594 -0.3227  0.1795
17136TIP3    H172899   0.271   5.035   1.600  2.3528 -1.4298  0.0392
17136TIP3    H272900   0.283   4.955   1.472  1.4683 -3.6602  1.2935
17137TIP3   OH272901   5.486   2.578   0.938 -0.3159 -0.0092  0.0923
17137TIP3    H172902   5.525   2.572   1.025  1.3626  1.0717 -0.5394
17137TIP3    H272903   5.523   2.503   0.891  1.1896  1.0675 -0.5343
17138TIP3   OH272904   3.015   2.573  11.652 -0.1339  0.1771 -0.1299
17138TIP3    H172905   3.011   2.620  11.735  3.1598 -0.1887  0.3486
17138TIP3    H272906   2.954   2.621  11.596  0.1561  2.6485  1.4754
17139TIP3   OH272907   4.769   2.371   3.352  0.0403  0.2428 -0.1009
17139TIP3    H172908   4.806   2.459   3.351  2.1995 -0.5365  2.1824
17139TIP3    H272909   4.807   2.328   3.275  2.4069  0.1071  1.0512
17140TIP3   OH272910   0.569   2.004  16.407  0.6236 -0.6644  0.4467
17140TIP3    H172911   0.584   1.935  16.472  0.6353 -0.2282  0.9129
17140TIP3    H272912   0.476   1.998  16.387  0.4250 -0.1955  1.2050
17141TIP3   OH272913   4.854   4.643   3.368  0.3249 -0.1083  0.1356
17141TIP3    H172914   4.840   4.671   3.278  0.7084 -1.8908 -0.5123
17141TIP3    H272915   4.943   4.609   3.369  0.0059 -0.9608  0.9472
17142TIP3   OH272916   0.398   3.187  13.061  0.2795 -0.4395 -0.0948
17142TIP3    H172917   0.383   3.093  13.052 -1.3143 -0.2272  0.0292
17142TIP3    H272918   0.387   3.205  13.154  0.9063 -0.1722 -0.0659
17143TIP3   OH272919   1.117   4.478  10.990 -0.3211  0.1942 -0.0040
17143TIP3    H172920   1.076   4.537  10.926  0.0194 -0.0508 -0.4530
17143TIP3    H272921   1.063   4.487  11.069 -0.7933  0.4376 -0.3493
17144TIP3   OH272922   4.291   4.088   0.965  0.7422  0.8599  0.1098
17144TIP3    H172923   4.339   4.018   0.920  0.8203  0.4025  0.8824
17144TIP3    H272924   4.287   4.159   0.902 -0.1019 -0.1576 -1.0223
17145TIP3   OH272925   6.509   0.094  13.151 -0.0642  0.2538 -0.1854
17145TIP3    H172926   6.448   0.148  13.101  0.5580  1.3039  0.1548
17145TIP3    H272927   6.575   0.155  13.183 -0.0952 -0.4763  1.3951
17146TIP3   OH272928   3.324   4.426  11.267 -0.2864 -0.0106  0.1590
17146TIP3    H172929   3.341   4.519  11.277  0.4627 -0.1265 -0.0238
17146TIP3    H272930   3.247   4.410  11.322 -0.7763  0.8188 -0.2614
17147TIP3   OH272931   6.309   0.170  11.781  0.5739  0.3658  0.5152
17147TIP3    H172932   6.234   0.181  11.839  0.0998 -3.8414  1.0288
17147TIP3    H272933   6.378   0.135  11.837  0.9903 -1.2770 -0.9371
17148TIP3   OH272934   5.104   1.442   5.361  0.2098  0.2420 -0.1393
17148TIP3    H172935   5.145   1.366   5.402 -0.6798 -0.0329  0.2476
17148TIP3    H272936   5.149   1.518   5.399 -0.0086 -0.0381  0.6840
17149TIP3   OH272937   6.336   0.695   4.678  0.2739  0.0155 -0.2000
17149TIP3    H172938   6.271   0.626   4.673  0.8037 -0.4423 -1.0217
17149TIP3    H272939   6.310   0.747   4.754 -1.8416  0.6607 -1.2786
17150TIP3   OH272940   2.555   2.721   1.715 -0.2239  0.4263  0.0520
17150TIP3    H172941   2.633   2.725   1.659 -0.1947  0.4368  0.0929
17150TIP3    H272942   2.498   2.658   1.672 -0.5750  1.0853 -0.4602
17151TIP3   OH272943   6.718   6.292  10.904 -0.4400  0.0531 -0.0663
17151TIP3    H172944   6.652   6.260  10.843  1.4893  1.0606 -2.8795
17151TIP3    H272945   6.695   6.384  10.918 -1.6471 -0.4973  1.9276
17152TIP3   OH272946   0.737   6.113  14.426  0.2954  0.0726  0.7260
17152TIP3    H172947   0.825   6.078  14.411  0.3196  0.5102 -0.1843
17152TIP3    H272948   0.729   6.185  14.364 -1.4835 -1.2899 -0.7027
17153TIP3   OH272949   5.862   1.552  11.140  0.0324 -0.0316  0.0010
17153TIP3    H172950   5.778   1.534  11.098 -0.3710  0.9084  0.3815
17153TIP3    H272951   5.844   1.624  11.200  0.9916 -0.1865  0.4972
17154TIP3   OH272952   3.582   2.118  14.429  0.7905 -0.0972  0.5969
17154TIP3    H172953   3.630   2.091  14.507  1.6710 -2.1426 -0.5743
17154TIP3    H272954   3.645   2.169  14.378  0.6892 -0.0268  0.5417
17155TIP3   OH272955   2.733   6.516   3.023  0.1611 -0.4297  0.5870
17155TIP3    H172956   2.768   6.517   3.113 -1.1730 -0.7212  1.1267
17155TIP3    H272957   2.661   6.578   3.025 -0.6441 -1.3226  0.0415
17156TIP3   OH272958   3.101   4.363   2.977  0.2218 -0.7935  0.2068
17156TIP3    H172959   3.043   4.345   2.903 -0.0101  2.8447 -0.6750
17156TIP3    H272960   3.081   4.453   3.002  3.2911 -0.4559  1.9233
17157TIP3   OH272961   1.685   2.027  16.286 -0.1290  0.2631  0.5288
17157TIP3    H172962   1.680   2.120  16.264  0.9522  0.3081  0.4366
17157TIP3    H272963   1.595   1.996  16.278 -0.4820  1.2722  0.4362
17158TIP3   OH272964   4.444   5.529  12.727 -0.8550  0.1672  0.4558
17158TIP3    H172965   4.380   5.551  12.659 -0.5499  2.5358  0.8476
17158TIP3    H272966   4.529   5.541  12.685 -0.6607 -0.3247  0.7029
17159TIP3   OH272967   1.730   3.939  11.744 -0.2443 -0.2090 -0.0768
17159TIP3    H172968   1.817   3.965  11.772 -0.1189  0.8208 -1.3439
17159TIP3    H272969   1.672   3.969  11.814  0.3952 -0.9356  0.7894
17160TIP3   OH272970   1.081   1.118   4.874  0.4974 -0.1741  0.2130
17160TIP3    H172971   1.134   1.038   4.866 -1.5650 -1.5477 -0.4766
17160TIP3    H272972   1.041   1.111   4.961 -0.8110 -0.6553 -0.4088
17161TIP3   OH272973   5.960   1.090  16.140 -0.1160 -0.0123  0.2847
17161TIP3    H172974   6.037   1.147  16.142  0.4708 -0.7683 -0.2352
17161TIP3    H272975   5.886   1.149  16.126  0.6705  0.4551 -2.3653
17162TIP3   OH272976   6.302   4.858  16.532  0.1454 -0.2982  0.4751
17162TIP3    H172977   6.226   4.806  16.505 -0.0025 -0.0081  0.3245
17162TIP3    H272978   6.266   4.929  16.585  0.2603  0.0845  0.0543
17163TIP3   OH272979   2.899   2.016  16.875 -0.0044 -0.0299  0.1255
17163TIP3    H172980   2.885   2.099  16.921  0.3896 -0.2652  0.6705
17163TIP3    H272981   2.814   1.996  16.836 -0.1702  0.5005  0.2035
17164TIP3   OH272982   1.388   0.660  15.515 -0.2100  0.2191 -0.8053
17164TIP3    H172983   1.403   0.735  15.458  1.5175 -0.5378 -1.4158
17164TIP3    H272984   1.369   0.698  15.601 -0.8121  1.3451 -1.4221
17165TIP3   OH272985   3.996   6.524  16.528 -0.3265  0.3511 -0.0145
17165TIP3    H172986   3.960   6.606  16.561 -0.2260  0.5359 -0.3652
17165TIP3    H272987   4.083   6.518  16.567  0.1895  1.0587 -1.0171
17166TIP3   OH272988   2.142   2.516  11.500 -0.1912 -0.3307  0.1582
17166TIP3    H172989   2.176   2.448  11.557 -1.1243 -0.8975  0.0615
17166TIP3    H272990   2.160   2.598  11.546 -0.6748 -0.7579  1.1356
17167TIP3   OH272991   4.013   3.893   3.075 -0.0111 -0.6185  0.2024
17167TIP3    H172992   4.037   3.905   2.983  0.3762  1.4288  0.5082
17167TIP3    H272993   4.078   3.944   3.123 -0.9739 -0.5729  1.5093
17168TIP3   OH272994   0.952   0.706  11.738  0.4434  0.5419  0.0680
17168TIP3    H172995   0.934   0.784  11.791  1.6061  0.6074  0.4046
17168TIP3    H272996   0.880   0.647  11.758 -1.3445  2.0905 -1.3933
17169TIP3   OH272997   6.253   1.064   5.373  0.2821  0.6431 -0.5951
17169TIP3    H172998   6.186   1.010   5.415  2.2090 -1.3469  0.1470
17169TIP3    H272999   6.221   1.154   5.382 -1.5585 -0.1011  1.0214
17170TIP3   OH273000   2.408   1.970   4.703  0.2605 -0.3456  0.4653
17170TIP3    H173001   2.445   1.905   4.763  2.6696  1.2560  0.8553
17170TIP3    H273002   2.325   1.996   4.744 -0.4527 -2.6267  0.6113
17171TIP3   OH273003   2.566   1.966   1.745 -0.5071  0.3650  0.3293
17171TIP3    H173004   2.645   1.912   1.743 -1.9403 -1.8376  0.2877
17171TIP3    H273005   2.523   1.942   1.827 -0.7077  2.2471  0.8202
17172TIP3   OH273006   1.976   4.949   5.280  0.6862 -0.3632  0.1967
17172TIP3    H173007   1.884   4.970   5.298  1.1533  0.6839  1.4910
17172TIP3    H273008   2.020   4.960   5.364  2.2992  0.8317 -0.7387
17173TIP3   OH273009   1.612   3.130  14.449 -0.2784  0.1323 -0.0420
17173TIP3    H173010   1.638   3.152  14.538 -0.8592 -1.0210  0.4249
17173TIP3    H273011   1.616   3.213  14.402  2.9175  0.2962  0.2982
17174TIP3   OH273012   5.797   6.102   1.199 -0.7004  0.2076  0.2607
17174TIP3    H173013   5.759   6.190   1.190 -0.6457  0.2509  0.4518
17174TIP3    H273014   5.883   6.108   1.159 -0.2420  0.5394  1.2772
17175TIP3   OH273015   2.336   4.540  16.020 -0.2353 -0.2091  0.0888
17175TIP3    H173016   2.287   4.598  15.962 -0.1279 -0.6264 -0.4317
17175TIP3    H273017   2.424   4.575  16.021 -0.0261 -0.6709 -0.6810
17176TIP3   OH273018   3.547   4.023  16.416 -0.3736  0.6113  0.4529
17176TIP3    H173019   3.627   4.046  16.463 -1.5793  0.5503  2.6659
17176TIP3    H273020   3.485   3.999  16.485 -2.0330 -0.2285 -1.2450
17177TIP3   OH273021   2.805   4.366   2.962 -0.4955 -0.1991  0.5884
17177TIP3    H173022   2.787   4.288   2.909  1.4535  0.0907 -0.5993
17177TIP3    H273023   2.786   4.439   2.903 -1.0925  0.2006  1.2725
17178TIP3   OH273024   5.806   0.880   0.367  0.0646 -0.1550  0.2989
17178TIP3    H173025   5.771   0.921   0.446 -1.4832 -0.4515 -0.1992
17178TIP3    H273026   5.778   0.938   0.296  1.8704  0.3789 -0.0250
17179TIP3   OH273027   2.621   1.849   4.130  0.6338 -0.4221 -0.7113
17179TIP3    H173028   2.551   1.913   4.142  2.0281  1.0685 -0.2108
17179TIP3    H273029   2.597   1.775   4.187 -0.8122 -0.2276 -1.0224
17180TIP3   OH273030   3.570   1.432  12.657  0.2385  0.0708 -0.1897
17180TIP3    H173031   3.563   1.507  12.597 -2.9522 -0.2167 -0.3715
17180TIP3    H273032   3.530   1.463  12.738  3.3418  0.0235  1.5129
17181TIP3   OH273033   1.165   4.084  13.313 -0.2131 -0.1266  0.2183
17181TIP3    H173034   1.173   4.027  13.390  0.5133  1.6372  1.5247
17181TIP3    H273035   1.241   4.061  13.259  1.2865  0.9470  1.7400
17182TIP3   OH273036   0.437   1.760  17.068  0.0076  0.0736  0.1234
17182TIP3    H173037   0.426   1.855  17.074 -0.6789 -0.0385  0.8027
17182TIP3    H273038   0.527   1.744  17.100  0.1173  0.4907  0.0284
17183TIP3   OH273039   4.696   3.199   4.927 -0.3662 -0.5171  0.2588
17183TIP3    H173040   4.709   3.145   4.849  0.9085  0.2410 -0.0908
17183TIP3    H273041   4.613   3.244   4.912  0.6101  0.8292 -1.4379
17184TIP3   OH273042   2.397   6.772  16.892  0.4903  0.4515 -0.4423
17184TIP3    H173043   2.333   6.791  16.824 -0.9276  1.2438  1.0503
17184TIP3    H273044   2.444   6.855  16.905  0.3920  0.4596 -0.1068
17185TIP3   OH273045   0.108   6.265   0.153  0.0220 -0.0321 -0.0534
17185TIP3    H173046   0.189   6.309   0.128  0.2476 -0.2797  0.2281
17185TIP3    H273047   0.049   6.278   0.079 -0.0399  1.0418  0.1643
17186TIP3   OH273048   0.932   1.821  13.102 -0.7327 -0.6016  0.1496
17186TIP3    H173049   0.881   1.899  13.077  0.1189  0.6876  2.1612
17186TIP3    H273050   0.873   1.748  13.085 -1.1207  0.2901 -3.0329
17187TIP3   OH273051   1.515   2.593   1.053 -0.8957 -0.4861 -0.0014
17187TIP3    H173052   1.521   2.641   1.136 -1.4759 -1.2123  0.4820
17187TIP3    H273053   1.563   2.512   1.070 -1.2442 -0.7541 -0.2798
17188TIP3   OH273054   0.268   3.063  14.585 -0.5804  0.0764  0.2596
17188TIP3    H173055   0.320   3.137  14.552  0.9404 -0.0655  2.2021
17188TIP3    H273056   0.181   3.078  14.547 -0.2572  2.7049  0.3076
17189TIP3   OH273057   1.476   2.506   4.957  0.1168  0.8879  0.0748
17189TIP3    H173058   1.428   2.569   4.903  1.1181  1.2533 -0.3945
17189TIP3    H273059   1.423   2.426   4.951 -0.3345  1.2199 -0.6025
17190TIP3   OH273060   2.485   4.491   3.130 -0.7883  0.3000  0.2864
17190TIP3    H173061   2.508   4.548   3.202  0.5952  0.2661 -0.1022
17190TIP3    H273062   2.515   4.404   3.156 -1.2856  0.0740  0.1322
17191TIP3   OH273063   3.517   3.011   5.006 -0.1073 -0.3699 -0.5368
17191TIP3    H173064   3.534   3.024   4.912 -0.8830 -0.1918 -0.6568
17191TIP3    H273065   3.566   2.931   5.027 -2.3743 -2.2376 -1.8327
17192TIP3   OH273066   5.409   0.663  14.093  0.5091  0.4018  0.1493
17192TIP3    H173067   5.462   0.604  14.147 -0.4696 -0.6433 -0.0010
17192TIP3    H273068   5.469   0.734  14.069  1.6933 -0.4976  0.3881
17193TIP3   OH273069   2.133   0.007   0.035  0.1161 -0.0005 -0.3180
17193TIP3    H173070   2.206  -0.030  -0.016 -0.3498  0.0248 -1.0116
17193TIP3    H273071   2.079   0.051  -0.030 -2.0723 -2.4220 -0.2979
17194TIP3   OH273072   4.138   3.902   1.522  0.0630 -0.2491 -0.4628
17194TIP3    H173073   4.058   3.908   1.574  0.9628 -0.3212  0.9946
17194TIP3    H273074   4.139   3.812   1.491  0.0036 -0.5010  0.2428
17195TIP3   OH273075   3.228   6.034  12.759 -0.3640  1.1193 -0.1118
17195TIP3    H173076   3.163   5.989  12.705  0.0259  1.3991 -0.8173
17195TIP3    H273077   3.310   6.028  12.710  0.3507  0.0771  1.1283
17196TIP3   OH273078   6.452   4.090   3.375 -0.0419  0.5221 -0.1864
17196TIP3    H173079   6.490   4.148   3.440  1.3581  2.2040 -2.3408
17196TIP3    H273080   6.519   4.083   3.307 -0.5936 -2.8254 -0.5593
17197TIP3   OH273081   2.317   0.365   2.957 -0.0418  0.4206  0.0070
17197TIP3    H173082   2.291   0.455   2.936  1.8649  1.2786  1.0897
17197TIP3    H273083   2.312   0.360   3.052  0.8165 -0.3046  0.0264
17198TIP3   OH273084   6.102   1.782   2.931  0.0767  0.1152 -0.1917
17198TIP3    H173085   6.142   1.742   3.008 -0.3103  0.8856  0.4191
17198TIP3    H273086   6.038   1.843   2.967 -0.7645 -0.1939 -1.1340
17199TIP3   OH273087   3.871   1.565  12.110  0.1407  0.3236  0.4016
17199TIP3    H173088   3.951   1.515  12.093  0.7960  1.7000 -0.7370
17199TIP3    H273089   3.826   1.568  12.026 -1.3641 -0.7794  1.1134
17200TIP3   OH273090   1.253   1.087   5.775 -0.3649  0.3574 -0.4250
17200TIP3    H173091   1.228   1.065   5.685  0.8298 -0.9330 -0.4629
17200TIP3    H273092   1.347   1.101   5.771 -0.4012  0.9375  0.5235
17201TIP3   OH273093   4.504   0.679  13.037 -0.2261 -0.5513 -0.1310
17201TIP3    H173094   4.550   0.707  13.115  0.6483  1.3709 -1.2589
17201TIP3    H273095   4.572   0.641  12.981 -0.4668 -0.0794 -0.7559
17202TIP3   OH273096   3.620   1.371  11.958  0.3865 -0.7003 -0.2537
17202TIP3    H173097   3.694   1.357  11.898 -0.6853 -2.2539 -1.3043
17202TIP3    H273098   3.573   1.445  11.920 -0.6041 -2.0325 -1.7488
17203TIP3   OH273099   5.759   6.057   1.974 -0.3071 -0.4902  0.4914
17203TIP3    H173100   5.780   6.115   1.901 -1.9889  1.7345  1.6870
17203TIP3    H273101   5.685   6.004   1.943  0.2670 -0.9865 -0.0689
17204TIP3   OH273102   0.815   4.028  15.221  0.4064  0.3826 -0.2236
17204TIP3    H173103   0.748   3.992  15.278  0.6472 -0.1890 -0.3016
17204TIP3    H273104   0.780   4.114  15.195  0.1545  0.5162  0.5215
17205TIP3   OH273105   0.470   3.752  11.426  0.5674  0.6346  0.3908
17205TIP3    H173106   0.501   3.789  11.344 -0.4742  0.1353 -0.2467
17205TIP3    H273107   0.375   3.745  11.415  0.7346 -3.1342  0.0081
17206TIP3   OH273108   4.681   4.058   3.208 -0.2923 -0.9425 -0.1914
17206TIP3    H173109   4.641   3.971   3.202  0.6705 -1.4939  0.8388
17206TIP3    H273110   4.657   4.088   3.296 -0.6877 -0.1219 -0.5755
17207TIP3   OH273111   6.674   4.604   2.175  0.5650  0.0066  0.2532
17207TIP3    H173112   6.762   4.571   2.193  0.6878 -0.1563 -0.6174
17207TIP3    H273113   6.673   4.691   2.214  0.8080 -0.3313  1.0485
17208TIP3   OH273114   3.252   5.429   3.542  0.4971 -0.3513 -0.0736
17208TIP3    H173115   3.226   5.373   3.615  0.9906  2.0789  2.1235
17208TIP3    H273116   3.319   5.379   3.496  2.5361 -0.8067  3.0640
17209TIP3   OH273117   4.119   4.141  13.829 -0.1195  0.5020 -0.3816
17209TIP3    H173118   4.099   4.234  13.821 -1.9165  0.2222  0.4615
17209TIP3    H273119   4.068   4.099  13.759  0.9783  0.1536 -1.0115
17210TIP3   OH273120   4.576   4.627   0.053  0.1876 -0.0807 -0.2111
17210TIP3    H173121   4.607   4.592   0.137  1.2444  0.8027 -0.2170
17210TIP3    H273122   4.521   4.557   0.017  0.1771 -0.6998  0.9489
17211TIP3   OH273123   4.202   6.395   0.032 -0.0076 -0.2426  0.2840
17211TIP3    H173124   4.148   6.337   0.085 -0.6545  0.2855  0.2110
17211TIP3    H273125   4.193   6.481   0.073  2.4502 -0.5014  1.5226
17212TIP3   OH273126   0.749   3.506   3.407 -0.1218 -0.1078  0.1004
17212TIP3    H173127   0.727   3.424   3.451 -0.1018 -0.1771 -0.0179
17212TIP3    H273128   0.675   3.564   3.424  0.9718  0.7602  2.4173
17213TIP3   OH273129   1.397   2.264   0.869 -0.6867  0.4019 -0.6309
17213TIP3    H173130   1.385   2.350   0.830  0.1788  0.5998 -0.4674
17213TIP3    H273131   1.478   2.231   0.830 -1.4277 -0.6859 -1.3123
17214TIP3   OH273132   3.771   3.158  16.504  0.1772  0.0056  0.0222
17214TIP3    H173133   3.777   3.222  16.433  1.3270  0.5374  0.5719
17214TIP3    H273134   3.752   3.209  16.582 -1.1427 -0.5843  0.1235
17215TIP3   OH273135   2.295   1.804   1.759 -0.8378  0.3967  0.0525
17215TIP3    H173136   2.241   1.726   1.771 -0.5008  0.3310  1.2436
17215TIP3    H273137   2.333   1.821   1.845  2.3944 -0.5552 -1.0360
17216TIP3   OH273138   2.913   2.548   6.191 -0.1502 -0.1841  0.8286
17216TIP3    H173139   2.861   2.544   6.271 -0.9919  0.7997  0.3597
17216TIP3    H273140   2.921   2.457   6.162 -2.6185 -0.3057  0.3171
17217TIP3   OH273141   4.791   5.086  15.202  0.3043  0.0961 -0.3399
17217TIP3    H173142   4.884   5.066  15.213 -0.3914 -2.5193  2.0701
17217TIP3    H273143   4.766   5.041  15.121  0.7736 -0.9305  0.0604
17218TIP3   OH273144   6.507   2.591   3.970  0.5490  0.0178  0.4403
17218TIP3    H173145   6.580   2.530   3.959 -0.2450 -1.3410  2.1652
17218TIP3    H273146   6.516   2.623   4.060 -1.0973 -0.4083  0.8026
17219TIP3   OH273147   3.944   1.144  15.133  0.2300 -0.1834 -0.2602
17219TIP3    H173148   3.890   1.170  15.058 -1.3860 -1.3835  0.4315
17219TIP3    H273149   3.881   1.123  15.202  1.6592  0.4535  1.3220
17220TIP3   OH273150   2.246   1.097   3.890  0.5757  0.2909  0.4638
17220TIP3    H173151   2.262   1.185   3.925  1.6461  0.7373 -1.0654
17220TIP3    H273152   2.188   1.111   3.816  0.3017 -0.3742  0.5465
17221TIP3   OH273153   2.931   3.479  13.155 -0.3306  0.6107  0.5103
17221TIP3    H173154   2.969   3.566  13.142  0.2856  0.3195  0.3110
17221TIP3    H273155   2.932   3.439  13.068  0.5933 -0.0672  0.8127
17222TIP3   OH273156   3.021   4.543   6.466 -0.1954 -0.0985 -0.5877
17222TIP3    H173157   3.107   4.501   6.469  0.2588  0.8528  0.3380
17222TIP3    H273158   3.027   4.606   6.394 -0.0692  0.0733 -0.4260
17223TIP3   OH273159   5.898   2.720  11.962 -0.5126  0.5470 -0.1572
17223TIP3    H173160   5.811   2.740  11.928  0.4736  2.3603 -1.8071
17223TIP3    H273161   5.914   2.630  11.934 -0.9179  1.0085 -1.9880
17224TIP3   OH273162   0.979   4.954   2.705  0.1350  0.0540 -0.2165
17224TIP3    H173163   1.015   5.025   2.758 -0.5670  0.2489  0.0119
17224TIP3    H273164   0.888   4.946   2.734  0.2165 -0.9786 -0.2051
17225TIP3   OH273165   1.498   3.494  13.733 -0.3006  0.6338 -0.1575
17225TIP3    H173166   1.579   3.472  13.688 -0.3765  1.4360 -0.7280
17225TIP3    H273167   1.523   3.562  13.796 -0.4075  0.3848  0.1531
17226TIP3   OH273168   0.097   0.807   3.121 -0.3535  0.0319  0.0539
17226TIP3    H173169   0.069   0.754   3.196 -2.8453 -0.9330 -1.4316
17226TIP3    H273170   0.053   0.891   3.134 -0.6010 -0.0579 -0.1931
17227TIP3   OH273171   0.032   5.704   0.171  0.0170  0.3297  0.6319
17227TIP3    H173172   0.044   5.682   0.078  0.0427 -0.3159  0.7841
17227TIP3    H273173   0.007   5.621   0.212  1.1650  0.3428  1.4099
17228TIP3   OH273174   5.669   6.690  12.078 -0.1817  0.2708  0.3923
17228TIP3    H173175   5.581   6.655  12.091 -0.0742 -0.2006 -0.1077
17228TIP3    H273176   5.710   6.629  12.017 -0.5524  2.1494 -1.8756
17229TIP3   OH273177   1.502   1.177   3.222  0.1924  0.1440 -0.0616
17229TIP3    H173178   1.408   1.190   3.210  0.4489  0.7473 -1.7520
17229TIP3    H273179   1.541   1.263   3.206  1.0842 -0.2764 -0.2653
17230TIP3   OH273180   2.069   3.961   5.083  0.4471 -0.5799  1.1624
17230TIP3    H173181   2.059   4.055   5.097  2.0043 -0.4031  1.3127
17230TIP3    H273182   2.156   3.952   5.044 -0.1013 -1.8748  0.1770
17231TIP3   OH273183   0.139   2.938  16.155  0.4989  0.2506 -0.1459
17231TIP3    H173184   0.146   2.986  16.237  0.7175 -0.5362  0.3058
17231TIP3    H273185   0.128   2.846  16.182  3.0751 -0.3700 -0.9923
17232TIP3   OH273186   0.746   0.284   4.365  0.3814 -0.4077 -0.7603
17232TIP3    H173187   0.719   0.203   4.409  0.3779  0.0297  0.0673
17232TIP3    H273188   0.676   0.346   4.385  1.4117  0.4205  0.4643
17233TIP3   OH273189   0.573   0.092   5.862 -0.1079 -0.1663 -0.3670
17233TIP3    H173190   0.563   0.056   5.774  1.0862  1.6823 -1.3379
17233TIP3    H273191   0.667   0.084   5.881 -0.2575 -0.0087  0.5089
17234TIP3   OH273192   1.628   3.060   4.542  0.6030  0.2958  0.1361
17234TIP3    H173193   1.681   2.981   4.526 -0.2876 -0.1353 -0.7788
17234TIP3    H273194   1.573   3.036   4.618 -1.7733 -1.1341 -1.8681
17235TIP3   OH273195   0.089   3.230   0.994  0.3962  0.0492  0.0871
17235TIP3    H173196   0.153   3.251   1.062 -0.4208 -0.3460  0.9989
17235TIP3    H273197   0.054   3.145   1.019  0.3662 -0.2914 -1.0602
17236TIP3   OH273198   4.010   1.967   4.176 -0.0982 -0.1790  0.3748
17236TIP3    H173199   4.033   2.043   4.122  0.1330  0.7770  1.7513
17236TIP3    H273200   4.060   1.895   4.139 -0.0490  0.4104 -0.7510
17237TIP3   OH273201   1.541   2.607   0.553 -0.5451  0.6007 -0.1318
17237TIP3    H173202   1.571   2.694   0.527 -1.0024  0.6404 -0.5495
17237TIP3    H273203   1.581   2.592   0.638  0.1512  0.9024 -0.4025
17238TIP3   OH273204   1.106   4.716  14.471  0.4585 -0.5668 -0.0399
17238TIP3    H173205   1.142   4.798  14.504 -0.8687  0.8038 -1.7821
17238TIP3    H273206   1.025   4.742  14.426 -1.7402 -3.2274  2.0420
17239TIP3   OH273207   1.814   3.275   4.477 -0.1124 -0.3197  0.2637
17239TIP3    H173208   1.753   3.214   4.517 -0.5601 -0.9889 -1.3664
17239TIP3    H273209   1.804   3.356   4.527  1.2652 -1.8045  3.1695
17240TIP3   OH273210   1.416   0.640  16.392  0.3513 -0.3626 -0.2071
17240TIP3    H173211   1.489   0.640  16.329 -0.7009 -1.8228 -1.4788
17240TIP3    H273212   1.368   0.720  16.372 -0.3258 -1.1222 -1.7187
17241TIP3   OH273213   0.497   6.221  13.003 -0.2344 -0.0575  0.0317
17241TIP3    H173214   0.558   6.179  13.063  0.5342 -1.0713 -1.4102
17241TIP3    H273215   0.495   6.164  12.926 -0.3852  1.7391 -1.3611
17242TIP3   OH273216   2.886   5.030  12.847 -0.1529  0.5343  0.2683
17242TIP3    H173217   2.977   5.039  12.817  0.5134 -1.8338  1.3289
17242TIP3    H273218   2.838   5.098  12.799  1.4991 -0.5216 -3.2520
17243TIP3   OH273219   1.644   3.666   3.880  0.1653  0.3682 -0.6230
17243TIP3    H173220   1.651   3.583   3.833  3.4973  0.6181 -0.7987
17243TIP3    H273221   1.660   3.643   3.972 -1.1591  0.5803 -0.3106
17244TIP3   OH273222   2.805   0.211   6.613 -0.1768  0.7467 -0.0494
17244TIP3    H173223   2.869   0.246   6.551  0.6556 -0.4155  0.1221
17244TIP3    H273224   2.847   0.132   6.649 -0.9138  1.0289  1.4975
17245TIP3   OH273225   5.814   0.460  12.337  0.1982 -0.0124  0.0164
17245TIP3    H173226   5.771   0.445  12.253  1.1041  0.0748 -0.4847
17245TIP3    H273227   5.773   0.398  12.397 -2.8920  2.2227  0.4371
17246TIP3   OH273228   0.408   4.219  15.792 -0.1043 -0.0270 -0.1763
17246TIP3    H173229   0.464   4.212  15.869 -1.0550 -0.7225  0.4635
17246TIP3    H273230   0.393   4.129  15.765  0.2883  0.2106 -1.2411
17247TIP3   OH273231   2.678   6.074   1.011 -0.5433  0.3475 -0.0733
17247TIP3    H173232   2.663   6.138   1.081  0.7096  0.6378 -0.0412
17247TIP3    H273233   2.643   6.116   0.933 -0.1143  0.9138  0.0281
17248TIP3   OH273234   5.009   0.629   5.061  0.1860 -0.1175  0.7290
17248TIP3    H173235   5.042   0.683   4.989 -1.1834  0.1861  0.3083
17248TIP3    H273236   5.039   0.541   5.040 -0.1032 -0.0124 -0.1587
17249TIP3   OH273237   4.770   2.320  13.184 -0.0429  0.4509 -0.6366
17249TIP3    H173238   4.685   2.346  13.219  0.4864  0.9579  0.3434
17249TIP3    H273239   4.826   2.397  13.199  0.4930  0.2701 -1.6114
17250TIP3   OH273240   4.680   6.095  10.638 -0.1219 -0.1782 -0.0538
17250TIP3    H173241   4.718   6.133  10.718  0.6721  1.1956 -1.0328
17250TIP3    H273242   4.587   6.115  10.645 -0.0864 -0.2216  0.6194
17251TIP3   OH273243   0.074   3.878   5.181 -0.2000  0.2808 -0.0963
17251TIP3    H173244   0.091   3.971   5.169  0.3129  0.1557 -0.3744
17251TIP3    H273245   0.123   3.855   5.260 -1.4551  0.5378  0.7934
17252TIP3   OH273246   0.405   4.304   1.814  0.3611  0.5999 -0.5943
17252TIP3    H173247   0.444   4.291   1.727 -0.3187  0.0929 -0.8305
17252TIP3    H273248   0.325   4.355   1.796 -0.9277 -1.3191 -0.5335
17253TIP3   OH273249   5.839   2.086  14.745  0.7618 -0.2028 -0.2577
17253TIP3    H173250   5.816   2.052  14.831 -1.3337 -1.0856 -1.1012
17253TIP3    H273251   5.935   2.089  14.745  0.7988  0.4288  2.2974
17254TIP3   OH273252   3.430   3.227   2.052 -0.5659 -0.4167 -0.2488
17254TIP3    H173253   3.434   3.234   2.148  2.3479  1.4465 -0.3886
17254TIP3    H273254   3.369   3.296   2.026 -1.0910 -0.6888  0.2289
17255TIP3   OH273255   0.359   5.414  14.551  0.6579  0.3186 -0.0156
17255TIP3    H173256   0.345   5.407  14.645  1.0836 -1.2961 -0.0389
17255TIP3    H273257   0.271   5.405  14.513  0.5749  0.1813  0.2072
17256TIP3   OH273258   2.245   0.922  13.753  0.3232  0.0998 -0.2268
17256TIP3    H173259   2.188   0.856  13.713 -0.1497  1.7492 -2.4501
17256TIP3    H273260   2.304   0.871  13.809 -1.3983 -1.9642 -0.1436
17257TIP3   OH273261   0.035   0.457   2.743  0.1133  0.0812  0.4342
17257TIP3    H173262  -0.015   0.384   2.706  0.5332 -0.8474  1.6490
17257TIP3    H273263  -0.018   0.534   2.721 -0.4086 -0.5776 -0.7526
17258TIP3   OH273264   0.960   6.244   4.000  0.1123  0.0800  0.3784
17258TIP3    H173265   0.915   6.161   3.982 -0.0216  0.1904  0.2048
17258TIP3    H273266   1.023   6.222   4.069 -1.0453  0.1825  1.5096
17259TIP3   OH273267   5.062   2.720   1.402 -0.6101 -0.1289 -0.0374
17259TIP3    H173268   5.132   2.684   1.347 -1.2313 -1.6702  0.1235
17259TIP3    H273269   5.055   2.658   1.474 -0.6110  1.2403  1.1787
17260TIP3   OH273270   2.257   0.956   1.988  0.1491 -0.6389 -0.2269
17260TIP3    H173271   2.163   0.969   2.004 -0.0851 -0.3560 -1.6870
17260TIP3    H273272   2.298   1.034   2.024 -0.5043  0.7154 -2.2936
17261TIP3   OH273273   0.901   4.746  15.082 -0.4168  0.2855  0.3717
17261TIP3    H173274   0.906   4.739  15.177 -0.0627 -0.3856  0.3127
17261TIP3    H273275   0.808   4.746  15.062 -0.5140 -1.6742  0.5967
17262TIP3   OH273276   2.815   6.563  13.925 -0.2384  0.4084 -0.1773
17262TIP3    H173277   2.899   6.596  13.893 -0.4026  1.2751  0.2390
17262TIP3    H273278   2.790   6.625  13.994  0.6637 -1.9881  2.5242
17263TIP3   OH273279   5.850   2.693   3.605  0.1836  0.4452  0.1067
17263TIP3    H173280   5.839   2.664   3.515  1.1120  0.6725 -0.0901
17263TIP3    H273281   5.922   2.641   3.639  0.3868  0.9438  0.4533
17264TIP3   OH273282   5.984   4.649  15.868  0.0902  0.0058  0.1109
17264TIP3    H173283   5.912   4.618  15.923  1.2239 -1.4932  0.8229
17264TIP3    H273284   6.061   4.601  15.899  0.8575 -0.7222 -2.5755
17265TIP3   OH273285   2.132   4.643   1.275  0.2277  0.1577 -0.3582
17265TIP3    H173286   2.156   4.733   1.298  3.1197 -0.9655  1.5536
17265TIP3    H273287   2.170   4.629   1.189  2.7155 -0.1463  0.7092
17266TIP3   OH273288   1.995   2.855   3.115  0.7190 -0.0343  0.6080
17266TIP3    H173289   1.935   2.917   3.074  0.2802 -0.2020  0.9874
17266TIP3    H273290   1.955   2.836   3.200 -0.6040 -2.8421 -0.4875
17267TIP3   OH273291   0.524   0.079  15.999 -0.0999  0.4424  0.2579
17267TIP3    H173292   0.476   0.063  15.917 -0.5555 -0.1576  0.6317
17267TIP3    H273293   0.588   0.009  16.003 -0.3521  0.2291  0.6126
17268TIP3   OH273294   1.999   0.149  17.031  0.7222 -0.2732  0.3841
17268TIP3    H173295   2.076   0.197  17.000  0.5632  0.6024  1.2833
17268TIP3    H273296   1.986   0.080  16.966  1.8124  0.0295 -0.1833
17269TIP3   OH273297   2.411   0.365  14.503  0.2629  0.1986  0.7686
17269TIP3    H173298   2.402   0.270  14.513 -0.3169  0.2956  1.2388
17269TIP3    H273299   2.467   0.392  14.576  0.7765  0.1655  0.3890
17270TIP3   OH273300   5.966   1.302   0.127  0.5337  0.3104  0.0134
17270TIP3    H173301   5.923   1.275   0.208 -0.7267  0.7537 -0.4873
17270TIP3    H273302   5.985   1.221   0.081 -0.5375  0.1243 -0.1306
17271TIP3   OH273303   3.556   4.853  11.368  0.7781  0.1554 -0.0254
17271TIP3    H173304   3.489   4.911  11.403 -1.3813 -1.7662 -0.7099
17271TIP3    H273305   3.584   4.894  11.286 -2.2058 -0.6083 -1.5724
17272TIP3   OH273306   3.260   0.391  15.420 -0.4842  0.3025  0.5982
17272TIP3    H173307   3.348   0.352  15.419 -0.1196  0.9791  2.4790
17272TIP3    H273308   3.201   0.319  15.398  0.6269  0.3368 -3.2446
17273TIP3   OH273309   4.511   0.597  14.135 -0.0570 -0.1628  0.2309
17273TIP3    H173310   4.482   0.687  14.151 -0.4233  0.0122 -1.3165
17273TIP3    H273311   4.441   0.558  14.084  0.7705 -0.8812 -0.3711
17274TIP3   OH273312   0.694   6.633   4.702  0.2653 -0.4602  0.3979
17274TIP3    H173313   0.743   6.556   4.729  0.6881 -1.1956 -2.1459
17274TIP3    H273314   0.637   6.602   4.631 -1.5390  1.0481  1.0881
17275TIP3   OH273315   0.522   1.354  13.035 -0.3317 -0.2932 -0.0358
17275TIP3    H173316   0.523   1.264  13.067  0.1533 -0.2788  0.0030
17275TIP3    H273317   0.553   1.348  12.945  1.0830 -0.0184  0.4048
17276TIP3   OH273318   3.331   5.858   4.811 -0.4696  0.0317  0.5533
17276TIP3    H173319   3.264   5.791   4.818 -1.1002  0.5912 -0.0260
17276TIP3    H273320   3.301   5.915   4.741 -0.7453  1.8016  2.0290
17277TIP3   OH273321   3.881   0.548   3.118 -0.7807  0.1343 -0.1839
17277TIP3    H173322   3.939   0.481   3.155 -2.6710 -1.0035  0.8517
17277TIP3    H273323   3.936   0.626   3.112  1.0721 -1.1028 -0.0043
17278TIP3   OH273324   2.276   6.641  11.080 -0.2105 -0.2153 -0.0438
17278TIP3    H173325   2.365   6.628  11.113 -0.0271  0.7859 -0.1023
17278TIP3    H273326   2.288   6.679  10.993 -0.6676  0.9453  0.3689
17279TIP3   OH273327   2.011   0.789  16.822 -0.6545 -0.7404 -0.0915
17279TIP3    H173328   2.007   0.707  16.871 -0.2267 -1.0756 -0.6072
17279TIP3    H273329   2.029   0.762  16.732 -2.1513 -0.1942 -0.5944
17280TIP3   OH273330   4.626   2.291   0.925  0.4955 -0.4602 -0.0300
17280TIP3    H173331   4.650   2.341   0.847  1.3679  0.6361  0.8939
17280TIP3    H273332   4.704   2.240   0.946  0.7113  0.1887  0.8082
17281TIP3   OH273333   3.425   2.704   5.979  0.0631 -0.0338  0.7357
17281TIP3    H173334   3.347   2.679   5.931 -0.3672  0.1457  1.3386
17281TIP3    H273335   3.453   2.625   6.025 -1.2188  0.5107  2.5319
17282TIP3   OH273336   2.936   5.675   3.754  0.1547  0.1281  0.4126
17282TIP3    H173337   2.916   5.588   3.721 -2.0604  0.8272 -0.2800
17282TIP3    H273338   2.854   5.724   3.745  0.9521  1.9082  2.0355
17283TIP3   OH273339   3.593   6.192   2.146  0.2533 -0.1102 -0.2355
17283TIP3    H173340   3.534   6.264   2.122 -0.5959 -1.2808 -1.8425
17283TIP3    H273341   3.680   6.223   2.120  0.3366  1.3777  1.5762
17284TIP3   OH273342   1.292   1.875  12.458  0.0218  0.6220 -0.4270
17284TIP3    H173343   1.247   1.900  12.377  0.6837 -0.0900 -1.0380
17284TIP3    H273344   1.251   1.793  12.484 -1.3963  1.6978  0.9699
17285TIP3   OH273345   2.935   0.163  12.164 -0.6095 -0.5089  0.2842
17285TIP3    H173346   2.880   0.228  12.121  1.4049  0.8221 -0.4346
17285TIP3    H273347   2.951   0.199  12.251  2.3445  1.2805 -0.8335
17286TIP3   OH273348   3.858   0.907  14.404 -0.0149  0.2751  0.0033
17286TIP3    H173349   3.882   0.952  14.323  0.0113  0.5824  0.1783
17286TIP3    H273350   3.785   0.851  14.380 -0.1768  0.5632 -0.1766
17287TIP3   OH273351   4.361   5.902  12.609  0.6134  0.0876  0.2857
17287TIP3    H173352   4.440   5.954  12.599  1.3413 -0.7771  1.3295
17287TIP3    H273353   4.360   5.876  12.701 -1.0017  0.2544  0.3439
17288TIP3   OH273354   6.015   1.559  10.510 -0.3083 -0.1815  0.3803
17288TIP3    H173355   6.054   1.646  10.517 -1.8980  0.5565  0.2957
17288TIP3    H273356   5.921   1.574  10.503 -0.5167 -1.8127 -1.3944
17289TIP3   OH273357   0.696   0.479   3.748 -0.0169  0.0365 -0.6363
17289TIP3    H173358   0.764   0.494   3.813 -1.6928  1.1888  0.9365
17289TIP3    H273359   0.741   0.434   3.676  2.4409  0.9903  0.2059
17290TIP3   OH273360   5.120   6.203  15.510  0.3684 -0.1947 -0.2158
17290TIP3    H173361   5.215   6.207  15.502  0.5736 -1.1719  1.1846
17290TIP3    H273362   5.101   6.255  15.588 -0.1979 -0.2596 -0.3079
17291TIP3   OH273363   3.275   6.704   1.676  0.0070 -0.5831  0.2455
17291TIP3    H173364   3.246   6.789   1.710 -0.2714 -0.8476  0.6753
17291TIP3    H273365   3.292   6.651   1.754  1.3698 -0.5435  0.0139
17292TIP3   OH273366   4.099   0.271   5.214 -0.4062 -0.6728  0.4143
17292TIP3    H173367   4.066   0.360   5.220 -0.5355 -0.6395 -0.6593
17292TIP3    H273368   4.108   0.243   5.306  1.6569  1.1653  0.8731
17293TIP3   OH273369   2.834   3.038  15.737  0.0939  0.5939  0.4431
17293TIP3    H173370   2.753   3.027  15.787 -1.3978 -0.0213 -1.9901
17293TIP3    H273371   2.865   2.949  15.721 -0.6331  0.6521 -1.5003
17294TIP3   OH273372   4.930   2.010  15.176 -0.4396 -0.3864  0.4172
17294TIP3    H173373   5.024   2.015  15.193  0.6135  0.2714 -4.2228
17294TIP3    H273374   4.902   2.101  15.166 -1.0219 -0.6401 -0.4309
17295TIP3   OH273375   5.274   6.258   3.808  0.3438 -0.2961  0.2677
17295TIP3    H173376   5.217   6.223   3.740 -0.4228  0.1933  0.6471
17295TIP3    H273377   5.232   6.233   3.890  0.3419  0.5979  0.5505
17296TIP3   OH273378   6.603   3.758  12.892  0.3030 -0.2448  0.6625
17296TIP3    H173379   6.576   3.830  12.948 -1.5169 -0.7292  0.4621
17296TIP3    H273380   6.624   3.799  12.808  0.7094  0.2034  0.9830
17297TIP3   OH273381   4.947   4.189  16.447  0.4339 -0.0806  0.5246
17297TIP3    H173382   4.869   4.145  16.414 -1.0989  1.3963  1.9632
17297TIP3    H273383   4.926   4.283  16.442  1.2739  0.2936  2.8022
17298TIP3   OH273384   5.679   2.999  13.875  0.4568  0.1180 -0.0948
17298TIP3    H173385   5.590   3.006  13.910  0.4543  2.1303 -0.3923
17298TIP3    H273386   5.735   3.021  13.949  0.5665  1.6124 -0.5949
17299TIP3   OH273387   3.753   0.207   3.597 -0.4370  0.1981  0.7495
17299TIP3    H173388   3.777   0.293   3.562  0.7749 -0.3707  0.1078
17299TIP3    H273389   3.694   0.170   3.531  0.6346 -0.2577  0.0283
17300TIP3   OH273390   0.162   0.377   4.589 -0.3491 -0.0276 -0.0084
17300TIP3    H173391   0.215   0.456   4.597  0.9765 -0.6931 -1.6801
17300TIP3    H273392   0.204   0.314   4.647 -0.3381 -0.0377 -0.0274
17301TIP3   OH273393   6.336   4.553   2.826  0.1881  0.3866 -0.2165
17301TIP3    H173394   6.363   4.632   2.872  3.3686 -0.5821 -0.1980
17301TIP3    H273395   6.379   4.557   2.741  0.0565 -1.0935 -0.3933
17302TIP3   OH273396   1.394   4.368  14.493  0.9207 -0.0232  0.5786
17302TIP3    H173397   1.424   4.363  14.584  2.6954  0.0611  0.0340
17302TIP3    H273398   1.405   4.461  14.470  2.5507 -0.4143 -0.3537
17303TIP3   OH273399   4.246   3.254  10.726 -0.5375 -0.5007  0.8882
17303TIP3    H173400   4.338   3.228  10.720  0.2397  1.8093  1.6820
17303TIP3    H273401   4.231   3.306  10.648 -0.5139  0.8516  1.7474
17304TIP3   OH273402   2.370   4.165  11.646 -0.2400 -0.1180 -0.4070
17304TIP3    H173403   2.393   4.234  11.707 -1.6555  0.5247 -0.5531
17304TIP3    H273404   2.374   4.084  11.698 -0.7683  0.3428  0.3773
17305TIP3   OH273405   1.079   6.726   5.028 -0.0868 -0.4866  0.3904
17305TIP3    H173406   1.043   6.729   5.117  1.1881  0.2457  0.9203
17305TIP3    H273407   1.009   6.691   4.974 -0.7805 -1.2463  1.7447
17306TIP3   OH273408   2.668   3.203   4.078 -0.2778 -0.1313 -0.4256
17306TIP3    H173409   2.586   3.154   4.065 -0.0622 -0.3752 -0.8949
17306TIP3    H273410   2.734   3.149   4.035 -0.0032  0.4846 -0.7796
17307TIP3   OH273411   5.847   3.499  11.359 -0.0010  0.3455 -0.2014
17307TIP3    H173412   5.789   3.499  11.283 -0.7842  2.9398  0.2801
17307TIP3    H273413   5.837   3.412  11.397  0.3703 -1.0138 -2.9816
17308TIP3   OH273414   2.589   3.399   0.285  0.4161  0.5219  0.0366
17308TIP3    H173415   2.529   3.347   0.233  0.2293  0.6993  0.0740
17308TIP3    H273416   2.610   3.344   0.360  1.2677 -0.0364 -0.5853
17309TIP3   OH273417   6.579   0.079  14.907 -0.3228 -0.0145  0.4338
17309TIP3    H173418   6.484   0.077  14.897 -0.3011 -1.4374  0.3218
17309TIP3    H273419   6.595   0.046  14.996  0.0876 -0.4099  0.2178
17310TIP3   OH273420   4.186   2.464   5.301  0.3722  0.0566  0.4001
17310TIP3    H173421   4.184   2.494   5.210  0.1198 -0.1283  0.3438
17310TIP3    H273422   4.095   2.464   5.329  0.2985 -1.1830  0.2168
17311TIP3   OH273423   6.734   5.793  13.836  0.3732 -0.1938  0.0726
17311TIP3    H173424   6.771   5.881  13.844 -0.5504  0.2796 -0.6767
17311TIP3    H273425   6.718   5.782  13.743 -2.3936  0.0705  0.4511
17312TIP3   OH273426   2.881   4.674   5.039  0.0545 -0.0499 -0.0303
17312TIP3    H173427   2.882   4.671   4.943  1.1941  0.9629 -0.0639
17312TIP3    H273428   2.823   4.747   5.060 -1.6955 -1.3973  0.1367
17313TIP3   OH273429   3.351   2.142  13.121 -0.3049  0.2572 -0.2389
17313TIP3    H173430   3.287   2.211  13.103 -0.3081  0.0432 -1.1310
17313TIP3    H273431   3.316   2.065  13.075  1.9886  0.8504 -3.3334
17314TIP3   OH273432   5.947   0.218   5.075  0.3501 -0.4660  0.5162
17314TIP3    H173433   6.039   0.245   5.081  1.1338 -2.6969 -0.4921
17314TIP3    H273434   5.907   0.282   5.017  1.2390  0.5386  0.9649
17315TIP3   OH273435   2.160   1.838  12.427  0.3531  0.2043  0.6947
17315TIP3    H173436   2.138   1.762  12.480 -2.6606 -2.4637 -3.7143
17315TIP3    H273437   2.217   1.891  12.483 -0.9971 -2.9879  5.7055
17316TIP3   OH273438   4.011   5.651   1.904 -0.5716 -0.2966  0.6343
17316TIP3    H173439   4.028   5.623   1.994 -0.8272 -2.0897  0.1591
17316TIP3    H273440   3.918   5.671   1.902 -0.3318  0.9373  1.0480
17317TIP3   OH273441   3.143   4.856  11.164 -0.1365 -0.1944  0.4057
17317TIP3    H173442   3.151   4.912  11.086 -0.0286  0.3497  0.7969
17317TIP3    H273443   3.227   4.810  11.169 -0.8409 -1.6838 -0.8725
17318TIP3   OH273444   1.448   2.785  14.315  0.0365 -0.8545 -0.1917
17318TIP3    H173445   1.543   2.784  14.305  0.0503 -1.5305  0.0265
17318TIP3    H273446   1.418   2.851  14.252  0.5000 -1.9478 -1.5977
17319TIP3   OH273447   2.624   1.028  17.088  0.2385 -0.1352 -0.1199
17319TIP3    H173448   2.607   1.082  17.010 -2.8157 -2.1902 -1.0883
17319TIP3    H273449   2.549   1.044  17.145  0.5847 -1.3967  0.7307
17320TIP3   OH273450   5.212   5.165  16.884  0.7960  0.0913  0.1335
17320TIP3    H173451   5.145   5.201  16.826  0.8323  1.0003  0.6279
17320TIP3    H273452   5.229   5.236  16.946 -1.7867 -1.9875  3.5283
17321TIP3   OH273453   5.887   3.389  11.746 -0.1962 -0.1616  0.1344
17321TIP3    H173454   5.861   3.459  11.687  1.1089 -0.2657 -0.5919
17321TIP3    H273455   5.862   3.421  11.833 -2.2707 -0.0675 -0.4322
17322TIP3   OH273456   2.192   4.076  15.316  0.4001  0.3929  0.6851
17322TIP3    H173457   2.129   4.009  15.288 -0.4809  1.1657  0.7795
17322TIP3    H273458   2.213   4.052  15.406 -0.1289  0.3989  0.8133
17323TIP3   OH273459   4.079   1.556  16.036  0.0235  0.0050  0.4359
17323TIP3    H173460   4.003   1.585  15.986  0.4177  2.0970  0.9581
17323TIP3    H273461   4.047   1.545  16.125 -0.1075 -1.2236  0.2576
17324TIP3   OH273462   2.531   2.638   3.810  0.2261  0.0155 -0.0284
17324TIP3    H173463   2.591   2.710   3.833 -1.5831  1.4328  0.4942
17324TIP3    H273464   2.507   2.600   3.894  1.9930 -1.9899 -0.3547
17325TIP3   OH273465   2.133   1.904  12.030 -0.7663 -0.0677  0.4224
17325TIP3    H173466   2.163   1.868  12.113 -1.6724 -1.5025  0.1649
17325TIP3    H273467   2.188   1.862  11.964 -2.3404 -1.6618  0.0564
17326TIP3   OH273468   2.466   5.091   1.964 -0.1516 -0.4493  0.1072
17326TIP3    H173469   2.542   5.049   2.004  0.5894 -0.5756 -1.3771
17326TIP3    H273470   2.491   5.104   1.872 -0.9903  1.6778  0.1100
17327TIP3   OH273471   4.552   4.243   1.940 -0.0880  0.1092  0.1803
17327TIP3    H173472   4.498   4.250   2.019 -1.8335  0.1763 -0.9495
17327TIP3    H273473   4.498   4.192   1.879  1.4246 -0.3891 -0.8072
17328TIP3   OH273474   0.285   4.333  11.287 -0.7207 -0.4313 -0.3900
17328TIP3    H173475   0.238   4.319  11.204 -1.2271 -0.7770 -0.0558
17328TIP3    H273476   0.290   4.245  11.326  2.4756 -0.9069 -1.5639
17329TIP3   OH273477   1.731   3.382  15.058  0.3574  0.1065  0.0507
17329TIP3    H173478   1.678   3.332  15.120  0.5823 -1.0339 -0.6444
17329TIP3    H273479   1.805   3.414  15.109 -0.1163  0.2650  0.6432
17330TIP3   OH273480   6.008   6.127   0.975 -0.3934  0.8950 -0.5037
17330TIP3    H173481   6.017   6.035   1.000 -1.8268  1.0432  0.6926
17330TIP3    H273482   6.097   6.156   0.956  0.2182 -0.4281  0.2613
17331TIP3   OH273483   0.192   3.250   4.096  0.0478 -0.4254  0.1588
17331TIP3    H173484   0.286   3.231   4.100 -0.1298 -1.3181  0.3373
17331TIP3    H273485   0.157   3.213   4.177 -0.3351  0.6794  0.5122
17332TIP3   OH273486   5.126   4.564   0.983 -0.2078  0.3905 -0.4228
17332TIP3    H173487   5.097   4.488   0.933 -0.6596 -0.6768  1.3699
17332TIP3    H273488   5.057   4.578   1.048 -0.4081  2.7042 -1.0401
17333TIP3   OH273489   1.329   4.646   0.242  0.0254  0.7020  0.3393
17333TIP3    H173490   1.354   4.735   0.216 -1.3052  1.4668  1.5656
17333TIP3    H273491   1.400   4.617   0.300  0.4701  0.9264 -0.0780
17334TIP3   OH273492   2.365   1.419  12.595  0.0840  0.1546 -0.6572
17334TIP3    H173493   2.291   1.469  12.559 -0.8361 -1.2638 -0.8140
17334TIP3    H273494   2.363   1.440  12.689  0.1038  0.8736 -0.8073
17335TIP3   OH273495   5.415   6.325  15.228 -0.0247 -0.0110  0.2901
17335TIP3    H173496   5.411   6.287  15.140 -1.8926  1.1683 -0.2137
17335TIP3    H273497   5.331   6.371  15.237  1.2741  2.2742  1.5782
17336TIP3   OH273498   3.753   4.455   0.786  0.5699  0.4736 -0.5983
17336TIP3    H173499   3.678   4.404   0.817 -0.1507  1.5595 -0.4821
17336TIP3    H273500   3.825   4.430   0.844 -0.7118  2.3813  2.0207
17337TIP3   OH273501   4.851   3.323  16.838 -0.1993  0.5495  0.6963
17337TIP3    H173502   4.929   3.275  16.809 -0.5455  0.4601 -0.1121
17337TIP3    H273503   4.878   3.364  16.920  0.0529 -1.1694  1.5300
17338TIP3   OH273504   3.421   5.587   6.828  0.2831 -0.1348 -0.4863
17338TIP3    H173505   3.498   5.636   6.857  0.9467 -1.1996 -0.3712
17338TIP3    H273506   3.358   5.654   6.801  0.1847  0.8858  1.9590
17339TIP3   OH273507   5.051   1.210  16.844  0.6699  0.4179  0.2325
17339TIP3    H173508   5.102   1.286  16.873  1.9725 -0.6414  0.8709
17339TIP3    H273509   5.082   1.139  16.900 -0.7402 -0.5190 -0.1436
17340TIP3   OH273510   3.212   0.063  14.156  0.2836 -0.2726  0.3702
17340TIP3    H173511   3.173   0.115  14.085  0.4726 -0.0196  0.4525
17340TIP3    H273512   3.286   0.018  14.114  0.2572 -0.3008  0.3534
17341TIP3   OH273513   1.890   2.410  12.413 -0.2945 -0.5813  0.0421
17341TIP3    H173514   1.874   2.409  12.507 -0.5030 -1.8475  0.0105
17341TIP3    H273515   1.909   2.502  12.393  0.8852 -0.4585  1.5085
17342TIP3   OH273516   2.760   2.838  16.570  0.7605  0.2776  0.0723
17342TIP3    H173517   2.823   2.799  16.510  1.0405  0.5100  0.2095
17342TIP3    H273518   2.814   2.892  16.629  0.3372  1.2318 -0.4052
17343TIP3   OH273519   3.122   2.966   4.857 -0.3976 -0.5310  0.0320
17343TIP3    H173520   3.187   2.912   4.813  0.7178  1.2038 -0.5370
17343TIP3    H273521   3.153   2.973   4.947 -0.2379 -0.3818 -0.0343
17344TIP3   OH273522   5.588   1.454   1.676  0.0095 -0.2864 -0.3297
17344TIP3    H173523   5.540   1.493   1.602 -0.5377  1.0736  0.6952
17344TIP3    H273524   5.661   1.408   1.635  0.0022  0.8360 -1.6916
17345TIP3   OH273525   6.162   6.224   3.757  0.1723  0.2767  0.3981
17345TIP3    H173526   6.077   6.242   3.797  0.5069  0.5195  1.0082
17345TIP3    H273527   6.223   6.225   3.830  0.3799 -2.2116  0.3460
17346TIP3   OH273528   4.107   3.877   1.963 -0.0698 -0.6272 -0.4974
17346TIP3    H173529   4.014   3.876   1.984  0.1099 -0.5265  0.3606
17346TIP3    H273530   4.117   3.946   1.899 -0.6730 -1.0313 -1.0385
17347TIP3   OH273531   1.384   5.619   2.169  0.3145 -0.0918  0.0551
17347TIP3    H173532   1.398   5.573   2.086  0.3918 -0.5976  0.3410
17347TIP3    H273533   1.458   5.592   2.223  1.4084  1.8579 -0.3861
17348TIP3   OH273534   6.274   4.111  12.003 -0.3403 -0.1839 -0.0121
17348TIP3    H173535   6.197   4.074  12.045  0.4063  0.5267  2.1518
17348TIP3    H273536   6.248   4.201  11.980 -0.3359 -0.1196  0.2266
17349TIP3   OH273537   0.106   5.826   4.102  0.6174  0.4478 -0.0238
17349TIP3    H173538   0.190   5.789   4.078  0.1877  0.3038 -1.3531
17349TIP3    H273539   0.046   5.796   4.034 -0.2528  1.5588  0.2259
17350TIP3   OH273540   1.414   3.973  11.544  0.6773  0.0073  0.2936
17350TIP3    H173541   1.403   3.886  11.581  0.4297 -0.1308 -0.1052
17350TIP3    H273542   1.370   4.032  11.605 -1.6141 -0.4339 -0.8396
17351TIP3   OH273543   5.278   2.550   2.617 -0.0920  0.3476  0.0505
17351TIP3    H173544   5.252   2.609   2.546  2.4991  2.0112  0.3503
17351TIP3    H273545   5.331   2.483   2.573  2.2611  1.8647  0.3607
17352TIP3   OH273546   3.691   2.655   5.870  0.0887 -0.6231  0.2213
17352TIP3    H173547   3.596   2.652   5.868  0.0757  0.1990 -0.8249
17352TIP3    H273548   3.712   2.668   5.963 -0.8030 -1.0262  0.4876
17353TIP3   OH273549   6.548   4.669  16.243  0.7492  0.2207 -0.4370
17353TIP3    H173550   6.592   4.708  16.167  0.1036 -0.7385 -1.3245
17353TIP3    H273551   6.572   4.577  16.241  0.1452  0.0404  0.1112
17354TIP3   OH273552   6.355   6.489  13.637  0.2170  0.1509 -0.0297
17354TIP3    H173553   6.278   6.453  13.594 -0.4199  1.7750 -0.2899
17354TIP3    H273554   6.429   6.456  13.585 -0.4785  1.2307 -1.8068
17355TIP3   OH273555   1.212   1.273  12.546 -0.1224  0.5226  0.8026
17355TIP3    H173556   1.278   1.342  12.554  0.9468 -0.1882 -1.1968
17355TIP3    H273557   1.231   1.213  12.619  0.4107  1.1257  1.1743
17356TIP3   OH273558   5.883   6.031   0.634 -0.6211  0.0529 -0.2495
17356TIP3    H173559   5.958   5.981   0.667  0.5959  1.1166 -1.2790
17356TIP3    H273560   5.871   6.101   0.699  0.3712  0.8540 -0.8942
17357TIP3   OH273561   4.406   1.238  12.536  0.0669 -0.1705 -0.0988
17357TIP3    H173562   4.331   1.220  12.592  0.1328  0.8640  0.3428
17357TIP3    H273563   4.480   1.197  12.582 -0.1582 -0.8954 -0.3644
17358TIP3   OH273564   1.041   1.707  15.042  0.1976 -0.5020 -0.4677
17358TIP3    H173565   0.951   1.713  15.010 -0.0307 -1.6198 -0.0596
17358TIP3    H273566   1.033   1.711  15.137  0.4329 -2.1186 -0.3639
17359TIP3   OH273567   5.678   4.578   3.498 -1.1257 -0.0481 -0.0604
17359TIP3    H173568   5.723   4.647   3.450 -0.9678  0.9256  1.4021
17359TIP3    H273569   5.727   4.498   3.478 -0.8490  0.3914 -1.1841
17360TIP3   OH273570   0.340   4.814  10.359 -0.5729 -0.2157  0.3563
17360TIP3    H173571   0.354   4.736  10.306 -1.1692 -1.8078  2.4127
17360TIP3    H273572   0.403   4.807  10.430  0.1333  1.7969  0.0004
17361TIP3   OH273573   5.199   2.124  15.713  0.9730 -0.1928 -0.0299
17361TIP3    H173574   5.232   2.167  15.634  1.2752  0.9182  0.6720
17361TIP3    H273575   5.255   2.156  15.783  0.5147 -0.9183  0.6880
17362TIP3   OH273576   4.377   2.461   4.368  0.5375  0.0926  0.4291
17362TIP3    H173577   4.457   2.507   4.345  0.7496 -0.6117 -0.2689
17362TIP3    H273578   4.405   2.387   4.421  0.2571  0.3852  0.9961
17363TIP3   OH273579   3.581   1.439  16.559 -0.6275 -0.1428  0.0028
17363TIP3    H173580   3.599   1.463  16.650  0.0494 -2.9453  0.6803
17363TIP3    H273581   3.528   1.512  16.526 -1.2140  0.7922  2.7273
17364TIP3   OH273582   4.754   5.023   2.193 -0.3516  0.3245  0.0515
17364TIP3    H173583   4.744   4.970   2.272 -1.4237 -0.0779 -0.3302
17364TIP3    H273584   4.706   4.975   2.126 -1.5792  1.8847 -0.2586
17365TIP3   OH273585   5.207   6.571   4.371  0.2040  0.0476  0.0627
17365TIP3    H173586   5.168   6.653   4.340  0.6951 -0.2921 -1.5748
17365TIP3    H273587   5.157   6.549   4.449 -0.3239  1.6002  0.2001
17366TIP3   OH273588   2.844   0.727  16.417 -0.4881 -0.0698 -0.5118
17366TIP3    H173589   2.925   0.701  16.373 -0.6713 -0.3699 -0.6762
17366TIP3    H273590   2.809   0.645  16.452  0.5619  0.3705  1.7474
17367TIP3   OH273591   3.303   4.070   2.174 -0.1026  0.6763 -0.1010
17367TIP3    H173592   3.313   4.148   2.228  0.5534 -0.2464  1.1419
17367TIP3    H273593   3.305   4.103   2.084 -1.2667  2.2453  0.4036
17368TIP3   OH273594   3.792   3.103   0.381 -0.4734 -0.1633  0.4593
17368TIP3    H173595   3.712   3.114   0.432 -0.8433  0.8075 -0.2970
17368TIP3    H273596   3.763   3.069   0.297 -0.1879  0.7874 -0.0480
17369TIP3   OH273597   2.973   3.227   0.801 -0.8182 -0.1722  0.0785
17369TIP3    H173598   2.944   3.316   0.822 -1.8859 -0.8727  1.7255
17369TIP3    H273599   3.051   3.214   0.855 -0.6246 -0.2206 -0.2104
17370TIP3   OH273600   4.584   1.333  17.118 -0.1384  0.0321 -0.2454
17370TIP3    H173601   4.596   1.420  17.081  1.4696  0.5250  1.3156
17370TIP3    H273602   4.668   1.289  17.104 -0.3951 -0.7012  0.4288
17371TIP3   OH273603   5.114   6.184   3.109  0.0312  0.2859  0.2550
17371TIP3    H173604   5.026   6.221   3.099  0.3996  1.1766  0.2392
17371TIP3    H273605   5.099   6.091   3.125 -0.8366 -0.2340 -2.8453
17372TIP3   OH273606   4.562   4.924  13.735 -0.0119 -0.3436  0.7085
17372TIP3    H173607   4.549   4.999  13.677 -2.0729 -0.8150  0.4888
17372TIP3    H273608   4.643   4.943  13.781  0.4286  1.1771 -0.6087
17373TIP3   OH273609   5.266   1.083   6.167  0.3372  0.1684  0.2539
17373TIP3    H173610   5.247   1.003   6.117 -1.2541  1.1736 -0.8590
17373TIP3    H273611   5.344   1.062   6.217  1.1857 -1.4076 -1.5964
17374TIP3   OH273612   2.546   4.551  14.458  0.1484 -0.0171 -0.1473
17374TIP3    H173613   2.498   4.523  14.380 -2.2025 -0.1535  1.2909
17374TIP3    H273614   2.595   4.473  14.485 -0.0992 -0.3640 -0.6808
17375TIP3   OH273615   2.890   5.716   3.273  0.2753 -0.4059 -0.1745
17375TIP3    H173616   2.823   5.714   3.342 -1.1464 -1.4062 -1.5048
17375TIP3    H273617   2.966   5.671   3.312  0.4116  1.2289  1.5457
17376TIP3   OH273618   4.629   1.544  15.346  0.2812 -0.6284  0.3236
17376TIP3    H173619   4.686   1.619  15.328  0.5845 -0.5776  1.4317
17376TIP3    H273620   4.673   1.471  15.303 -1.5817  0.2674 -3.4913
17377TIP3   OH273621   2.585   5.961   1.793 -0.0307  0.1021  0.4265
17377TIP3    H173622   2.654   6.024   1.813  0.6067 -0.5282  0.2589
17377TIP3    H273623   2.537   5.953   1.875  1.1489 -0.7206  1.0706
17378TIP3   OH273624   6.180   4.797   5.501  0.1294 -0.6347 -0.2349
17378TIP3    H173625   6.274   4.788   5.515  0.3065  2.3033  1.2739
17378TIP3    H273626   6.140   4.748   5.572  0.5355 -1.0743 -0.3037
17379TIP3   OH273627   4.255   1.885  14.862  0.2514  0.1413 -0.5420
17379TIP3    H173628   4.162   1.905  14.852  0.2109 -0.8220 -2.5598
17379TIP3    H273629   4.297   1.971  14.864 -0.5287  0.5642 -1.4465
17380TIP3   OH273630   1.186   6.252  14.063 -0.2337  0.0566 -0.2389
17380TIP3    H173631   1.156   6.222  14.149 -2.7886  1.4421 -0.5498
17380TIP3    H273632   1.206   6.344  14.075 -1.2193  0.4273 -1.2184
17381TIP3   OH273633   4.015   1.512   4.359 -0.3932 -0.3790 -0.6820
17381TIP3    H173634   3.956   1.586   4.342  1.3879  1.2831 -0.0405
17381TIP3    H273635   4.063   1.537   4.438  1.4225 -1.4686 -1.3627
17382TIP3   OH273636   1.955   1.839   4.787  0.2201 -0.0139 -0.6389
17382TIP3    H173637   1.969   1.915   4.731  0.9635  1.8669  1.9148
17382TIP3    H273638   2.040   1.824   4.828 -0.4570 -0.8012  0.5415
17383TIP3   OH273639   6.743   2.629   0.031 -0.2914 -0.1478 -0.8078
17383TIP3    H173640   6.669   2.681   0.001 -0.7065  0.2004  0.7225
17383TIP3    H273641   6.745   2.643   0.126  0.6037 -1.6125 -0.5794
17384TIP3   OH273642   1.448   1.154  14.098 -0.5650  0.6452 -0.1318
17384TIP3    H173643   1.417   1.239  14.065 -0.1173  0.3867 -1.2521
17384TIP3    H273644   1.370   1.100  14.101 -0.6382  0.7155 -0.6556
17385TIP3   OH273645   5.939   4.875   2.619 -0.4567 -0.6587  0.0246
17385TIP3    H173646   5.949   4.851   2.711  0.8014 -2.5866 -0.5480
17385TIP3    H273647   6.025   4.859   2.581 -1.2270 -0.8962 -1.7038
17386TIP3   OH273648   0.914   6.355   0.081 -0.1925  0.1853 -0.2261
17386TIP3    H173649   0.839   6.411   0.061  0.8641  1.6613 -0.2873
17386TIP3    H273650   0.975   6.413   0.128  0.2853 -1.3606  1.1669
17387TIP3   OH273651   3.062   0.215   2.283 -0.2919 -0.1304 -0.2960
17387TIP3    H173652   3.084   0.122   2.287  1.5514  0.2226 -1.0824
17387TIP3    H273653   3.144   0.259   2.307 -0.9718  1.2941 -0.5342
17388TIP3   OH273654   3.212   4.478  15.834 -0.0034 -0.2483 -0.2347
17388TIP3    H173655   3.154   4.440  15.900  1.1869  1.4115  1.9005
17388TIP3    H273656   3.292   4.499  15.882  0.3983  2.3377 -1.8419
17389TIP3   OH273657   4.460   3.840  12.688 -0.0127 -1.0144  0.2142
17389TIP3    H173658   4.376   3.884  12.677  0.8546  0.4772 -0.8320
17389TIP3    H273659   4.462   3.815  12.780 -2.2627 -2.5673 -0.0955
17390TIP3   OH273660   2.189   3.449  16.541  0.5511  0.1041  0.5995
17390TIP3    H173661   2.262   3.475  16.485  1.8417 -0.4571  1.9653
17390TIP3    H273662   2.227   3.441  16.628 -0.7131 -2.0496  1.0249
17391TIP3   OH273663   6.507   5.374   6.269  0.4170 -0.0874 -0.0443
17391TIP3    H173664   6.534   5.446   6.211 -0.0657 -1.0889 -1.5793
17391TIP3    H273665   6.415   5.390   6.286  0.3682 -0.2153 -0.1882
17392TIP3   OH273666   4.843   0.549   0.184 -0.6991  0.0370 -0.4325
17392TIP3    H173667   4.830   0.463   0.224 -0.6497  0.0965 -0.2852
17392TIP3    H273668   4.838   0.534   0.090  1.2414 -0.4544 -0.4945
17393TIP3   OH273669   4.173   5.163   3.177 -0.3417 -0.0777 -0.7148
17393TIP3    H173670   4.171   5.074   3.211 -1.0445  0.4851  0.7979
17393TIP3    H273671   4.088   5.174   3.134 -0.4343 -0.0083 -0.5178
17394TIP3   OH273672   5.680   6.183  13.788 -0.1789  0.3405 -0.7048
17394TIP3    H173673   5.637   6.098  13.788 -1.6081  1.0210  0.1205
17394TIP3    H273674   5.611   6.245  13.765  0.2154  1.5262  1.0736
17395TIP3   OH273675   3.114   6.029   5.122  0.2279 -0.3237 -0.1981
17395TIP3    H173676   3.053   6.008   5.050  0.1560  0.5607 -0.4090
17395TIP3    H273677   3.122   5.947   5.171 -2.8616  0.0380  1.1368
17396TIP3   OH273678   4.766   6.134  15.320 -0.1146  0.4609 -0.0068
17396TIP3    H173679   4.692   6.073  15.317 -1.9608  2.5265  0.3919
17396TIP3    H273680   4.768   6.164  15.410  1.9786 -0.3355  0.2642
17397TIP3   OH273681   0.114   3.161  11.935  0.5467  0.6801  0.1440
17397TIP3    H173682   0.170   3.238  11.925  1.5242 -0.1510 -0.9171
17397TIP3    H273683   0.090   3.136  11.846  1.2931 -0.9912  0.3786
17398TIP3   OH273684   3.448   6.630   4.470  0.2147  0.0936 -0.5157
17398TIP3    H173685   3.361   6.599   4.446 -1.2672  3.7142 -0.4139
17398TIP3    H273686   3.495   6.636   4.387 -1.2272  2.2838 -1.2579
17399TIP3   OH273687   0.332   2.714  11.864 -0.0052  0.1602 -0.4642
17399TIP3    H173688   0.387   2.644  11.829 -2.1084 -0.7903 -2.0339
17399TIP3    H273689   0.310   2.685  11.952  1.9242  0.5858  0.2309
17400TIP3   OH273690   1.967   5.540   7.020 -0.2948  0.1537 -0.4123
17400TIP3    H173691   1.967   5.634   7.040  0.4619  0.2686 -0.9378
17400TIP3    H273692   2.032   5.503   7.080 -0.1082  0.0611 -0.6735
17401TIP3   OH273693   2.415   6.677   1.965  0.0660  0.2363 -0.1029
17401TIP3    H173694   2.350   6.746   1.952 -1.1920 -0.8337  0.2756
17401TIP3    H273695   2.395   6.642   2.052  1.0546 -0.2376 -0.0533
17402TIP3   OH273696   0.975   4.520  15.723  0.4116  0.4213 -0.3317
17402TIP3    H173697   1.069   4.524  15.742  0.5724  0.3048 -1.0643
17402TIP3    H273698   0.969   4.465  15.644 -0.2792  0.3548 -0.2380
17403TIP3   OH273699   2.216   0.129   2.239 -0.3229 -0.2627  0.5493
17403TIP3    H173700   2.208   0.224   2.229 -1.7346 -0.5223 -1.2216
17403TIP3    H273701   2.161   0.108   2.315 -1.0162  0.1957  0.1840
17404TIP3   OH273702   0.669   6.547  15.677  0.0993 -0.9235  0.5175
17404TIP3    H173703   0.635   6.512  15.759  0.0989 -0.9682  0.4981
17404TIP3    H273704   0.595   6.541  15.616  0.5983 -2.5271  0.0132
17405TIP3   OH273705   5.750   5.897  12.479  0.5155 -0.1784 -0.3755
17405TIP3    H173706   5.839   5.929  12.460  0.3127  0.8234  0.2545
17405TIP3    H273707   5.737   5.916  12.572  0.1733 -1.6829 -0.0885
17406TIP3   OH273708   0.177   5.762  11.970  0.8721  0.3434 -0.6738
17406TIP3    H173709   0.184   5.682  12.022  0.6910  1.2105  0.7555
17406TIP3    H273710   0.262   5.771  11.928  1.4216  0.1826  0.3741
17407TIP3   OH273711   3.672   0.486  13.908 -0.7866  0.2580 -0.4688
17407TIP3    H173712   3.615   0.482  13.985 -0.3995  0.7828 -0.1391
17407TIP3    H273713   3.645   0.566  13.863 -0.1696  0.6356 -0.1848
17408TIP3   OH273714   1.985   3.870   1.773 -0.0719  0.0337 -0.3665
17408TIP3    H173715   1.952   3.787   1.809 -0.6055  0.2489 -0.3544
17408TIP3    H273716   2.057   3.844   1.716  0.1243 -0.3959  0.0646
17409TIP3   OH273717   4.469   0.769  16.715 -1.0472 -0.0160 -0.0072
17409TIP3    H173718   4.395   0.783  16.656 -1.3312  2.8576  0.8536
17409TIP3    H273719   4.431   0.726  16.792 -1.5896  0.3203 -0.0812
17410TIP3   OH273720   0.219   1.043   0.486 -0.0277  0.3692 -0.2318
17410TIP3    H173721   0.130   1.018   0.511  0.2302  0.0478  0.3881
17410TIP3    H273722   0.213   1.136   0.464 -0.4971  0.3742 -0.0932
17411TIP3   OH273723   1.774   2.749  15.158 -0.4502  0.1601  0.2948
17411TIP3    H173724   1.781   2.834  15.114  0.0337 -0.8889 -1.7725
17411TIP3    H273725   1.862   2.733  15.193 -0.3028  0.1102 -0.0975
17412TIP3   OH273726   4.509   5.178   5.828  0.2103  0.7156  0.1606
17412TIP3    H173727   4.418   5.165   5.799  0.6871  1.7649 -1.9638
17412TIP3    H273728   4.506   5.256   5.883 -0.2853  0.2705  0.7809
17413TIP3   OH273729   6.322   1.200  12.044 -0.5758  0.0494  0.4700
17413TIP3    H173730   6.394   1.142  12.069 -0.1789  0.6419  0.7574
17413TIP3    H273731   6.317   1.263  12.116  0.0310  1.2950 -0.5256
17414TIP3   OH273732   1.416   5.474  15.290  0.3795 -0.0466 -0.3530
17414TIP3    H173733   1.352   5.414  15.326 -0.0845  0.8058  0.2648
17414TIP3    H273734   1.402   5.556  15.337  1.2433  0.4449 -0.9206
17415TIP3   OH273735   4.968   2.532   2.690  0.2040 -0.6834 -0.3832
17415TIP3    H173736   5.048   2.483   2.669  0.6775  0.2037 -0.7062
17415TIP3    H273737   4.950   2.584   2.612 -0.2691 -0.3109 -0.0356
17416TIP3   OH273738   4.518   5.407  14.608  0.2614 -0.0699  0.6479
17416TIP3    H173739   4.457   5.457  14.662 -0.9616  0.4435 -1.1177
17416TIP3    H273740   4.556   5.342  14.668 -2.1393 -0.5122  1.7881
17417TIP3   OH273741   0.806   0.925   5.274 -0.6319 -0.5778 -0.0139
17417TIP3    H173742   0.788   0.839   5.313 -0.3461  0.4679  2.6702
17417TIP3    H273743   0.730   0.944   5.220 -1.1887 -2.0480  0.2066
17418TIP3   OH273744   0.156   1.559   2.692 -0.0131 -0.1457 -0.4831
17418TIP3    H173745   0.161   1.646   2.731 -2.9148  0.2628 -0.7625
17418TIP3    H273746   0.220   1.507   2.741  1.3296  1.9735  0.1146
17419TIP3   OH273747   3.796   6.344  15.990 -0.0456  0.2588  0.0325
17419TIP3    H173748   3.837   6.296  15.918 -1.1992 -2.7287  1.2232
17419TIP3    H273749   3.733   6.402  15.948 -0.6499 -1.3575 -1.4164
17420TIP3   OH273750   6.678   2.344  11.152 -0.5266 -0.1186  0.2670
17420TIP3    H173751   6.754   2.348  11.211  0.1512  1.3180 -0.6484
17420TIP3    H273752   6.629   2.423  11.171 -1.2195 -0.4940  0.0687
17421TIP3   OH273753   3.157   1.199  13.806 -0.2516 -0.1369  0.1714
17421TIP3    H173754   3.097   1.128  13.784  0.7866 -0.3049 -2.4312
17421TIP3    H273755   3.217   1.160  13.869 -2.9684  0.1601  3.2220
17422TIP3   OH273756   1.472   1.398   2.446 -0.0170  0.1608  0.1613
17422TIP3    H173757   1.555   1.411   2.492 -0.8795  1.6844  1.3434
17422TIP3    H273758   1.412   1.363   2.512 -0.0473 -2.1393 -0.9792
17423TIP3   OH273759   1.832   4.320   4.614 -0.3334  0.6407  1.1220
17423TIP3    H173760   1.869   4.408   4.619 -0.4515  0.7073  0.8225
17423TIP3    H273761   1.906   4.265   4.588 -0.3033  0.6784  1.1275
17424TIP3   OH273762   6.011   3.915   2.920  0.1693 -0.8954 -0.0189
17424TIP3    H173763   5.980   3.994   2.964  0.5832 -2.3493  3.1362
17424TIP3    H273764   6.102   3.935   2.897 -0.7935  0.8310 -2.8878
17425TIP3   OH273765   3.983   3.979  15.537  0.5217  0.2109 -0.8956
17425TIP3    H173766   4.018   4.060  15.499  1.7231 -0.4666 -1.2900
17425TIP3    H273767   4.012   3.981  15.628 -1.2343  1.1985 -0.3113
17426TIP3   OH273768   0.203   1.016  10.709 -0.5740  0.2506 -0.1005
17426TIP3    H173769   0.253   1.098  10.715 -0.2540  0.0547 -0.0848
17426TIP3    H273770   0.257   0.959  10.655 -1.2542  0.3865 -0.9575
17427TIP3   OH273771   0.793   6.819  13.769 -0.1095 -0.7015 -0.3640
17427TIP3    H173772   0.759   6.815  13.858  3.7346  0.7820  1.3610
17427TIP3    H273773   0.722   6.783  13.715 -3.3685  0.0799  2.9872
17428TIP3   OH273774   4.740   2.655   4.897 -0.5851 -0.1992 -0.4548
17428TIP3    H173775   4.785   2.582   4.855 -1.1634 -0.7309 -0.1632
17428TIP3    H273776   4.677   2.614   4.956  1.9785  0.3988  3.0360
17429TIP3   OH273777   1.463   2.096   2.580 -0.6526  0.2385  0.1762
17429TIP3    H173778   1.420   2.077   2.497  0.0502  1.1482 -0.4169
17429TIP3    H273779   1.417   2.171   2.615  0.7620  1.6129 -0.7620
17430TIP3   OH273780   1.941   2.747   3.494 -0.2662 -0.2284  0.5937
17430TIP3    H173781   2.031   2.770   3.517 -1.0121  2.0526  1.4637
17430TIP3    H273782   1.890   2.762   3.573 -1.4083 -1.8605  0.2429
17431TIP3   OH273783   1.751   2.556   4.725 -0.0711 -0.3539  0.3836
17431TIP3    H173784   1.704   2.535   4.805 -3.7825  1.5934 -1.0386
17431TIP3    H273785   1.808   2.630   4.748 -1.0262  0.1268  1.2357
17432TIP3   OH273786   1.761   3.402  13.626  0.4887  0.4693 -0.3966
17432TIP3    H173787   1.750   3.439  13.538  2.6823  2.8685  0.2073
17432TIP3    H273788   1.845   3.356  13.621  0.3081  0.0550  0.2968
17433TIP3   OH273789   4.324   6.083   4.320 -0.3007 -0.2036 -0.8238
17433TIP3    H173790   4.342   6.148   4.253  0.2962  1.0656  0.5087
17433TIP3    H273791   4.409   6.068   4.362 -0.4355 -1.8286 -1.0643
17434TIP3   OH273792   0.815   0.124   4.735 -0.6545 -0.0920  0.0783
17434TIP3    H173793   0.907   0.137   4.711 -0.5241  0.8886  1.0335
17434TIP3    H273794   0.776   0.082   4.659  0.4611 -0.0056 -0.5607
17435TIP3   OH273795   3.670   3.495   2.392 -0.4107 -0.4936 -0.4796
17435TIP3    H173796   3.649   3.411   2.435 -0.3101 -0.6808 -0.7966
17435TIP3    H273797   3.586   3.540   2.386 -0.0332  1.1171  3.1715
17436TIP3   OH273798   1.318   6.243   4.634 -0.3222 -0.0725  0.0302
17436TIP3    H173799   1.274   6.204   4.558  2.1276  0.8940 -2.0656
17436TIP3    H273800   1.408   6.258   4.603  0.3606  1.8559  2.6530
17437TIP3   OH273801   2.798   1.551   3.144  0.0813  0.3814 -0.5809
17437TIP3    H173802   2.846   1.503   3.076 -1.3712 -2.5994  0.3105
17437TIP3    H273803   2.738   1.608   3.095  0.9708  0.3556 -1.7374
17438TIP3   OH273804   6.775   3.160   0.167  0.3357 -0.1045  0.3824
17438TIP3    H173805   6.851   3.114   0.133  0.2535  0.4504 -0.5907
17438TIP3    H273806   6.735   3.099   0.229  1.9482 -0.1440  1.4396
17439TIP3   OH273807   3.217   5.687  16.266 -0.4394  0.1845  0.4521
17439TIP3    H173808   3.308   5.704  16.289  0.4332  1.5247 -3.2888
17439TIP3    H273809   3.176   5.773  16.265 -1.3368 -0.2258  0.4525
17440TIP3   OH273810   5.211   6.583  15.609  0.0456  0.5525 -0.1158
17440TIP3    H173811   5.289   6.584  15.665  0.4163  1.3375 -0.6368
17440TIP3    H273812   5.245   6.560  15.522 -0.3376  0.7191 -0.3066
17441TIP3   OH273813   6.191   6.585  12.040 -0.9030 -0.0328  0.5763
17441TIP3    H173814   6.197   6.529  11.962  0.8893  0.6902  0.1580
17441TIP3    H273815   6.122   6.648  12.018 -0.5947  0.0111 -0.3382
17442TIP3   OH273816   3.086   4.710   5.834 -0.1095  0.3519 -0.5404
17442TIP3    H173817   3.127   4.678   5.915  0.5122  0.5521 -0.7740
17442TIP3    H273818   3.057   4.631   5.789  0.5196  0.1795 -0.6397
17443TIP3   OH273819   2.865   2.564  10.660 -0.6373  0.0602  0.1466
17443TIP3    H173820   2.818   2.511  10.596 -1.4180  0.6977  0.1676
17443TIP3    H273821   2.796   2.610  10.708 -0.0536 -0.3019  1.3542
17444TIP3   OH273822   5.670   6.434   5.244  0.0158  0.6508 -0.0698
17444TIP3    H173823   5.650   6.526   5.259  0.5138  0.6989  0.3211
17444TIP3    H273824   5.585   6.390   5.247 -0.0541  0.8614  1.4219
17445TIP3   OH273825   0.684   3.458  13.474 -0.3065 -0.5382  0.3745
17445TIP3    H173826   0.644   3.415  13.398  0.7735  0.6112 -0.8962
17445TIP3    H273827   0.776   3.430  13.471  0.1258  0.8542  0.2433
17446TIP3   OH273828   0.270   1.684  13.345  0.7727 -0.0176 -0.1476
17446TIP3    H173829   0.221   1.749  13.395  1.2710  1.3432 -1.3570
17446TIP3    H273830   0.261   1.713  13.254  1.6080 -1.2542 -0.6389
17447TIP3   OH273831   5.695   5.030  14.301 -0.5780 -0.4052  0.2391
17447TIP3    H173832   5.629   4.988  14.356 -1.0775 -2.1675 -1.5488
17447TIP3    H273833   5.778   4.988  14.325 -0.3272  0.7033  1.4073
17448TIP3   OH273834   3.768   0.865  15.120 -0.8577 -0.1122 -0.5207
17448TIP3    H173835   3.838   0.905  15.069  0.0436  0.1875  0.8684
17448TIP3    H273836   3.718   0.939  15.155 -0.4548 -0.2334  0.3488
17449TIP3   OH273837   4.710   1.439   2.833 -0.0116  0.1180 -0.1712
17449TIP3    H173838   4.717   1.526   2.873 -0.4339 -0.2402  0.6981
17449TIP3    H273839   4.787   1.433   2.777  0.8792  0.4499  0.9743
17450TIP3   OH273840   3.736   5.622  12.183 -0.4545 -0.1437  0.0163
17450TIP3    H173841   3.796   5.607  12.256 -0.3807 -0.7726 -0.1686
17450TIP3    H273842   3.736   5.717  12.172 -0.3136 -0.0576  0.7028
17451TIP3   OH273843   6.115   0.502  12.657 -0.4365  0.1558 -0.1073
17451TIP3    H173844   6.044   0.563  12.676  1.4282  2.8271 -1.1223
17451TIP3    H273845   6.104   0.481  12.565 -0.5774 -0.3860  0.0306
17452TIP3   OH273846   2.011   3.260   1.450 -0.0297 -0.6624 -0.0543
17452TIP3    H173847   2.019   3.167   1.471 -2.2808 -0.7406  0.7005
17452TIP3    H273848   1.933   3.266   1.395  0.3274  0.7379 -0.4498
17453TIP3   OH273849   4.892   5.715   0.483  0.0698  0.3426 -0.0953
17453TIP3    H173850   4.923   5.797   0.444  2.1681 -0.9783 -1.4230
17453TIP3    H273851   4.962   5.690   0.544  0.8072 -1.7267 -1.6621
17454TIP3   OH273852   2.949   4.084  14.995 -0.4077  0.0524 -0.5196
17454TIP3    H173853   3.004   4.086  14.916 -1.2506  1.1117 -1.1070
17454TIP3    H273854   2.947   3.992  15.020  0.6114 -0.1787 -1.2065
17455TIP3   OH273855   6.562   2.118   5.230  0.0139  0.4032  0.0163
17455TIP3    H173856   6.592   2.096   5.142 -0.6512  0.6218 -0.2776
17455TIP3    H273857   6.470   2.090   5.231  0.7914 -2.4550  1.6625
17456TIP3   OH273858   3.436   0.182  15.394 -0.4940  0.4652 -0.1062
17456TIP3    H173859   3.523   0.176  15.354 -1.2153 -0.7894 -1.5786
17456TIP3    H273860   3.384   0.115  15.350 -1.7226 -0.1185  2.0783
17457TIP3   OH273861   2.983   5.439  13.676  0.0126  0.1904  0.3831
17457TIP3    H173862   3.034   5.359  13.690 -0.3793  0.1199  1.4758
17457TIP3    H273863   2.946   5.460  13.762 -1.0200  0.7796 -0.1830
17458TIP3   OH273864   5.711   3.539   5.470 -0.5339 -0.5548 -0.0897
17458TIP3    H173865   5.683   3.559   5.559 -0.9204  0.9774 -0.5239
17458TIP3    H273866   5.807   3.545   5.473 -0.5944  1.0125 -0.0631
17459TIP3   OH273867   5.807   5.356   5.965  0.0188  0.0489  0.2276
17459TIP3    H173868   5.827   5.423   6.030 -1.3696  0.4605  0.2810
17459TIP3    H273869   5.844   5.388   5.884 -0.5585  0.8587  0.2730
17460TIP3   OH273870   1.479   2.233   5.563  0.0952  0.1492  0.4125
17460TIP3    H173871   1.494   2.292   5.638  1.0693 -0.6152  0.8420
17460TIP3    H273872   1.425   2.162   5.598 -0.9961  0.7006 -0.0827
17461TIP3   OH273873   2.564   0.624  13.275 -0.7484  0.4106 -0.2596
17461TIP3    H173874   2.537   0.696  13.218  1.7372 -0.4143 -2.6768
17461TIP3    H273875   2.624   0.664  13.338 -1.8506  0.9362  0.5026
17462TIP3   OH273876   6.217   4.888   5.829  0.3391  0.0971 -0.4622
17462TIP3    H173877   6.285   4.935   5.780  2.1061 -1.6440  0.1906
17462TIP3    H273878   6.210   4.935   5.912  0.0119  0.8498 -0.9018
17463TIP3   OH273879   2.011   3.217   4.846 -0.2747  0.4096  0.3963
17463TIP3    H173880   2.058   3.188   4.768  1.2032  0.1335  1.3474
17463TIP3    H273881   1.920   3.196   4.828 -0.2668  2.0629 -2.0263
17464TIP3   OH273882   4.172   1.324  15.932 -0.2851  0.6269  0.3515
17464TIP3    H173883   4.240   1.355  15.872 -0.1589 -1.2211 -0.5233
17464TIP3    H273884   4.165   1.393  15.998  2.7586  0.6931  0.7568
17465TIP3   OH273885   5.890   3.962   0.428 -0.1852  0.3151  0.0871
17465TIP3    H173886   5.875   3.871   0.453 -0.7483  0.7265  1.3684
17465TIP3    H273887   5.917   3.959   0.337 -2.1312 -0.9982 -0.4981
17466TIP3   OH273888   6.208   1.752  10.807  0.0154 -0.0943 -0.3712
17466TIP3    H173889   6.140   1.812  10.776 -0.8954 -1.4169 -1.0505
17466TIP3    H273890   6.284   1.771  10.753 -1.0481 -1.2292 -2.3798
17467TIP3   OH273891   5.421   3.045  16.252  0.4692 -0.3030  0.1428
17467TIP3    H173892   5.417   3.018  16.343  0.6742  1.0502  0.5785
17467TIP3    H273893   5.332   3.033  16.219  0.5623 -1.4984  0.2923
17468TIP3   OH273894   2.397   4.758   4.788  0.7821 -0.3384  0.4295
17468TIP3    H173895   2.431   4.745   4.876 -1.1097 -3.4281  0.8654
17468TIP3    H273896   2.302   4.758   4.799  0.5086  0.5710 -1.4962
17469TIP3   OH273897   5.379   6.495  16.164  0.0910  0.4428  0.4815
17469TIP3    H173898   5.371   6.413  16.114 -1.7496  1.0290 -0.2992
17469TIP3    H273899   5.448   6.544  16.119 -0.3566  0.2394 -0.4569
17470TIP3   OH273900   0.998   2.372   1.322 -1.1948  0.0794  0.1600
17470TIP3    H173901   1.015   2.382   1.416  1.3200  1.2631 -0.3373
17470TIP3    H273902   0.930   2.437   1.304  0.1602  1.7419  0.7560
17471TIP3   OH273903   1.403   5.296  13.940  0.2389 -0.6576  0.3147
17471TIP3    H173904   1.452   5.271  14.019 -0.0438  1.4695  1.2312
17471TIP3    H273905   1.325   5.240  13.942  0.9378 -1.6484  0.7332
17472TIP3   OH273906   1.193   1.308  15.922  0.1592  0.3299 -0.7218
17472TIP3    H173907   1.287   1.296  15.933  0.2558  0.5526 -1.2703
17472TIP3    H273908   1.181   1.317  15.827 -0.3775  0.6213 -0.6290
17473TIP3   OH273909   1.605   1.485   1.442 -0.0282  0.4127  0.1361
17473TIP3    H173910   1.689   1.516   1.474  0.0758 -0.9909  1.3315
17473TIP3    H273911   1.572   1.556   1.387  0.9733  1.8602  1.3414
17474TIP3   OH273912   1.239   3.282  16.308 -0.2529 -0.4087  0.2870
17474TIP3    H173913   1.191   3.259  16.388  2.5814 -2.0567  1.6702
17474TIP3    H273914   1.249   3.200  16.261  0.8956 -0.0635 -0.1044
17475TIP3   OH273915   4.656   1.509   4.004  0.2500  0.2959  0.3675
17475TIP3    H173916   4.695   1.432   4.046  1.4955 -0.0522 -1.3214
17475TIP3    H273917   4.731   1.561   3.976 -0.4372 -0.0349 -2.3597
17476TIP3   OH273918   5.078   1.865   5.284 -0.0086 -0.7446  0.2431
17476TIP3    H173919   4.995   1.820   5.301  0.0525 -1.1437 -0.4653
17476TIP3    H273920   5.086   1.864   5.188  0.8779 -0.8300  0.3113
17477TIP3   OH273921   0.064   3.675   3.492  0.2853  0.0624 -0.2549
17477TIP3    H173922   0.107   3.600   3.532  0.3074  0.6344  0.8409
17477TIP3    H273923   0.073   3.661   3.398  0.5549 -1.1427 -0.0629
17478TIP3   OH273924   0.469   0.762  13.156 -0.0306 -0.1624  0.1542
17478TIP3    H173925   0.444   0.820  13.228  0.1639 -1.5960  1.4130
17478TIP3    H273926   0.428   0.801  13.079  1.1036  2.3482  0.7131
17479TIP3   OH273927   1.552   0.093  11.128  0.4461  0.5234 -0.4342
17479TIP3    H173928   1.470   0.140  11.111 -0.2516 -0.3492  0.3916
17479TIP3    H273929   1.577   0.120  11.216  0.1825 -0.4349 -0.0584
17480TIP3   OH273930   3.590   0.779   3.242  0.0858 -0.3632 -0.2378
17480TIP3    H173931   3.645   0.853   3.266 -0.2524  0.1694 -1.0749
17480TIP3    H273932   3.618   0.708   3.300 -0.2776  0.6931  1.2748
17481TIP3   OH273933   4.791   6.538   0.333 -0.5090  0.2946 -0.1462
17481TIP3    H173934   4.825   6.462   0.380 -0.3809 -0.7135 -1.7941
17481TIP3    H273935   4.698   6.542   0.358 -0.0639  0.8406  1.5070
17482TIP3   OH273936   3.447   1.233  10.886 -0.2392  0.2820 -0.4310
17482TIP3    H173937   3.521   1.196  10.933  0.9836  2.3868 -0.5759
17482TIP3    H273938   3.454   1.327  10.900 -0.7803  0.8745 -3.3852
17483TIP3   OH273939   6.245   0.275  14.854  0.3436 -0.1032 -0.3312
17483TIP3    H173940   6.187   0.214  14.899 -0.0988  0.3886 -0.2290
17483TIP3    H273941   6.212   0.362  14.878  1.3166  0.1924  0.0006
17484TIP3   OH273942   0.947   4.690  12.629  0.2449  0.2406 -0.0658
17484TIP3    H173943   0.963   4.660  12.718 -0.8734 -0.1469  0.0141
17484TIP3    H273944   1.001   4.633  12.574 -0.7112 -0.9615  0.2035
17485TIP3   OH273945   5.951   4.751  12.614 -0.0844 -0.0828 -0.0120
17485TIP3    H173946   5.986   4.840  12.603  0.7051 -0.4866 -0.9699
17485TIP3    H273947   5.964   4.710  12.528  0.2178 -1.3451  0.6171
17486TIP3   OH273948   3.341   6.015  11.788  0.7205 -0.3779 -0.3575
17486TIP3    H173949   3.406   5.992  11.853  0.9995 -1.0789 -0.8689
17486TIP3    H273950   3.274   6.064  11.836  0.7780 -1.1305  0.5004
17487TIP3   OH273951   6.228   6.573  11.507 -0.5940 -0.0002  0.1741
17487TIP3    H173952   6.269   6.645  11.555 -1.3079  0.6498 -0.1726
17487TIP3    H273953   6.224   6.501  11.571  2.5175 -0.6791 -0.2194
17488TIP3   OH273954   3.322   3.192   5.047  0.1678 -0.2322  0.0341
17488TIP3    H173955   3.407   3.153   5.071  0.1283 -0.2920  0.0758
17488TIP3    H273956   3.260   3.120   5.053  0.5350 -0.8686 -2.5845
17489TIP3   OH273957   4.206   3.932  13.267 -0.5876  0.3483  0.1507
17489TIP3    H173958   4.211   3.897  13.178  0.8314  0.2888  0.2354
17489TIP3    H273959   4.205   4.027  13.256 -1.5422  0.3332  0.0379
17490TIP3   OH273960   3.368   2.618   2.039  0.2732  0.2030 -0.1391
17490TIP3    H173961   3.371   2.637   1.946  0.3347  1.5222  0.1209
17490TIP3    H273962   3.286   2.569   2.050  0.9650 -1.2299 -1.0842
17491TIP3   OH273963   0.772   5.928  15.972  0.3828  0.0518  0.1538
17491TIP3    H173964   0.809   5.996  15.916 -0.5942 -0.4252 -1.1175
17491TIP3    H273965   0.774   5.849  15.918 -1.0902 -0.3072  0.5864
17492TIP3   OH273966   3.140   6.242  15.377 -0.0309  0.2083 -0.8580
17492TIP3    H173967   3.236   6.247  15.373  0.0876 -0.6641  0.3664
17492TIP3    H273968   3.122   6.148  15.384 -0.9659  0.3810 -0.8706
17493TIP3   OH273969   5.899   2.144  12.039 -0.7699  0.0987  0.1862
17493TIP3    H173970   5.977   2.105  12.079 -0.9708 -0.2561  0.2388
17493TIP3    H273971   5.862   2.074  11.986 -0.9456  0.3267  0.0078
17494TIP3   OH273972   4.860   0.893   1.042 -0.4576  0.3496  0.0291
17494TIP3    H173973   4.928   0.835   1.009 -1.3823 -1.2352  0.7956
17494TIP3    H273974   4.819   0.929   0.963  0.2482  0.0912 -0.4632
17495TIP3   OH273975   4.633   1.739   2.383  0.1567  0.5208 -0.7667
17495TIP3    H173976   4.672   1.812   2.432 -0.7435  0.1434  0.5627
17495TIP3    H273977   4.543   1.766   2.366 -0.2427 -0.3277 -0.1026
17496TIP3   OH273978   2.519   3.765   0.908 -0.6837  0.3362 -0.1444
17496TIP3    H173979   2.593   3.784   0.965 -1.2169  1.3037  0.2445
17496TIP3    H273980   2.552   3.699   0.846  0.5205  0.8413 -0.0527
17497TIP3   OH273981   6.337   6.319   1.741  0.5610  0.2568 -0.9190
17497TIP3    H173982   6.298   6.236   1.771  0.1797  0.9413  0.5936
17497TIP3    H273983   6.396   6.294   1.670  0.4017 -1.2995 -0.5385
17498TIP3   OH273984   0.852   6.680   4.482 -0.2797  0.2125  0.4972
17498TIP3    H173985   0.928   6.728   4.449  0.4176 -1.7370 -0.9677
17498TIP3    H273986   0.861   6.683   4.577  1.5519  0.1821  0.3625
17499TIP3   OH273987   3.991   1.566  15.397 -0.1584  0.2642 -0.2728
17499TIP3    H173988   4.021   1.502  15.332 -1.1030 -0.3061 -0.1668
17499TIP3    H273989   4.036   1.541  15.478  1.0421  0.9922 -0.6797
17500TIP3   OH273990   6.478   5.753   5.724 -0.1202  0.3569 -0.1673
17500TIP3    H173991   6.514   5.841   5.730 -0.6829  0.5574  0.3968
17500TIP3    H273992   6.488   5.716   5.812  0.6330 -0.3586 -0.5382
17501TIP3   OH273993   2.945   1.725   2.302  0.4921 -0.0585  0.4457
17501TIP3    H173994   3.034   1.716   2.336  1.9866  1.7964 -2.4816
17501TIP3    H273995   2.923   1.817   2.318  2.1204  1.5824 -4.7334
17502TIP3   OH273996   4.697   5.884  16.928  0.2157  0.2753  0.5609
17502TIP3    H173997   4.627   5.947  16.947 -1.9214 -1.5967 -0.5996
17502TIP3    H273998   4.773   5.917  16.977 -0.7642  3.6559  0.0945
17503TIP3   OH273999   6.490   5.422  15.163 -0.8892  0.1507  0.4130
17503TIP3    H174000   6.548   5.497  15.148  1.0851 -1.0143  1.7747
17503TIP3    H274001   6.405   5.450  15.128  0.2378  2.2855 -0.8206
17504TIP3   OH274002   6.575   6.414  15.846  0.0964  0.3152  0.2867
17504TIP3    H174003   6.666   6.390  15.833  0.0477  0.4327 -0.2820
17504TIP3    H274004   6.546   6.447  15.761 -0.3716  0.6193  0.5592
17505TIP3   OH274005   4.482   2.838   4.218 -0.3487  0.0317 -0.4538
17505TIP3    H174006   4.521   2.872   4.299 -1.3498 -2.4038  1.1829
17505TIP3    H274007   4.420   2.905   4.191  1.9010  2.1243 -0.8061
17506TIP3   OH274008   4.922   3.679   3.906 -0.1747  0.4067  0.3647
17506TIP3    H174009   5.008   3.711   3.879 -0.2998  0.3895 -0.0694
17506TIP3    H274010   4.864   3.754   3.892 -1.1576 -0.8329 -4.0094
17507TIP3   OH274011   1.795   3.035  15.498  0.1614  0.0622 -0.3300
17507TIP3    H174012   1.878   3.080  15.512  0.9834 -1.7202  0.9902
17507TIP3    H274013   1.814   2.943  15.521 -2.2126 -0.3463  0.2181
17508TIP3   OH274014   4.646   1.974  14.440 -0.1904  0.4941  0.1186
17508TIP3    H174015   4.690   2.059  14.447 -2.6618  1.8608  0.1861
17508TIP3    H274016   4.594   1.981  14.360 -1.9623 -0.1612  1.1570
17509TIP3   OH274017   0.849   4.689  15.906 -0.6097  0.3840  0.3070
17509TIP3    H174018   0.916   4.754  15.925 -0.0119 -0.5833  1.7511
17509TIP3    H274019   0.890   4.629  15.844 -0.1966 -0.0559  0.9848
17510TIP3   OH274020   6.623   1.181  16.712  0.1816 -0.5601 -0.1354
17510TIP3    H174021   6.540   1.223  16.736  0.2456 -1.1795  1.2073
17510TIP3    H274022   6.600   1.122  16.640 -0.7726 -1.5146  0.9115
17511TIP3   OH274023   0.885   1.539   5.580  0.6410  0.3122 -0.2486
17511TIP3    H174024   0.947   1.467   5.576  1.3487  0.9524 -2.9933
17511TIP3    H274025   0.803   1.502   5.548 -0.1454 -0.2021  2.1532
17512TIP3   OH274026   2.462   3.334   1.824 -0.2978 -0.0631  0.1088
17512TIP3    H174027   2.482   3.344   1.917  0.3362 -1.8270  0.2021
17512TIP3    H274028   2.442   3.423   1.794  0.4226  0.6821  1.7014
17513TIP3   OH274029   4.012   0.800   3.166  0.1257  0.4873 -0.3514
17513TIP3    H174030   3.944   0.856   3.203  0.0646 -0.4516  1.0344
17513TIP3    H274031   4.014   0.822   3.073 -0.6815  1.9502 -0.0469
17514TIP3   OH274032   5.848   4.086  13.969  0.1012 -0.3184  0.2790
17514TIP3    H174033   5.777   4.024  13.986  0.9698 -1.0706  1.3181
17514TIP3    H274034   5.860   4.131  14.053 -0.3553  1.1191 -0.3997
17515TIP3   OH274035   0.477   2.474  12.184  0.3358 -0.1953  0.1386
17515TIP3    H174036   0.401   2.529  12.162  1.4650  1.7267  0.7947
17515TIP3    H274037   0.553   2.529  12.165  1.5220 -1.2653  1.5343
17516TIP3   OH274038   3.252   0.415  13.532 -0.0659  0.0213  0.1958
17516TIP3    H174039   3.314   0.460  13.475 -0.1934  0.3399  0.3007
17516TIP3    H274040   3.292   0.330  13.549 -0.7469 -0.6942 -1.5990
17517TIP3   OH274041   3.478   5.601   4.595 -0.4732  0.9133 -0.2956
17517TIP3    H174042   3.443   5.666   4.656 -2.7703 -0.8640  0.4332
17517TIP3    H274043   3.545   5.555   4.644 -1.2172  0.5188  0.3638
17518TIP3   OH274044   5.024   2.350   3.513  0.1737  0.0153 -0.3815
17518TIP3    H174045   5.000   2.338   3.606  2.2196  0.7992  0.2867
17518TIP3    H274046   4.942   2.335   3.466 -0.9203 -0.4406  1.5421
17519TIP3   OH274047   4.321   2.791   2.849  0.0742 -0.0172  0.3098
17519TIP3    H174048   4.250   2.801   2.913 -1.0964 -0.9053 -0.8047
17519TIP3    H274049   4.282   2.821   2.767  0.5762 -1.7124 -0.5640
17520TIP3   OH274050   3.779   3.802   4.277 -0.5439  0.1043  0.2769
17520TIP3    H174051   3.742   3.714   4.271 -0.4502  0.0909 -0.1885
17520TIP3    H274052   3.862   3.796   4.230 -1.9582  1.1830 -2.5930
17521TIP3   OH274053   1.694   4.976   5.906 -0.0740 -0.1382  0.4803
17521TIP3    H174054   1.646   4.926   5.971 -0.0311  1.0277  1.4535
17521TIP3    H274055   1.781   4.987   5.944  0.4750 -0.8370 -0.5275
17522TIP3   OH274056   5.811   2.874  12.651 -0.0543 -0.6450  0.2427
17522TIP3    H174057   5.742   2.810  12.667  1.2527 -1.9280  1.0188
17522TIP3    H274058   5.804   2.936  12.724 -0.6781 -0.4717  0.0439
17523TIP3   OH274059   5.185   0.656   4.400 -0.5836 -0.0190 -0.9872
17523TIP3    H174060   5.247   0.661   4.327  1.0575  1.7335  0.4008
17523TIP3    H274061   5.237   0.682   4.476 -2.4222 -1.0531  0.6964
17524TIP3   OH274062   5.591   1.036  12.911  0.1045 -0.1451 -0.8407
17524TIP3    H174063   5.512   1.003  12.870  0.6038 -1.9777 -0.4123
17524TIP3    H274064   5.565   1.121  12.948 -1.8814 -1.0623  0.0033
17525TIP3   OH274065   1.945   1.036  13.692 -0.3449 -0.7657 -0.3185
17525TIP3    H174066   2.025   1.026  13.743  2.1255  0.8522 -3.5252
17525TIP3    H274067   1.936   1.130  13.679 -1.5912 -1.0521 -1.7897
17526TIP3   OH274068   6.765   0.403   3.873 -0.0265 -0.2917 -0.0470
17526TIP3    H174069   6.768   0.370   3.963  0.5874 -0.1378 -0.0104
17526TIP3    H274070   6.822   0.345   3.823  1.5557  1.0203  0.1320
17527TIP3   OH274071   5.934   5.834   1.680  0.2484 -0.3642 -0.2038
17527TIP3    H174072   6.018   5.869   1.651 -0.8266  1.9546 -0.7371
17527TIP3    H274073   5.876   5.843   1.604 -1.4754  1.7730  1.2302
17528TIP3   OH274074   6.692   1.107   0.887  0.2621  0.5425 -0.0280
17528TIP3    H174075   6.719   1.179   0.943 -0.5812  0.8273  0.0319
17528TIP3    H274076   6.670   1.036   0.948  0.6986  0.3661 -0.0696
17529TIP3   OH274077   2.260   0.079   1.795 -0.1637  0.0483  0.1034
17529TIP3    H174078   2.208   0.099   1.717  0.2180  0.3507 -0.0741
17529TIP3    H274079   2.195   0.063   1.863 -0.4978 -0.0354 -0.2322
17530TIP3   OH274080   0.779   3.368   4.923 -0.5265 -0.1548  0.3122
17530TIP3    H174081   0.832   3.370   5.003  0.8770  1.2279 -0.6069
17530TIP3    H274082   0.737   3.454   4.920 -1.4820 -0.6055  0.1091
17531TIP3   OH274083   1.980   6.656  16.545 -0.0065 -0.0756 -0.1529
17531TIP3    H174084   2.059   6.647  16.492 -0.3628 -0.4811 -0.6294
17531TIP3    H274085   1.962   6.750  16.547  1.7582  0.2942  1.8642
17532TIP3   OH274086   4.488   4.402   5.409 -0.6706 -0.1371 -0.0780
17532TIP3    H174087   4.501   4.311   5.437 -1.7813 -0.0320  0.8847
17532TIP3    H274088   4.564   4.449   5.445 -0.6459 -0.5054  0.3693
17533TIP3   OH274089   0.888   3.448   5.578 -0.4076  0.0316  0.0192
17533TIP3    H174090   0.818   3.417   5.635  0.7291 -0.4555  1.1855
17533TIP3    H274091   0.922   3.368   5.537  0.7037  0.0175  0.9221
17534TIP3   OH274092   2.896   6.030  15.304 -0.4737 -0.2371 -0.1980
17534TIP3    H174093   2.810   6.058  15.336 -0.4845 -0.2981 -0.1724
17534TIP3    H274094   2.881   6.006  15.212 -0.4119  0.0779 -0.2928
17535TIP3   OH274095   1.961   1.036  11.378 -0.4813  0.1308 -0.1425
17535TIP3    H174096   1.922   1.093  11.311 -1.1322 -0.0115  0.1034
17535TIP3    H274097   2.045   1.009  11.341 -0.5092  0.6408 -0.5869
17536TIP3   OH274098   0.741   0.837   0.064  0.1742 -0.0421  0.0365
17536TIP3    H174099   0.781   0.924   0.061 -0.6552  0.3810  0.8170
17536TIP3    H274100   0.699   0.826  -0.021  0.5075  0.2070 -0.1621
17537TIP3   OH274101   5.747   1.121  15.130  0.5626  0.4365 -0.2247
17537TIP3    H174102   5.813   1.132  15.199  0.3854 -0.1166  0.0353
17537TIP3    H274103   5.716   1.031  15.140  0.2813  0.4680 -0.8043
17538TIP3   OH274104   0.126   6.324  13.766  0.0438  0.1857  0.2845
17538TIP3    H174105   0.200   6.313  13.708 -0.8863  0.6860 -1.0395
17538TIP3    H274106   0.054   6.279  13.723 -0.3490 -0.6721  1.7504
17539TIP3   OH274107   1.450   3.099   2.222  0.2668  0.0084 -0.2530
17539TIP3    H174108   1.534   3.067   2.257  0.7444 -1.0453 -2.2174
17539TIP3    H274109   1.408   3.142   2.297  2.4658  0.4044  0.8335
17540TIP3   OH274110   5.869   6.174  14.834 -0.8807  0.2379 -0.1991
17540TIP3    H174111   5.860   6.113  14.760 -0.5422  0.3156 -0.3047
17540TIP3    H274112   5.851   6.259  14.796 -2.0817  0.1345  0.1000
17541TIP3   OH274113   6.354   2.501  12.052  0.0718 -0.1480 -0.6259
17541TIP3    H174114   6.363   2.590  12.087  0.5098  0.3694 -1.9504
17541TIP3    H274115   6.400   2.505  11.968 -0.1906 -1.5500 -0.8486
17542TIP3   OH274116   6.737   2.445   2.995  0.0595 -0.0850  0.1819
17542TIP3    H174117   6.737   2.425   2.901  3.4613  0.2949 -0.0196
17542TIP3    H274118   6.707   2.365   3.037 -0.4891 -0.6219 -1.1724
17543TIP3   OH274119   2.456   6.087  11.642  0.4493 -0.1259 -0.0700
17543TIP3    H174120   2.488   6.071  11.730 -1.6109  0.3081  0.8164
17543TIP3    H274121   2.427   6.178  11.643  1.1524  0.1440 -1.4660
17544TIP3   OH274122   2.697   0.517  16.541 -0.1938 -0.0175  0.4292
17544TIP3    H174123   2.659   0.441  16.498 -0.2850  0.9610 -1.3498
17544TIP3    H274124   2.621   0.567  16.573 -0.2909  0.4623 -0.4990
17545TIP3   OH274125   0.016   4.429  12.449  0.2072 -0.4460  0.4843
17545TIP3    H174126   0.006   4.419  12.544 -1.1507  1.2028  0.5802
17545TIP3    H274127   0.094   4.483  12.439 -0.5288  0.7157  0.7940
17546TIP3   OH274128   0.408   5.476  17.124 -0.5547  0.4410  0.4413
17546TIP3    H174129   0.442   5.465  17.213  0.8482 -0.2009 -0.1411
17546TIP3    H274130   0.427   5.567  17.102 -3.2200  1.3810  1.6843
17547TIP3   OH274131   1.857   3.485   1.213 -0.5810  0.0873 -0.0277
17547TIP3    H174132   1.802   3.543   1.160 -1.1898 -0.0560  0.4407
17547TIP3    H274133   1.808   3.472   1.294 -0.0114 -0.3186  0.2617
17548TIP3   OH274134   0.642   0.978   0.666  0.6626  0.9733  0.3782
17548TIP3    H174135   0.734   1.004   0.673  0.6948  1.6242 -1.7772
17548TIP3    H274136   0.645   0.897   0.615  0.1454 -0.2576  2.1962
17549TIP3   OH274137   1.444   5.631   1.175 -0.1516 -0.1431  0.0521
17549TIP3    H174138   1.388   5.682   1.116  1.1344 -0.8119 -1.8215
17549TIP3    H274139   1.385   5.605   1.246 -2.3564 -1.0942 -1.9787
17550TIP3   OH274140   6.744   2.034  11.904 -0.0121 -0.3030  0.5598
17550TIP3    H174141   6.648   2.038  11.906  0.0151 -0.0615  1.8830
17550TIP3    H274142   6.770   2.026  11.995  1.3649  2.5475  0.5229
17551TIP3   OH274143   1.168   2.222   3.466 -0.4025  0.2968 -0.1295
17551TIP3    H174144   1.168   2.262   3.380 -0.2462 -0.0664 -0.3008
17551TIP3    H274145   1.259   2.224   3.494 -0.4483  0.3896  0.0155
17552TIP3   OH274146   1.307   4.152   1.247  0.3338 -0.2728 -0.3383
17552TIP3    H174147   1.295   4.180   1.157  0.8132  0.4918 -0.1811
17552TIP3    H274148   1.339   4.231   1.292 -2.8841  0.3320  1.2039
17553TIP3   OH274149   4.324   4.948   1.916 -0.4354  0.8145 -0.6499
17553TIP3    H174150   4.239   4.917   1.946  1.1296 -0.8104  2.6626
17553TIP3    H274151   4.345   5.021   1.975  2.2640 -1.7221  1.8731
17554TIP3   OH274152   0.464   0.548  14.997  0.2500 -1.1177 -0.1778
17554TIP3    H174153   0.477   0.482  15.065 -1.4160 -2.7571 -1.3512
17554TIP3    H274154   0.421   0.501  14.926 -0.0198  1.0198 -1.5236
17555TIP3   OH274155   4.629   5.314  12.008 -0.0228 -0.5246 -0.0506
17555TIP3    H174156   4.595   5.252  12.072  1.4608 -0.8433  0.4667
17555TIP3    H274157   4.709   5.272  11.974  0.3955  0.6017 -0.5017
17556TIP3   OH274158   1.125   3.306   3.175  0.1653 -0.0833 -0.5102
17556TIP3    H174159   1.054   3.250   3.207 -0.2145  0.7039  0.0605
17556TIP3    H274160   1.096   3.395   3.194  2.4131  0.2169  2.1368
17557TIP3   OH274161   6.489   1.283   0.337 -0.1142 -0.6046 -0.2916
17557TIP3    H174162   6.402   1.289   0.377 -0.3107  0.0795 -0.8052
17557TIP3    H274163   6.535   1.361   0.366  0.9097 -1.7240  1.2627
17558TIP3   OH274164   1.730   2.177   3.738  0.0084  0.0926  0.2373
17558TIP3    H174165   1.730   2.268   3.709  0.6264  0.0144 -0.0066
17558TIP3    H274166   1.821   2.150   3.735 -0.2322 -0.7038 -0.2233
17559TIP3   OH274167   1.961   0.155  10.714 -0.0452 -0.0541 -0.8374
17559TIP3    H174168   2.015   0.174  10.790 -4.0088 -0.2944  2.3552
17559TIP3    H274169   1.981   0.225  10.652  2.0728  1.1831  1.0981
17560TIP3   OH274170   5.397   3.396   0.105 -0.0870  0.0817 -0.4552
17560TIP3    H174171   5.395   3.404   0.009  0.2325 -0.9887 -0.5677
17560TIP3    H274172   5.352   3.474   0.137 -1.0684 -0.0344 -1.5056
17561TIP3   OH274173   5.888   0.379   2.321 -0.2879 -0.5798 -0.0302
17561TIP3    H174174   5.929   0.373   2.234 -0.4873  1.0191 -0.2596
17561TIP3    H274175   5.962   0.375   2.382  0.0253  0.1259 -0.3538
17562TIP3   OH274176   3.012   3.783   5.395  0.3700  0.2020 -0.8913
17562TIP3    H174177   3.084   3.846   5.397  0.3054  0.2864 -1.2332
17562TIP3    H274178   3.031   3.727   5.320 -0.1914  0.5465 -1.2938
17563TIP3   OH274179   2.863   3.737  13.771 -0.3599  0.4141  0.2877
17563TIP3    H174180   2.841   3.667  13.709 -1.0427  1.7809 -1.0923
17563TIP3    H274181   2.801   3.727  13.842 -1.7731  0.7532 -0.8396
17564TIP3   OH274182   0.336   4.113  11.430 -0.5172  0.6822  0.0383
17564TIP3    H174183   0.260   4.058  11.449 -0.6103  0.7855 -0.0367
17564TIP3    H274184   0.411   4.054  11.439 -0.5510  0.7486  0.8133
17565TIP3   OH274185   4.128   4.462   4.070 -0.7021  0.4331 -0.4322
17565TIP3    H174186   4.154   4.553   4.083  2.3259 -0.6970  3.3299
17565TIP3    H274187   4.069   4.443   4.143 -0.9890 -0.7261 -0.9457
17566TIP3   OH274188   5.459   0.601   3.921  0.2779 -0.3579  0.0316
17566TIP3    H174189   5.427   0.586   3.832  2.9483  0.8014 -1.2343
17566TIP3    H274190   5.407   0.675   3.953  0.3213  0.2353 -1.2015
17567TIP3   OH274191   5.734   6.724  16.223 -0.2446 -0.0734 -0.5939
17567TIP3    H174192   5.653   6.741  16.271  1.1249  0.6422  1.6094
17567TIP3    H274193   5.769   6.643  16.261  0.8370  0.4724 -0.3717
17568TIP3   OH274194   4.438   3.860  16.399  0.1910 -0.1897 -0.3785
17568TIP3    H174195   4.427   3.949  16.366  0.5673 -0.3870 -1.0732
17568TIP3    H274196   4.527   3.836  16.372  0.7551 -0.1425  1.3520
17569TIP3   OH274197   2.966   1.984  13.599 -0.2164 -0.6554 -0.0395
17569TIP3    H174198   2.916   1.992  13.518  0.1599  0.3935 -0.1843
17569TIP3    H274199   2.994   2.073  13.619  0.3512 -1.0122  0.8325
17570TIP3   OH274200   3.762   4.886   0.188 -0.3962  0.2152  0.0998
17570TIP3    H174201   3.820   4.811   0.175 -0.8364 -0.0768 -0.2335
17570TIP3    H274202   3.797   4.931   0.264  1.7311  1.4391 -1.4944
17571TIP3   OH274203   3.440   3.038  12.639 -0.4921  0.2550 -0.4138
17571TIP3    H174204   3.413   2.999  12.723  0.2074 -0.5309 -0.5371
17571TIP3    H274205   3.446   3.131  12.657  0.2836  0.0319  0.6141
17572TIP3   OH274206   3.080   2.858  11.344  0.8376 -0.2411  0.1901
17572TIP3    H174207   3.138   2.876  11.418 -0.6137  1.7816  0.9269
17572TIP3    H274208   3.012   2.800  11.379 -0.6778  1.8723  0.9575
17573TIP3   OH274209   2.259   1.885  11.022  0.1169  0.2326 -0.4803
17573TIP3    H174210   2.296   1.957  10.970  0.8694  0.6963  0.6526
17573TIP3    H274211   2.315   1.810  11.004  1.7018  0.9249  1.2106
17574TIP3   OH274212   4.355   2.143   1.066  0.1561  0.0160  0.4846
17574TIP3    H174213   4.367   2.080   0.995 -0.8713  0.2111  0.1251
17574TIP3    H274214   4.427   2.205   1.056 -0.0510  0.1148 -0.4822
17575TIP3   OH274215   0.615   3.915  13.811 -0.3487  0.8185 -0.0320
17575TIP3    H174216   0.655   3.844  13.760 -0.8979 -1.4175  2.3822
17575TIP3    H274217   0.683   3.981  13.819  0.6176  0.0306 -1.3720
17576TIP3   OH274218   4.856   1.914  11.581 -0.0475  0.8194 -0.3655
17576TIP3    H174219   4.858   1.970  11.658 -0.0035  0.1432  0.1374
17576TIP3    H274220   4.946   1.911  11.550  0.1283  0.2691  0.1769
17577TIP3   OH274221   0.979   6.232   3.447  0.3668  0.6000  1.4321
17577TIP3    H174222   0.906   6.267   3.499 -0.2096 -1.2134  1.9558
17577TIP3    H274223   1.052   6.227   3.509  0.6392  1.4721  1.1823
17578TIP3   OH274224   0.609   3.421   4.365  0.0483  0.1664 -0.8771
17578TIP3    H174225   0.580   3.432   4.275 -0.9496  1.0377 -0.4615
17578TIP3    H274226   0.690   3.471   4.371 -0.5803  1.2082 -0.9544
17579TIP3   OH274227   1.653   0.764  10.922  0.0571 -0.2258 -0.2420
17579TIP3    H174228   1.679   0.823  10.851  1.3093 -2.1279 -1.4488
17579TIP3    H274229   1.580   0.714  10.885 -2.7082  2.0645  1.6179
17580TIP3   OH274230   4.917   3.957   2.897 -0.6892  0.1251 -0.2178
17580TIP3    H174231   5.002   3.993   2.872 -1.4533  0.7560 -2.1139
17580TIP3    H274232   4.866   4.033   2.925 -1.3479  0.1200 -1.3374
17581TIP3   OH274233   5.948   5.530  16.350 -0.2893 -0.5541  0.4658
17581TIP3    H174234   5.926   5.439  16.369 -1.0724 -0.6995 -1.0021
17581TIP3    H274235   6.017   5.525  16.284 -1.2693 -0.1063 -0.6205
17582TIP3   OH274236   0.645   4.449   0.059 -0.1048 -0.4274  0.2093
17582TIP3    H174237   0.564   4.488   0.025 -0.7465 -1.5985  0.3459
17582TIP3    H274238   0.631   4.355   0.052  0.9990 -0.6571  0.8469
17583TIP3   OH274239   6.646   1.813  17.221 -0.3687 -0.4310  0.1801
17583TIP3    H174240   6.730   1.813  17.175  0.8875  3.4794  2.0198
17583TIP3    H274241   6.598   1.888  17.185 -1.3442 -0.1603  1.8937
17584TIP3   OH274242   1.436   3.710  12.825  0.2389  0.5359  0.0308
17584TIP3    H174243   1.488   3.672  12.754  0.6290  1.4561 -0.1832
17584TIP3    H274244   1.501   3.741  12.889 -0.1090 -1.0844  1.2443
17585TIP3   OH274245   4.057   0.952   0.807 -0.4579  0.0486  0.2565
17585TIP3    H174246   4.049   1.046   0.792 -1.8809 -0.0602  0.2378
17585TIP3    H274247   4.057   0.942   0.902  2.8131  0.2670  0.4065
17586TIP3   OH274248   1.855   1.839   0.797 -0.2284 -0.0426 -0.2469
17586TIP3    H174249   1.814   1.764   0.753 -0.3181  0.3061 -0.7691
17586TIP3    H274250   1.891   1.892   0.725  2.0519 -0.8523  0.2382
17587TIP3   OH274251   0.332   4.812  14.839 -0.3825 -0.2757  0.6560
17587TIP3    H174252   0.296   4.773  14.759 -0.8686  2.6235 -0.6699
17587TIP3    H274253   0.271   4.785  14.908 -1.1728 -1.0958 -0.3321
17588TIP3   OH274254   2.823   5.426  14.368  0.1815 -0.3679 -0.2749
17588TIP3    H174255   2.732   5.419  14.339  0.5996  0.5049 -1.9026
17588TIP3    H274256   2.823   5.497  14.431 -0.1337  0.1920 -0.8975
17589TIP3   OH274257   5.855   1.832  17.154  0.2867  0.3469  0.3437
17589TIP3    H174258   5.831   1.925  17.152 -2.1794 -0.2313 -0.1578
17589TIP3    H274259   5.858   1.806  17.062 -2.7299 -0.8371  0.4645
17590TIP3   OH274260   1.763   3.114   1.132  0.0357  0.3913 -0.4118
17590TIP3    H174261   1.672   3.123   1.159 -0.7460 -3.3438 -1.1969
17590TIP3    H274262   1.758   3.108   1.036  1.3073  1.3745 -0.5618
17591TIP3   OH274263   5.306   0.407   2.570 -0.0129 -0.1185  0.6538
17591TIP3    H174264   5.278   0.490   2.609 -1.0615 -1.2217  2.3804
17591TIP3    H274265   5.225   0.364   2.544  0.5366 -0.5130 -0.4790
17592TIP3   OH274266   6.777   6.345   0.420 -0.2090 -0.2031 -0.2282
17592TIP3    H174267   6.816   6.431   0.439 -0.9334  0.3347 -1.0757
17592TIP3    H274268   6.810   6.323   0.333  1.2973 -1.5884  0.6435
17593TIP3   OH274269   6.122   4.284   2.648 -0.3791  0.3191  0.1936
17593TIP3    H174270   6.175   4.312   2.722 -0.8384  0.9114  0.3089
17593TIP3    H274271   6.038   4.259   2.686  0.4463 -2.7102  0.2850
17594TIP3   OH274272   3.330   4.557   1.647 -0.5630  0.8499 -0.2328
17594TIP3    H174273   3.275   4.593   1.578 -2.0509 -0.5741  0.1657
17594TIP3    H274274   3.277   4.565   1.726  0.6151  1.2821  0.5342
17595TIP3   OH274275   3.149   3.996   4.060 -0.0364 -0.2987 -0.2286
17595TIP3    H174276   3.099   4.052   4.119 -1.4678 -1.0810 -0.6545
17595TIP3    H274277   3.236   3.992   4.099 -0.5574  0.3409  1.0621
17596TIP3   OH274278   1.041   2.080  17.102  0.0395  0.8666  0.5606
17596TIP3    H174279   0.967   2.037  17.061  1.2253  0.0021 -0.7640
17596TIP3    H274280   1.003   2.154  17.149 -1.7967 -0.3682  1.1002
17597TIP3   OH274281   6.090   2.187   5.039 -0.3828 -0.3916  0.0778
17597TIP3    H174282   6.027   2.191   4.968 -0.8584 -1.2013  0.4395
17597TIP3    H274283   6.074   2.266   5.091  0.8201  0.8863 -1.3765
17598TIP3   OH274284   2.133   0.569   1.208  0.1739  0.3325 -0.5974
17598TIP3    H174285   2.054   0.516   1.223 -0.0288 -0.1303 -2.8234
17598TIP3    H274286   2.103   0.659   1.214  0.0802  0.2105  1.2056
17599TIP3   OH274287   2.576   0.044  13.405  0.0042 -0.2034 -0.1324
17599TIP3    H174288   2.534  -0.011  13.472 -1.4496 -0.6733 -1.3785
17599TIP3    H274289   2.535   0.130  13.416  0.0835 -0.1656 -0.1347
17600TIP3   OH274290   1.443   4.906   4.452 -0.0780 -0.3378 -0.0113
17600TIP3    H174291   1.351   4.882   4.442  0.0827 -0.8713 -0.2152
17600TIP3    H274292   1.454   4.923   4.545 -0.6774  0.9566 -0.1575
17601TIP3   OH274293   6.146   4.173   0.368 -0.4633 -0.6742  0.3039
17601TIP3    H174294   6.090   4.139   0.438 -0.7452 -1.2631 -0.1959
17601TIP3    H274295   6.233   4.139   0.389  0.3223  2.2866  2.4866
17602TIP3   OH274296   1.206   2.805   0.760 -0.1650  0.7395  0.6161
17602TIP3    H174297   1.198   2.775   0.670 -0.4396  1.2138  0.4844
17602TIP3    H274298   1.298   2.790   0.782  0.1248  1.5132 -0.0523
17603TIP3   OH274299   0.990   0.156   5.052 -0.6968  0.2229  0.3581
17603TIP3    H174300   1.034   0.216   5.113  1.0523 -1.2693  0.6454
17603TIP3    H274301   1.046   0.079   5.050 -1.4872 -0.3696 -2.0240
17604TIP3   OH274302   3.281   3.573  14.624 -0.3609 -0.3372  0.1574
17604TIP3    H174303   3.191   3.547  14.606 -0.4838  0.0609  0.1743
17604TIP3    H274304   3.279   3.669  14.622  0.4897 -0.3064 -1.9366
17605TIP3   OH274305   3.096   1.460   5.016 -0.0790  0.0065  0.5546
17605TIP3    H174306   3.017   1.512   5.019  0.1433  0.5073 -1.0911
17605TIP3    H274307   3.072   1.376   5.056 -0.7302  0.9662  2.2500
17606TIP3   OH274308   1.522   2.970  16.152  0.0269 -0.0347 -0.1924
17606TIP3    H174309   1.597   2.913  16.166  0.9453  0.7733 -1.6252
17606TIP3    H274310   1.449   2.911  16.134  0.0151 -0.8784  2.2200
17607TIP3   OH274311   1.962   0.558  13.869  0.1854  0.0510 -0.5019
17607TIP3    H174312   1.994   0.598  13.950 -0.5808  1.6122 -0.9448
17607TIP3    H274313   1.871   0.586  13.862  0.3187  0.1875 -2.0633
17608TIP3   OH274314   0.704   5.876   2.028 -0.1058  0.0503 -0.0889
17608TIP3    H174315   0.780   5.837   1.984  1.4123  1.0417  1.5292
17608TIP3    H274316   0.647   5.801   2.048  0.4680 -0.7296 -1.2281
17609TIP3   OH274317   0.165   1.792   1.030  0.2945  0.2975 -0.0019
17609TIP3    H174318   0.215   1.874   1.032  0.9746 -0.1241  0.5070
17609TIP3    H274319   0.190   1.751   0.947  0.2920  0.3918 -0.0498
17610TIP3   OH274320   1.502   4.882  12.878  0.1588  0.1481  0.1905
17610TIP3    H174321   1.417   4.866  12.837  0.2380  0.0345  0.0694
17610TIP3    H274322   1.491   4.964  12.926  0.4450  0.9745 -1.1141
17611TIP3   OH274323   0.965   2.119  13.371 -0.3239 -0.6163 -0.4905
17611TIP3    H174324   0.984   2.200  13.322 -1.1381  0.5228  0.9989
17611TIP3    H274325   0.967   2.146  13.463  1.4746 -2.7626  0.1956
17612TIP3   OH274326   1.386   5.278  11.579  0.0339 -0.4028  0.1468
17612TIP3    H174327   1.446   5.241  11.514  0.5246  0.9067 -0.1607
17612TIP3    H274328   1.376   5.370  11.554  0.2381  0.1365  1.9275
17613TIP3   OH274329   0.333   3.764   0.954 -0.1527 -0.1805 -0.2919
17613TIP3    H174330   0.357   3.835   0.894  0.7054 -0.3485 -0.1583
17613TIP3    H274331   0.359   3.685   0.907  0.4242 -0.3178  0.2523
17614TIP3   OH274332   2.699   1.633   2.006 -0.2807  0.0660  0.3071
17614TIP3    H174333   2.771   1.697   2.014 -0.0695 -0.2668  1.1999
17614TIP3    H274334   2.649   1.644   2.088  1.4550 -2.9362  1.9300
17615TIP3   OH274335   0.243   1.011   4.025  0.1130  0.0246  0.4256
17615TIP3    H174336   0.305   0.972   3.963  0.6345  1.0161  0.2993
17615TIP3    H274337   0.157   0.994   3.987  0.3899 -0.0163 -0.1990
17616TIP3   OH274338   3.298   0.719  15.752  0.3808  0.2771  0.3213
17616TIP3    H174339   3.322   0.653  15.687 -1.9347  1.9094 -2.4579
17616TIP3    H274340   3.376   0.774  15.759  1.8471 -1.8341  1.6312
17617TIP3   OH274341   2.525   3.864  12.658  0.2660  0.1196 -0.2451
17617TIP3    H174342   2.471   3.915  12.597  1.1355  0.1001 -1.0463
17617TIP3    H274343   2.606   3.913  12.666  0.5399 -0.3851  0.1365
17618TIP3   OH274344   3.444   5.462  16.907 -0.1560  0.4061  0.3613
17618TIP3    H174345   3.350   5.477  16.908  0.0890  2.3216 -0.0831
17618TIP3    H274346   3.472   5.473  16.998 -0.2757  0.5955  0.3755
17619TIP3   OH274347   5.310   2.699  13.634 -0.1355  0.3216 -0.6417
17619TIP3    H174348   5.249   2.665  13.699 -0.6965 -1.7761 -2.1655
17619TIP3    H274349   5.383   2.735  13.685 -1.7593  1.2168  1.1659
17620TIP3   OH274350   4.273   4.732  15.066  0.3232  0.1268 -0.0430
17620TIP3    H174351   4.236   4.796  15.005 -0.0160  1.0626  1.1158
17620TIP3    H274352   4.230   4.650  15.043 -0.0739  0.5398 -0.8126
17621TIP3   OH274353   4.706   4.630   5.384  0.0412  0.2307  0.4723
17621TIP3    H174354   4.709   4.711   5.435  1.5635  0.2629  0.3733
17621TIP3    H274355   4.792   4.591   5.396  0.2270 -0.0860 -1.5537
17622TIP3   OH274356   1.877   3.730  13.219  0.1832 -0.4217 -0.0762
17622TIP3    H174357   1.969   3.717  13.242 -0.2535  0.3023  2.4329
17622TIP3    H274358   1.836   3.761  13.300 -2.5445 -1.9065 -0.7507
17623TIP3   OH274359   2.387   2.951   3.739  0.3627 -0.1429 -0.0153
17623TIP3    H174360   2.432   2.956   3.824 -1.0461  0.2282  0.7473
17623TIP3    H274361   2.457   2.951   3.674  1.4561  0.2647  1.1281
17624TIP3   OH274362   5.423   0.105  16.025  0.9935 -0.5350  0.5371
17624TIP3    H174363   5.464   0.018  16.030 -1.4248 -1.7536  0.7656
17624TIP3    H274364   5.343   0.096  16.077 -0.6590  1.0099 -1.5888
17625TIP3   OH274365   0.391   5.281  12.184 -0.2653  0.3203  0.5087
17625TIP3    H174366   0.340   5.306  12.106  0.2950 -0.2976 -0.0733
17625TIP3    H274367   0.398   5.186  12.177  0.1311  0.3051  1.1095
17626TIP3   OH274368   5.859   6.327   6.511 -0.2071  0.3524  0.1850
17626TIP3    H174369   5.927   6.277   6.556 -0.0529  0.8239  0.4798
17626TIP3    H274370   5.826   6.267   6.445  1.7341  0.6667 -1.1779
17627TIP3   OH274371   2.496   5.649   1.840  0.1253 -0.0673  0.6113
17627TIP3    H174372   2.507   5.647   1.745  2.1254 -1.6557  0.7972
17627TIP3    H274373   2.490   5.742   1.862  0.1252  0.3382 -1.0226
17628TIP3   OH274374   1.702   5.808   4.171 -0.6601  0.3163 -0.6489
17628TIP3    H174375   1.669   5.896   4.190  1.7558  1.3098 -0.7081
17628TIP3    H274376   1.780   5.800   4.225 -1.6457 -2.4342  0.5187
17629TIP3   OH274377   2.244   0.564   4.744 -0.0744  0.0041  0.3610
17629TIP3    H174378   2.150   0.550   4.750 -0.0710  0.3758  1.5247
17629TIP3    H274379   2.253   0.654   4.713 -0.1062  0.1112  0.6602
17630TIP3   OH274380   6.819   4.669   2.495  0.3225 -0.4197  0.4473
17630TIP3    H174381   6.740   4.627   2.528 -0.6980 -0.0253 -1.3784
17630TIP3    H274382   6.863   4.701   2.574 -1.2290 -0.8068  1.5240
17631TIP3   OH274383   0.753   3.264   1.497  0.1252 -0.7542 -0.0134
17631TIP3    H174384   0.834   3.303   1.463  0.3068  0.1583  1.3877
17631TIP3    H274385   0.771   3.170   1.499  1.6112 -0.4977  1.3084
17632TIP3   OH274386   6.143   5.827  16.858 -0.4670  0.3277 -0.0619
17632TIP3    H174387   6.090   5.756  16.893  1.6634 -0.9816  0.6695
17632TIP3    H274388   6.146   5.810  16.764 -2.0651  0.9707 -0.2583
17633TIP3   OH274389   6.109   4.535   0.808 -0.2108 -0.1828  0.3378
17633TIP3    H174390   6.049   4.497   0.745 -0.8527  1.3793 -0.0452
17633TIP3    H274391   6.082   4.499   0.893 -0.8942 -0.4523  0.0094
17634TIP3   OH274392   2.269   3.835   1.668 -0.5766  0.2603  0.3948
17634TIP3    H174393   2.240   3.921   1.639 -2.4606 -0.4502  0.0124
17634TIP3    H274394   2.321   3.801   1.594  0.9641  1.3813  0.9119
17635TIP3   OH274395   1.945   2.823  13.654  0.0036 -0.0413  0.0426
17635TIP3    H174396   1.896   2.784  13.726 -1.9700 -1.8639 -2.1132
17635TIP3    H274397   2.026   2.772  13.649  0.3970  0.4374  1.2226
17636TIP3   OH274398   5.829   3.540   0.281 -0.1175 -0.2439  0.3570
17636TIP3    H174399   5.832   3.629   0.315  0.1630  0.7702 -2.1316
17636TIP3    H274400   5.738   3.513   0.290 -0.3225  0.5200  0.5980
17637TIP3   OH274401   4.734   6.403  16.862  0.6854 -0.1336 -0.4379
17637TIP3    H174402   4.739   6.335  16.795  0.4151 -1.3711  0.7562
17637TIP3    H274403   4.766   6.361  16.941 -1.8294  0.3222  0.9366
17638TIP3   OH274404   0.212   0.611  14.628  0.0490 -0.2135  0.3118
17638TIP3    H174405   0.233   0.607  14.722 -2.1355  2.1460  1.0058
17638TIP3    H274406   0.140   0.549  14.617  0.1041 -0.2678  0.2598
17639TIP3   OH274407   5.649   3.995   3.889  0.1437  0.1635 -0.7736
17639TIP3    H174408   5.736   4.006   3.851  0.5403 -0.5410 -0.1059
17639TIP3    H274409   5.611   4.083   3.888  0.6938  0.4041 -1.4575
17640TIP3   OH274410   1.703   5.937   1.876  0.0990 -0.1339  0.1062
17640TIP3    H174411   1.653   6.003   1.923 -0.0417  0.9135 -1.4195
17640TIP3    H274412   1.719   5.868   1.940 -0.4310  1.0182  1.5326
17641TIP3   OH274413   3.490   2.587   4.054  0.0511 -0.2759 -0.3024
17641TIP3    H174414   3.422   2.610   4.117  2.0753  0.5838  1.7114
17641TIP3    H274415   3.479   2.650   3.983 -2.5066 -1.4934 -1.1248
17642TIP3   OH274416   4.087   5.823   3.698  0.5649 -0.0726 -0.4403
17642TIP3    H174417   4.026   5.750   3.688  1.9083 -1.2011 -0.7370
17642TIP3    H274418   4.090   5.864   3.612  1.5649 -1.1343 -0.9285
17643TIP3   OH274419   5.051   1.782   0.747 -0.8127 -0.6129  0.2735
17643TIP3    H174420   5.101   1.726   0.806 -0.2252 -2.9677 -2.2489
17643TIP3    H274421   4.961   1.777   0.779 -0.4405 -1.4246  1.2278
17644TIP3   OH274422   1.445   2.391   0.453 -0.3118 -0.1158 -0.1220
17644TIP3    H174423   1.373   2.383   0.517  0.6171 -1.8722  0.7708
17644TIP3    H274424   1.493   2.469   0.481 -1.8789  1.1396 -0.7860
17645TIP3   OH274425   4.749   0.180  11.966 -0.3149  0.0243  0.0984
17645TIP3    H174426   4.765   0.110  12.030 -0.4379 -1.8081 -1.7601
17645TIP3    H274427   4.685   0.142  11.905  1.2329  0.9220 -2.2076
17646TIP3   OH274428   3.044   3.624  16.699 -0.4265  0.1003  0.6892
17646TIP3    H174429   2.974   3.657  16.642  0.3278 -0.9367 -0.9128
17646TIP3    H274430   3.012   3.539  16.730 -0.6005  0.4183  1.4155
17647TIP3   OH274431   2.848   2.891   4.838  0.1458  0.4252 -0.1731
17647TIP3    H174432   2.932   2.938   4.834  0.5992 -0.3215  0.3465
17647TIP3    H274433   2.858   2.831   4.912 -0.9653  0.5354  0.0747
17648TIP3   OH274434   2.177   4.928  11.670 -0.2574  0.0195 -0.1612
17648TIP3    H174435   2.115   4.860  11.643  0.4983 -0.6039 -0.3961
17648TIP3    H274436   2.169   4.996  11.603 -1.3344  0.3841  0.3106
17649TIP3   OH274437   0.904   6.229   2.496  0.1464  0.5314  0.0798
17649TIP3    H174438   0.932   6.311   2.536 -1.4556  0.8189  0.6831
17649TIP3    H274439   0.834   6.254   2.436  0.1221 -0.3182 -0.2558
17650TIP3   OH274440   1.190   3.587  14.795 -0.0264  0.4746  0.5898
17650TIP3    H174441   1.109   3.548  14.828 -0.9531  2.2796  0.5463
17650TIP3    H274442   1.169   3.616  14.706  0.6656  0.9527  0.5715
17651TIP3   OH274443   4.846   0.098   4.064  0.3180 -0.0433 -0.0583
17651TIP3    H174444   4.870   0.147   4.143  0.4758  0.6922 -0.5484
17651TIP3    H274445   4.828   0.166   3.999 -1.2183 -0.6161 -0.2575
17652TIP3   OH274446   4.446   1.206   2.856  0.1698  0.3159  0.2766
17652TIP3    H174447   4.512   1.260   2.812 -1.2836  0.9566 -1.1995
17652TIP3    H274448   4.435   1.131   2.799 -0.2325  0.1127  0.6197
17653TIP3   OH274449   2.648   3.968   5.114  0.2709  0.4680 -0.0272
17653TIP3    H174450   2.629   3.974   5.021 -1.4519 -0.2403  0.2331
17653TIP3    H274451   2.599   3.891   5.144  1.6930  0.0051  1.2612
17654TIP3   OH274452   3.592   1.937  12.654  0.2200 -0.7300  0.5118
17654TIP3    H174453   3.627   1.927  12.566  3.8271 -1.9155  1.8728
17654TIP3    H274454   3.631   2.019  12.686 -0.5500 -0.6209  1.1860
17655TIP3   OH274455   5.315   1.405  15.977 -0.4114 -0.1713 -1.0126
17655TIP3    H174456   5.337   1.410  15.884 -1.1248  0.7014 -1.1451
17655TIP3    H274457   5.391   1.363  16.017 -0.6903 -1.9506 -2.1965
17656TIP3   OH274458   0.209   6.788  13.989  0.3238  0.1562  0.4839
17656TIP3    H174459   0.144   6.724  13.961  0.6025 -0.3366  0.9360
17656TIP3    H274460   0.217   6.849  13.916  1.4116 -1.3704 -0.7143
17657TIP3   OH274461   5.907   6.433  11.211  0.5535  0.1369  0.1159
17657TIP3    H174462   5.825   6.400  11.249  1.1226  0.9834  2.2166
17657TIP3    H274463   5.882   6.515  11.168  0.4240  0.8825  1.5670
17658TIP3   OH274464   1.987   4.049   1.991 -0.0032 -0.0273  0.3218
17658TIP3    H174465   1.973   4.016   1.902  2.0846 -1.1549  0.3326
17658TIP3    H274466   1.900   4.069   2.024 -0.9091 -0.5935 -1.5985
17659TIP3   OH274467   0.426   2.996   5.260 -0.0879 -0.0102  0.2627
17659TIP3    H174468   0.498   2.971   5.202  0.0917 -1.1782  0.9578
17659TIP3    H274469   0.468   3.006   5.346 -0.5442  0.5542  0.4221
17660TIP3   OH274470   5.328   1.402   1.129  0.1209  0.7993 -0.3810
17660TIP3    H174471   5.259   1.370   1.187  0.6384 -0.2367 -0.3093
17660TIP3    H274472   5.332   1.336   1.059  1.1864  0.7321 -0.2671
17661TIP3   OH274473   2.638   1.763   3.585 -0.0613 -0.5181  0.2069
17661TIP3    H174474   2.564   1.703   3.584 -0.0585 -0.5310  0.6698
17661TIP3    H274475   2.631   1.811   3.502 -1.2072  0.2174  0.6945
17662TIP3   OH274476   3.123   5.712  15.143  0.6205  0.0792  0.1578
17662TIP3    H174477   3.119   5.666  15.227  0.3360  0.5309  0.3974
17662TIP3    H274478   3.129   5.805  15.167  0.6790  0.2029 -0.3223
17663TIP3   OH274479   5.305   2.573  12.124  0.1300  0.2187 -0.1772
17663TIP3    H174480   5.258   2.514  12.183  0.4158  0.1849  0.0193
17663TIP3    H274481   5.395   2.572  12.156  0.3547 -0.0278 -0.7890
17664TIP3   OH274482   6.697   4.701   1.191 -0.1243  0.4140  1.0872
17664TIP3    H174483   6.682   4.689   1.097 -0.2744  0.3509  1.1197
17664TIP3    H274484   6.759   4.774   1.196  0.8594 -0.3886  0.8887
17665TIP3   OH274485   2.132   5.260   3.595  0.6606  0.3436 -0.4532
17665TIP3    H174486   2.149   5.181   3.543  1.7570  0.8980 -0.9700
17665TIP3    H274487   2.117   5.228   3.684 -0.9104 -0.5981 -1.0210
17666TIP3   OH274488   0.850   4.745  14.796 -0.1092 -0.1191 -0.1714
17666TIP3    H174489   0.768   4.696  14.792  0.6851 -1.4585 -1.0776
17666TIP3    H274490   0.875   4.745  14.888 -1.4626  0.9400  0.2252
17667TIP3   OH274491   5.182   4.150   4.148 -0.2107 -0.2827  0.2063
17667TIP3    H174492   5.236   4.076   4.120 -1.0997 -0.3830 -1.3812
17667TIP3    H274493   5.124   4.166   4.073 -1.9365  0.2272  1.5971
17668TIP3   OH274494   0.769   0.767  15.592 -0.0526  0.5286 -0.6713
17668TIP3    H174495   0.777   0.801  15.681  0.1607  0.7539 -0.7756
17668TIP3    H274496   0.824   0.825  15.539  0.6570 -0.2233 -0.7910
17669TIP3   OH274497   4.405   4.308  10.591  0.2759  0.2448 -0.2699
17669TIP3    H174498   4.457   4.240  10.549 -0.9577 -1.5043  0.8683
17669TIP3    H274499   4.470   4.362  10.637  1.2130 -1.0579  0.0135
17670TIP3   OH274500   0.274   4.460   1.006 -0.2190  0.3875 -0.0661
17670TIP3    H174501   0.240   4.408   0.933  0.7273  2.4533 -2.1023
17670TIP3    H274502   0.368   4.468   0.987 -0.1407  1.8005  0.8330
17671TIP3   OH274503   4.743   4.654  16.296  0.0961 -0.6276 -0.0487
17671TIP3    H174504   4.649   4.643  16.307  0.1125 -0.0859  0.7035
17671TIP3    H274505   4.761   4.621  16.208 -1.0368  0.6486 -0.8025
17672TIP3   OH274506   1.708   3.190  14.159 -0.1207  0.0288 -0.2223
17672TIP3    H174507   1.771   3.173  14.229 -0.0907 -1.9822 -0.6906
17672TIP3    H274508   1.761   3.221  14.086  0.0623  0.3653  0.0476
17673TIP3   OH274509   1.295   3.276  15.521 -0.4893 -0.1029 -0.8152
17673TIP3    H174510   1.318   3.326  15.443  2.0114 -0.5937 -0.4848
17673TIP3    H274511   1.364   3.210  15.529 -1.7118 -1.2874  0.7708
17674TIP3   OH274512   0.006   6.387  15.835 -0.3793 -0.0410 -0.4116
17674TIP3    H174513   0.062   6.417  15.907  0.4204 -0.9988 -0.6165
17674TIP3    H274514   0.050   6.420  15.757  0.9046 -2.2341 -0.6935
17675TIP3   OH274515   0.473   5.904  12.941 -0.5896 -0.0067  0.0947
17675TIP3    H174516   0.518   5.946  12.868 -1.4393  1.6685  0.4720
17675TIP3    H274517   0.386   5.944  12.942 -1.0998 -1.0691  1.1273
17676TIP3   OH274518   2.532   1.734  15.568 -0.2271 -0.3148  0.6300
17676TIP3    H174519   2.624   1.735  15.540 -0.4488  0.0485 -0.1081
17676TIP3    H274520   2.531   1.675  15.643  0.5897 -0.4159  0.5761
17677TIP3   OH274521   1.571   4.854   0.427  0.2225  0.4874  0.4236
17677TIP3    H174522   1.576   4.762   0.402  3.7396  0.5910  0.1387
17677TIP3    H274523   1.626   4.861   0.505 -2.7478  1.8712  2.5987
17678TIP3   OH274524   4.872   6.520   4.987 -0.0555  0.0918 -0.0408
17678TIP3    H174525   4.927   6.564   5.052 -2.8911 -1.0621  3.5094
17678TIP3    H274526   4.848   6.588   4.925  0.6238  2.0328  1.7121
17679TIP3   OH274527   3.428   6.224   6.379 -0.3265 -0.1548 -0.1842
17679TIP3    H174528   3.508   6.188   6.417  0.7060  0.9550 -1.2434
17679TIP3    H274529   3.377   6.146   6.355  0.9394 -0.8954 -0.5653
17680TIP3   OH274530   5.827   5.754   0.931  0.3039  0.0868 -0.2450
17680TIP3    H174531   5.921   5.739   0.919  0.7028  2.5473 -0.8679
17680TIP3    H274532   5.820   5.788   1.021  0.2848  1.3834 -0.7066
17681TIP3   OH274533   1.916   3.108  12.476  0.3179 -0.3496  0.1598
17681TIP3    H174534   1.938   3.157  12.556 -2.7346  1.4441  0.0855
17681TIP3    H274535   1.840   3.056  12.501  0.0423 -0.6574 -1.2739
17682TIP3   OH274536   5.812   5.279   0.630 -0.0413 -0.0140 -0.4799
17682TIP3    H174537   5.744   5.218   0.660 -0.4213  1.2106  1.2646
17682TIP3    H274538   5.762   5.352   0.593  0.3863 -0.0826 -1.2016
17683TIP3   OH274539   6.553   1.540  12.322 -0.3609 -0.1126  0.0500
17683TIP3    H174540   6.470   1.578  12.352 -0.0587  0.3456  0.3206
17683TIP3    H274541   6.603   1.526  12.402 -0.1951 -0.4408 -0.1080
17684TIP3   OH274542   3.446   5.185  15.674  0.4195 -0.0778  0.2025
17684TIP3    H174543   3.472   5.106  15.722  1.5506 -1.9695 -3.1715
17684TIP3    H274544   3.350   5.186  15.680  0.5346  0.2545  3.0297
17685TIP3   OH274545   0.289   3.209  16.196 -0.1293 -0.2649  0.0643
17685TIP3    H174546   0.266   3.162  16.116  0.4522  0.0514 -0.3056
17685TIP3    H274547   0.206   3.244  16.229 -0.7117 -2.2690  0.8374
17686TIP3   OH274548   3.496   0.985  10.726 -0.4201  0.2438  0.0455
17686TIP3    H174549   3.480   1.021  10.813  0.2276  2.3846 -0.6765
17686TIP3    H274550   3.497   1.061  10.667  1.5579 -0.8744 -1.4937
17687TIP3   OH274551   4.775   3.592  14.179  0.2534  0.0248  0.2382
17687TIP3    H174552   4.795   3.686  14.178  0.7397 -0.0562  0.9013
17687TIP3    H274553   4.688   3.585  14.141  0.7455  0.6014 -1.0652
17688TIP3   OH274554   3.340   4.208   4.155 -0.3195 -0.5050 -0.5616
17688TIP3    H174555   3.316   4.287   4.203  0.5262 -1.4200  1.4782
17688TIP3    H274556   3.390   4.240   4.080  1.2991  0.8586  1.0278
17689TIP3   OH274557   2.446   0.020  16.327 -0.0909  0.1962  0.1151
17689TIP3    H174558   2.525  -0.029  16.345 -1.1598 -1.7046 -0.1077
17689TIP3    H274559   2.438   0.019  16.231  0.7735  2.3765 -0.0426
17690TIP3   OH274560   1.030   6.676   2.959  0.3609  0.3277 -0.2195
17690TIP3    H174561   1.072   6.590   2.962  0.4738  0.4047  1.1408
17690TIP3    H274562   1.034   6.702   2.867  1.9594 -0.3154 -0.3608
17691TIP3   OH274563   3.199   6.817   4.346 -0.1954  0.2169 -0.5548
17691TIP3    H174564   3.110   6.827   4.313 -0.0887  0.1119 -0.8771
17691TIP3    H274565   3.211   6.722   4.353 -0.9979  0.2227  1.9299
17692TIP3   OH274566   6.699   6.698  16.393 -0.2634  0.1394  0.2134
17692TIP3    H174567   6.738   6.615  16.422 -2.5888 -1.0296  0.2358
17692TIP3    H274568   6.739   6.764  16.450  0.5349 -1.1671  1.2371
17693TIP3   OH274569   5.758   4.323   0.872 -0.1243  0.0559 -0.1853
17693TIP3    H174570   5.685   4.383   0.854 -1.4031 -0.6900  2.0265
17693TIP3    H274571   5.827   4.379   0.907 -0.2201  0.5951 -0.8475
17694TIP3   OH274572   2.984   3.971   5.799  0.4093  0.0197 -0.1067
17694TIP3    H174573   3.062   4.004   5.843 -0.0095  0.7090  0.1306
17694TIP3    H274574   2.912   3.990   5.860 -0.1549  0.8022 -0.9946
17695TIP3   OH274575   2.737   5.920  14.718 -0.3714  0.0892  0.1488
17695TIP3    H174576   2.822   5.904  14.758 -0.2788  1.7260  0.6730
17695TIP3    H274577   2.751   5.996  14.661 -1.6377  0.8568  0.8162
17696TIP3   OH274578   5.836   0.196  11.032  0.2348  0.4196 -0.3151
17696TIP3    H174579   5.906   0.210  10.969  0.6602  0.2719  0.1148
17696TIP3    H274580   5.820   0.283  11.070  1.6618  0.1145  1.0973
17697TIP3   OH274581   1.743   0.800   0.782 -0.4176 -0.5057  0.5102
17697TIP3    H174582   1.776   0.829   0.867 -1.2723  0.6340  0.4722
17697TIP3    H274583   1.707   0.879   0.742  0.4431 -0.9156 -1.1452
17698TIP3   OH274584   0.649   1.766  14.034  0.5784  0.1491 -0.4920
17698TIP3    H174585   0.585   1.756  14.105  0.5424  1.4512 -0.3098
17698TIP3    H274586   0.642   1.858  14.009  1.3573 -0.0401 -1.4661
17699TIP3   OH274587   1.373   0.946  15.107 -0.4131  0.4488 -0.0061
17699TIP3    H174588   1.278   0.937  15.103 -0.3533 -0.8109  1.0087
17699TIP3    H274589   1.407   0.872  15.057  0.0490  0.5341  0.1752
17700TIP3   OH274590   4.091   2.734  13.846  0.2497 -0.0748  0.5328
17700TIP3    H174591   4.062   2.642  13.844 -0.6038  0.1989 -0.1544
17700TIP3    H274592   4.123   2.747  13.935 -1.0122 -0.6246  1.0869
17701TIP3   OH274593   0.082   0.151   5.201  0.3196  0.5497 -0.6693
17701TIP3    H174594   0.111   0.069   5.161 -1.0966  0.1493 -0.9277
17701TIP3    H274595   0.013   0.125   5.262  1.3066  1.3396  0.8724
17702TIP3   OH274596   6.812   4.620  15.780 -0.3774  0.3775 -0.6276
17702TIP3    H174597   6.771   4.692  15.731  1.1593  1.5641 -0.2215
17702TIP3    H274598   6.822   4.551  15.715 -3.5397 -0.2583 -0.6277
17703TIP3   OH274599   4.111   2.130   3.979  0.0283 -0.1332  0.1248
17703TIP3    H174600   4.156   2.213   3.996  0.0227  0.5004 -2.5290
17703TIP3    H274601   4.050   2.150   3.908 -2.5021 -1.6372  1.6943
17704TIP3   OH274602   1.597   4.290   1.056 -0.4252 -0.5019  0.2070
17704TIP3    H174603   1.523   4.324   1.107 -0.3921  1.5288 -1.0046
17704TIP3    H274604   1.557   4.234   0.990 -0.7221 -0.7907  0.6276
17705TIP3   OH274605   0.124   3.606   2.417 -0.1692 -0.3498  0.5936
17705TIP3    H174606   0.063   3.606   2.491 -0.9957 -1.1633 -0.0543
17705TIP3    H274607   0.102   3.685   2.368  0.0712 -0.0484  0.9686
17706TIP3   OH274608   4.121   5.453   5.606 -0.0389  0.3737  0.1557
17706TIP3    H174609   4.060   5.389   5.642 -0.3768 -0.3358 -1.5684
17706TIP3    H274610   4.135   5.424   5.515  3.1689  0.2691  0.5649
17707TIP3   OH274611   2.263   1.789  15.157  0.9889 -0.3170  0.2560
17707TIP3    H174612   2.185   1.753  15.115  1.4464 -1.9558  0.7211
17707TIP3    H274613   2.242   1.789  15.250  0.9156  0.9081  0.2561
17708TIP3   OH274614   6.299   5.365   2.728  0.3778 -0.6797  0.2584
17708TIP3    H174615   6.245   5.288   2.707  1.3351 -0.5007 -3.4319
17708TIP3    H274616   6.292   5.421   2.651  1.6282  1.8669  1.8772
17709TIP3   OH274617   3.675   6.618   3.188 -0.0649  0.4618 -0.0828
17709TIP3    H174618   3.763   6.641   3.158  0.8742  0.1263  2.2302
17709TIP3    H274619   3.664   6.526   3.163  0.8280  0.0856  0.8512
17710TIP3   OH274620   5.599   3.349   1.141 -0.1795  0.3678 -0.1267
17710TIP3    H174621   5.678   3.341   1.088  1.4440  0.6079  2.1376
17710TIP3    H274622   5.529   3.313   1.085  1.4016  0.5548 -2.3589
17711TIP3   OH274623   1.456   2.027  16.790  0.1168 -0.0328 -0.0717
17711TIP3    H174624   1.499   2.061  16.869 -0.1816  0.5730 -0.1653
17711TIP3    H274625   1.528   2.005  16.731  0.3286  2.0881 -0.6994
17712TIP3   OH274626   2.909   2.740  12.289 -0.5022  0.6034  0.3018
17712TIP3    H174627   2.990   2.726  12.240  0.2057  0.5054  1.4534
17712TIP3    H274628   2.846   2.681  12.248  0.0575  0.5344 -0.4851
17713TIP3   OH274629   1.928   3.075   2.954 -0.1602 -0.2707 -0.1990
17713TIP3    H174630   1.865   3.005   2.934 -1.0874  0.6928 -0.7038
17713TIP3    H274631   1.874   3.149   2.982  0.7128  0.7032 -1.0185
17714TIP3   OH274632   1.520   5.678  14.932 -0.3665 -0.0947 -0.3918
17714TIP3    H174633   1.432   5.715  14.917 -0.1989 -0.3770 -2.2393
17714TIP3    H274634   1.519   5.652  15.024 -1.3642  2.1618  0.3179
17715TIP3   OH274635   1.960   5.883   2.788  0.3214 -0.6165 -0.0824
17715TIP3    H174636   2.008   5.803   2.809  1.9859  0.2272 -0.5371
17715TIP3    H274637   1.945   5.926   2.873  1.0419 -0.5175 -0.0052
17716TIP3   OH274638   4.076   6.343   5.558  0.1996  0.2670  0.5279
17716TIP3    H174639   4.023   6.423   5.554 -0.8387 -0.3802  0.8025
17716TIP3    H274640   4.055   6.296   5.477  0.9395  0.3529  0.2830
17717TIP3   OH274641   3.134   3.324  12.330 -0.3786 -0.2157 -0.4049
17717TIP3    H174642   3.106   3.233  12.337 -1.1804  0.0671  0.0783
17717TIP3    H274643   3.226   3.318  12.302  0.4786 -1.2469  2.3005
17718TIP3   OH274644   0.763   3.685  15.682 -0.5615  0.6566 -0.2373
17718TIP3    H174645   0.690   3.678  15.621 -0.5627  4.0156 -0.8080
17718TIP3    H274646   0.815   3.758  15.649  1.5749  0.1206  1.6738
17719TIP3   OH274647   3.377   5.592  16.000  0.4016  0.0777  0.2148
17719TIP3    H174648   3.413   5.645  16.071  0.0308 -0.0561  0.5049
17719TIP3    H274649   3.409   5.503  16.019 -0.4092 -0.1169  0.7011
17720TIP3   OH274650   5.435   5.177  12.954 -0.4937 -0.0547  0.0152
17720TIP3    H174651   5.487   5.197  13.032 -2.4486 -0.2385  1.4345
17720TIP3    H274652   5.418   5.084  12.959 -2.4790  0.3048  0.6001
17721TIP3   OH274653   1.693   1.931  15.044 -0.2283 -0.1253 -0.1222
17721TIP3    H174654   1.640   1.896  14.973  0.1276 -0.7427 -0.0886
17721TIP3    H274655   1.777   1.885  15.037 -0.5916 -1.0819  1.4225
17722TIP3   OH274656   4.170   4.723  16.140  0.2812 -0.0383  0.3663
17722TIP3    H174657   4.130   4.744  16.055  3.0153 -0.2919 -1.0803
17722TIP3    H274658   4.193   4.808  16.177  1.6896 -0.0025 -0.5304
17723TIP3   OH274659   2.500   4.878   2.801 -0.8018  0.2898  0.2882
17723TIP3    H174660   2.477   4.794   2.761 -0.7666 -0.0067  0.8884
17723TIP3    H274661   2.429   4.937   2.775 -1.1390 -0.0793  0.3601
17724TIP3   OH274662   0.010   5.973   4.763 -0.1207 -0.4740 -0.4141
17724TIP3    H174663  -0.032   5.891   4.740 -0.6964 -1.1737  2.6782
17724TIP3    H274664   0.029   5.965   4.856  0.7007  2.5277 -0.2178
17725TIP3   OH274665   0.171   1.271   0.351  0.4575  0.4890 -0.0284
17725TIP3    H174666   0.082   1.279   0.317  0.2381 -0.0030  0.4314
17725TIP3    H274667   0.215   1.351   0.322 -0.8632  2.0313  1.9408
17726TIP3   OH274668   6.246   2.403  13.046 -0.4445 -0.0377  0.3427
17726TIP3    H174669   6.282   2.483  13.006 -1.1631 -0.1327 -0.5311
17726TIP3    H274670   6.208   2.432  13.128  0.5861  0.2643  0.7304
17727TIP3   OH274671   6.620   3.910   0.916  0.2418  0.3186  0.1810
17727TIP3    H174672   6.695   3.865   0.954  0.6053  2.0267  1.6044
17727TIP3    H274673   6.617   3.995   0.961 -0.7350  1.5218 -1.9762
17728TIP3   OH274674   5.148   3.263  16.804 -0.5023  0.3148 -0.1335
17728TIP3    H174675   5.165   3.268  16.710  2.0858  1.0364  0.2828
17728TIP3    H274676   5.209   3.326  16.843  0.6042 -1.9938  2.1869
17729TIP3   OH274677   6.388   4.020   0.314 -0.4763  0.6953  0.3635
17729TIP3    H174678   6.337   3.943   0.289  0.0874  0.5381 -0.3375
17729TIP3    H274679   6.473   3.985   0.338 -0.0630  1.1371 -0.4248
17730TIP3   OH274680   0.856   3.145  11.095 -0.6378  0.0241 -0.0893
17730TIP3    H174681   0.906   3.226  11.087 -1.1632  0.3674  0.0888
17730TIP3    H274682   0.789   3.164  11.160  0.0149 -0.9501  0.9020
17731TIP3   OH274683   1.025   2.482  16.791  0.0284  0.3239  0.3923
17731TIP3    H174684   1.115   2.514  16.784 -0.3917  2.2473  2.5519
17731TIP3    H274685   1.004   2.451  16.703  1.5071  3.4646 -1.2218
17732TIP3   OH274686   5.481   4.746   5.862  0.0389  0.0227 -0.2040
17732TIP3    H174687   5.485   4.833   5.902  0.9487  0.7979 -1.8728
17732TIP3    H274688   5.551   4.696   5.906 -0.3976  0.1574  0.6609
17733TIP3   OH274689   0.239   6.519  16.329 -0.2185 -0.0129  0.5919
17733TIP3    H174690   0.277   6.431  16.332 -1.0522 -0.3705  1.1234
17733TIP3    H274691   0.314   6.577  16.318  0.3223 -0.8017 -0.0484
17734TIP3   OH274692   1.940   0.993   3.816 -0.1799  0.2560 -0.2351
17734TIP3    H174693   1.852   1.025   3.833  0.1373  1.4031 -0.6664
17734TIP3    H274694   1.927   0.905   3.780 -1.2134  0.8832 -1.4767
17735TIP3   OH274695   0.791   6.361   1.247  0.4729  0.1852  0.1925
17735TIP3    H174696   0.762   6.296   1.312  2.3203  0.3764  1.2637
17735TIP3    H274697   0.783   6.316   1.163 -2.8273  0.2127  0.3325
17736TIP3   OH274698   4.463   2.482  12.121  0.0191 -0.3202 -0.0545
17736TIP3    H174699   4.472   2.535  12.199  0.7678  0.3580 -0.5869
17736TIP3    H274700   4.374   2.498  12.091 -0.5260 -1.1759  1.0660
17737TIP3   OH274701   4.861   1.104   1.238  0.1072  0.8018  0.3488
17737TIP3    H174702   4.890   1.024   1.195  1.2653  1.1535  0.4447
17737TIP3    H274703   4.942   1.150   1.261 -0.5114  1.4044  1.4259
17738TIP3   OH274704   2.519   4.959   5.251  0.3651 -0.2335  0.1870
17738TIP3    H174705   2.544   4.959   5.343  0.2176  0.4266  0.2349
17738TIP3    H274706   2.542   5.047   5.220  2.0034 -0.9761 -0.8573
17739TIP3   OH274707   5.523   1.557   0.501  0.2485 -0.4292  0.0015
17739TIP3    H174708   5.596   1.542   0.441 -0.2810 -0.4495 -0.6506
17739TIP3    H274709   5.553   1.523   0.585  1.9597  1.8181  0.3932
17740TIP3   OH274710   1.656   4.703  13.956 -0.2996  0.0233  0.4298
17740TIP3    H174711   1.622   4.629  13.907  3.2983 -2.3011  1.0786
17740TIP3    H274712   1.662   4.672  14.046  0.6884  1.3214  0.8427
17741TIP3   OH274713   0.654   1.573  15.133 -0.0875 -0.5392  0.0898
17741TIP3    H174714   0.736   1.592  15.180  0.9803 -1.3160 -1.3678
17741TIP3    H274715   0.674   1.495  15.081 -1.4630 -0.1817 -1.0242
17742TIP3   OH274716   6.065   6.461   0.851  0.0507 -0.6806 -0.8428
17742TIP3    H174717   6.052   6.512   0.771 -0.1437 -2.4201 -1.9770
17742TIP3    H274718   6.077   6.371   0.820 -0.2289 -1.4340  1.1068
17743TIP3   OH274719   0.704   4.417   2.453  0.5226 -0.0960  0.0923
17743TIP3    H174720   0.675   4.328   2.432  0.8696 -0.0741 -0.5062
17743TIP3    H274721   0.624   4.462   2.479 -0.2624  0.3020 -2.6809
17744TIP3   OH274722   2.921   0.916  15.578  0.0285 -0.3584  0.1577
17744TIP3    H174723   2.830   0.943  15.591  0.5487  0.5897  2.4244
17744TIP3    H274724   2.931   0.908  15.483 -2.7705 -1.8501 -0.1258
17745TIP3   OH274725   3.194   0.179  16.805 -0.9737 -0.3159 -0.5583
17745TIP3    H174726   3.210   0.232  16.883  1.3363 -0.7893 -0.6306
17745TIP3    H274727   3.108   0.207  16.774 -0.5244  2.2460  0.2764
17746TIP3   OH274728   4.295   0.184   3.380  0.2689  1.1542  0.2901
17746TIP3    H174729   4.338   0.215   3.301  1.1936  1.2529  0.8218
17746TIP3    H274730   4.218   0.241   3.389 -1.4480 -0.5562 -2.0032
17747TIP3   OH274731   0.194   6.138  15.642 -0.6141  0.0137 -0.1416
17747TIP3    H174732   0.231   6.053  15.618 -2.3636 -1.0375  0.6828
17747TIP3    H274733   0.119   6.149  15.583  1.7188  2.8989 -2.9823
17748TIP3   OH274734   5.652   1.889   5.209 -0.0467  0.5756 -0.0245
17748TIP3    H174735   5.618   1.951   5.274  1.0463  0.2957  0.8479
17748TIP3    H274736   5.580   1.827   5.196 -0.2050  0.4774  1.1448
17749TIP3   OH274737   6.545   4.695   0.244 -0.1467  0.0637  0.0252
17749TIP3    H174738   6.464   4.746   0.250  0.1313  0.4432  0.5516
17749TIP3    H274739   6.555   4.678   0.151 -0.8128  0.0477 -0.0512
17750TIP3   OH274740   4.849   1.691  11.401 -0.2482 -0.3038  0.2389
17750TIP3    H174741   4.840   1.761  11.466  0.5824 -0.7646  0.8755
17750TIP3    H274742   4.763   1.651  11.397 -0.6944  0.6560 -0.0243
17751TIP3   OH274743   6.171   3.270   4.113  0.1001 -0.3423 -0.2356
17751TIP3    H174744   6.193   3.241   4.025 -0.3954 -1.4349 -0.0201
17751TIP3    H274745   6.236   3.229   4.170 -0.0520 -0.2875 -0.0165
17752TIP3   OH274746   4.406   0.886  11.767 -0.4164 -0.0432  0.0916
17752TIP3    H174747   4.456   0.885  11.848 -1.9658  0.0924  1.0832
17752TIP3    H274748   4.461   0.839  11.704 -0.3621 -2.6562  1.9397
17753TIP3   OH274749   4.522   1.726  17.108 -0.2310 -0.3316 -0.0611
17753TIP3    H174750   4.446   1.777  17.078  0.0230 -0.0522 -0.2267
17753TIP3    H274751   4.483   1.653  17.157 -0.6865 -1.0884 -1.4707
17754TIP3   OH274752   0.022   5.278  11.854 -0.1111  0.1657  0.6380
17754TIP3    H174753  -0.061   5.234  11.874  0.5040 -0.9796  0.7949
17754TIP3    H274754   0.056   5.230  11.779  0.2737  0.8151  0.3929
17755TIP3   OH274755   4.710   4.257  14.341 -0.0338  0.3565  0.2452
17755TIP3    H174756   4.760   4.188  14.385 -1.2192 -0.9851 -0.4304
17755TIP3    H274757   4.755   4.338  14.365  1.8430 -0.6921  0.5027
17756TIP3   OH274758   5.453   4.798  11.727  0.3672 -0.5573 -0.6411
17756TIP3    H174759   5.536   4.823  11.687  0.6953 -1.9650 -0.8736
17756TIP3    H274760   5.389   4.805  11.656 -0.3155  3.0876  0.1057
17757TIP3   OH274761   5.981   0.507  15.495 -0.5686 -0.2251 -0.1612
17757TIP3    H174762   6.062   0.516  15.545 -0.1276 -1.8322 -0.5369
17757TIP3    H274763   5.994   0.429  15.442 -2.2960 -0.3954 -0.3927
17758TIP3   OH274764   3.054   1.725   2.910  0.4162 -0.3001  0.4168
17758TIP3    H174765   3.078   1.638   2.944  1.4814  0.4451  1.6895
17758TIP3    H274766   3.128   1.749   2.854 -0.9688 -1.1801 -1.8992
17759TIP3   OH274767   3.580   5.060  12.097 -0.2126 -0.1298  0.5104
17759TIP3    H174768   3.549   5.147  12.069 -0.7724 -0.1614  1.0076
17759TIP3    H274769   3.632   5.078  12.176 -1.1198 -0.3347  1.1665
17760TIP3   OH274770   2.927   3.907   4.777 -0.0572  0.1500  0.0279
17760TIP3    H174771   3.015   3.876   4.754 -0.6327  0.1638 -2.4803
17760TIP3    H274772   2.892   3.839   4.834  1.2003 -0.3607  0.2305
17761TIP3   OH274773   2.302   0.831   0.373  0.0848  0.2040 -0.1594
17761TIP3    H174774   2.347   0.894   0.315 -1.1023  0.4695 -0.8250
17761TIP3    H274775   2.321   0.863   0.461 -0.3087  1.3877 -0.4784
17762TIP3   OH274776   2.442   5.618  11.393  1.0035 -0.0014 -0.2532
17762TIP3    H174777   2.512   5.625  11.328  0.9949 -0.3306 -0.3010
17762TIP3    H274778   2.476   5.664  11.470  0.9955  0.4286 -0.5040
17763TIP3   OH274779   1.335   3.115  12.734  0.5280  0.5338  0.3085
17763TIP3    H174780   1.426   3.119  12.765  0.2920  0.2785  1.0305
17763TIP3    H274781   1.307   3.025  12.752 -0.3052  0.9832  1.3236
17764TIP3   OH274782   4.202   0.840  14.576 -0.1623  0.2272 -0.5425
17764TIP3    H174783   4.130   0.861  14.635  0.3984 -1.3728  0.7617
17764TIP3    H274784   4.166   0.774  14.516 -0.2191  0.5586 -0.8764
17765TIP3   OH274785   5.865   2.037   4.286  0.9039 -0.0398 -0.2348
17765TIP3    H174786   5.883   2.130   4.276 -0.5417  0.2877 -0.1069
17765TIP3    H274787   5.949   1.998   4.310  1.2699  1.4208  1.0254
17766TIP3   OH274788   4.444   4.325  16.626  0.1479  0.1646  0.0309
17766TIP3    H174789   4.431   4.232  16.642 -0.0172  0.3420  1.0187
17766TIP3    H274790   4.377   4.348  16.561  0.1978 -0.4020 -0.2260
17767TIP3   OH274791   6.119   1.666   5.902 -0.0829 -0.0369 -0.0627
17767TIP3    H174792   6.112   1.603   5.974 -1.6627 -0.1995 -0.3358
17767TIP3    H274793   6.140   1.749   5.945  2.2977 -0.7205  0.2829
17768TIP3   OH274794   2.445   6.619   5.128 -0.0737 -0.0842 -0.0168
17768TIP3    H174795   2.395   6.549   5.170  2.3730 -1.3652  0.9698
17768TIP3    H274796   2.453   6.687   5.195 -1.1713  0.5072 -0.4665
17769TIP3   OH274797   3.582   0.069  12.852 -0.5467  0.0275  0.9561
17769TIP3    H174798   3.490   0.055  12.830 -0.1082 -3.1630  0.7191
17769TIP3    H274799   3.605   0.151  12.808 -2.8068 -0.0263 -0.4850
17770TIP3   OH274800   2.625   0.548   4.774 -0.3112 -0.4550 -0.3038
17770TIP3    H174801   2.576   0.630   4.767  0.6027  0.0418 -1.3023
17770TIP3    H274802   2.626   0.528   4.867 -0.4781  0.7371 -0.0281
17771TIP3   OH274803   0.212   5.691   2.569  0.4436  0.4510 -0.0963
17771TIP3    H174804   0.176   5.680   2.481 -1.1107 -0.2709  0.5896
17771TIP3    H274805   0.220   5.786   2.580 -0.9849  0.6274 -0.4084
17772TIP3   OH274806   1.414   6.160  14.672  1.0392 -0.4122  0.4251
17772TIP3    H174807   1.436   6.239  14.623  0.1472 -0.2286  0.3095
17772TIP3    H274808   1.321   6.170  14.693  0.5647 -2.0778 -0.7819
17773TIP3   OH274809   5.229   3.027   2.674 -0.0933  0.0355  0.1145
17773TIP3    H174810   5.134   3.020   2.673 -0.2080  1.1632 -1.0339
17773TIP3    H274811   5.251   3.055   2.585  1.3793 -0.8719  0.1610
17774TIP3   OH274812   0.157   0.909   5.354  1.0065 -0.2235 -0.3595
17774TIP3    H174813   0.066   0.888   5.333 -0.4664  1.5097  3.4649
17774TIP3    H274814   0.185   0.969   5.284 -2.3224  2.5500  0.4405
17775TIP3   OH274815   5.266   0.374   5.602  0.3515  0.1357 -0.5503
17775TIP3    H174816   5.357   0.381   5.630  0.1319 -0.6117  0.4102
17775TIP3    H274817   5.241   0.464   5.579  0.4396  0.9245  2.0840
17776TIP3   OH274818   4.997   0.187  16.010  0.5830  0.0917 -0.3232
17776TIP3    H174819   4.982   0.098  16.043 -0.2331  0.5368  0.5418
17776TIP3    H274820   4.911   0.216  15.979  0.6038  0.9881  0.4385
17777TIP3   OH274821   6.386   2.720  11.561  0.4414 -0.6226  0.1823
17777TIP3    H174822   6.468   2.704  11.515  0.8395 -3.1443  1.5821
17777TIP3    H274823   6.407   2.787  11.626  0.6155  0.8131 -1.3032
17778TIP3   OH274824   0.711   2.016  15.294  0.0855 -1.1517 -0.4125
17778TIP3    H174825   0.619   2.009  15.266  0.2018  1.2012 -1.5991
17778TIP3    H274826   0.706   2.033  15.388 -0.7753  0.1866 -0.6818
17779TIP3   OH274827   6.179   6.756   4.717  0.0223  0.3899 -0.3958
17779TIP3    H174828   6.126   6.793   4.788  1.5246  0.3020  0.8247
17779TIP3    H274829   6.227   6.831   4.682 -0.4429  0.3699 -1.0789
17780TIP3   OH274830   5.751   5.333  14.026 -0.3547  0.1686 -0.0854
17780TIP3    H174831   5.752   5.425  14.000 -0.0562  0.7402  1.7978
17780TIP3    H274832   5.660   5.315  14.051 -0.0406  0.5526  1.4266
17781TIP3   OH274833   6.688   2.183  14.293 -1.0133  0.2400  0.0297
17781TIP3    H174834   6.602   2.181  14.250 -1.4465  1.4586  0.7668
17781TIP3    H274835   6.704   2.093  14.319 -2.5169  0.1348  0.7016
17782TIP3   OH274836   5.697   1.605  13.849 -0.0665 -0.0648 -0.3467
17782TIP3    H174837   5.643   1.558  13.912 -0.8171 -1.0353 -1.6653
17782TIP3    H274838   5.642   1.678  13.820  0.5391  0.7947  0.5975
17783TIP3   OH274839   1.575   1.831   2.627  0.6513  0.0289  0.4458
17783TIP3    H174840   1.512   1.766   2.657  1.3079  0.3789  2.7699
17783TIP3    H274841   1.521   1.905   2.597 -0.0807  0.0853  1.8233
17784TIP3   OH274842   6.389   4.401   1.253 -0.0711 -0.3421  0.1615
17784TIP3    H174843   6.410   4.443   1.170  1.7567 -0.9090  0.2762
17784TIP3    H274844   6.321   4.338   1.232 -1.2217  1.0529 -0.4448
17785TIP3   OH274845   2.352   2.781  10.660 -0.7642 -0.1044 -0.1183
17785TIP3    H174846   2.287   2.798  10.729 -1.9972  0.4717 -1.3712
17785TIP3    H274847   2.309   2.720  10.601  0.0842 -0.1954 -0.6598
17786TIP3   OH274848   4.247   6.725  16.696 -0.0224 -0.4295  0.3681
17786TIP3    H174849   4.248   6.630  16.696 -1.2301 -0.4577 -0.1506
17786TIP3    H274850   4.285   6.750  16.781  1.2121 -1.3322  0.1075
17787TIP3   OH274851   2.262   3.856   2.865 -0.9545  0.4169 -0.0761
17787TIP3    H174852   2.194   3.855   2.797 -1.1868  0.3519  0.1566
17787TIP3    H274853   2.275   3.948   2.886  1.1823  0.7299 -2.2581
17788TIP3   OH274854   0.369   6.166   4.540 -0.3394 -0.1439  0.2662
17788TIP3    H174855   0.418   6.123   4.610  2.0294 -1.7338 -2.1457
17788TIP3    H274856   0.297   6.106   4.520 -0.7384  0.0838  1.0242
17789TIP3   OH274857   5.882   4.220   4.417  0.4764 -0.3192  0.2108
17789TIP3    H174858   5.832   4.276   4.476  0.6104 -0.3165  0.3230
17789TIP3    H274859   5.817   4.184   4.357  0.4644  0.3790 -0.2013
17790TIP3   OH274860   6.040   0.991   1.443 -0.8100 -0.3145  0.0511
17790TIP3    H174861   6.041   0.966   1.535  0.5308 -0.3353  0.0571
17790TIP3    H274862   6.012   1.083   1.443 -0.9705 -0.3634  0.4625
17791TIP3   OH274863   2.630   2.185  14.854 -0.0173  0.1549  0.7991
17791TIP3    H174864   2.603   2.104  14.896  0.4799  1.4147  3.8543
17791TIP3    H274865   2.578   2.253  14.897  2.3502  1.8324  1.2219
17792TIP3   OH274866   1.072   3.217  16.595  0.7234 -0.0778  0.1390
17792TIP3    H174867   1.020   3.231  16.515  0.5594 -1.2247  0.0348
17792TIP3    H274868   1.102   3.126  16.589 -0.3391 -0.5974  1.9918
17793TIP3   OH274869   2.066   3.115  15.610  0.7173  0.6860  0.0682
17793TIP3    H174870   2.055   3.057  15.685  1.1882  0.4000 -0.0805
17793TIP3    H274871   2.083   3.201  15.648  1.8594  0.3705  0.2934
17794TIP3   OH274872   1.969   4.777  15.916  0.0912  0.5113 -0.6023
17794TIP3    H174873   2.050   4.759  15.868  0.5745  1.3064 -0.1081
17794TIP3    H274874   1.962   4.705  15.979  0.0963  0.1271 -1.0295
17795TIP3   OH274875   1.614   3.353  11.374  0.1353 -0.2894  0.1221
17795TIP3    H174876   1.599   3.310  11.290 -0.9050  0.0047  0.1438
17795TIP3    H274877   1.580   3.442  11.362 -0.5031 -0.3988  1.0057
17796TIP3   OH274878   5.722   0.918  16.240 -0.3598 -0.1549 -0.7074
17796TIP3    H174879   5.655   0.924  16.171 -0.5129  1.0462 -0.4850
17796TIP3    H274880   5.785   0.987  16.218 -0.5965  0.4795  0.5227
17797TIP3   OH274881   0.778   2.672  10.812  0.2326 -0.0220 -0.0151
17797TIP3    H174882   0.773   2.766  10.829 -1.8813 -0.2004  0.6790
17797TIP3    H274883   0.846   2.640  10.871  1.1194  1.0888 -0.4128
17798TIP3   OH274884   0.433   3.316   5.388 -1.2766 -0.1713  0.2794
17798TIP3    H174885   0.370   3.387   5.385 -2.7917 -1.2878  2.5748
17798TIP3    H274886   0.462   3.304   5.297 -0.9655  3.2709 -0.1853
17799TIP3   OH274887   4.052   1.290   2.863  0.7201  0.3933 -0.5897
17799TIP3    H174888   4.086   1.237   2.790  1.9665 -1.0714  0.9635
17799TIP3    H274889   4.117   1.279   2.933 -0.1007  2.2682  0.5535
17800TIP3   OH274890   2.153   6.194   6.448  0.2422  0.6020  0.1746
17800TIP3    H174891   2.208   6.116   6.433  1.3917  1.4870 -0.4211
17800TIP3    H274892   2.186   6.231   6.529 -0.4744  0.3417  0.5901
17801TIP3   OH274893   6.034   1.881   2.592  0.1721  0.2664 -0.0535
17801TIP3    H174894   6.122   1.884   2.630 -0.5866  0.7378  1.7419
17801TIP3    H274895   5.991   1.959   2.625 -0.3840  1.0330 -2.3929
17802TIP3   OH274896   5.292   6.758   3.893 -0.7893  0.3170  0.0090
17802TIP3    H174897   5.224   6.824   3.878 -1.1362  0.1528  0.7729
17802TIP3    H274898   5.250   6.676   3.867  0.4595  0.5921 -3.3521
17803TIP3   OH274899   5.405   4.744  16.002  0.1465  0.4512 -0.6407
17803TIP3    H174900   5.432   4.816  16.058 -0.0031 -0.0929  0.1423
17803TIP3    H274901   5.487   4.702  15.975  0.2335  0.9052 -1.0987
17804TIP3   OH274902   6.017   2.964  11.019  0.8649  0.1505 -0.0030
17804TIP3    H174903   6.039   2.887  11.071 -1.0605 -0.0191  0.6168
17804TIP3    H274904   6.035   2.937  10.929  0.1734 -1.0536  0.1982
17805TIP3   OH274905   1.138   5.750   9.895 -0.0839 -0.1731  0.4764
17805TIP3    H174906   1.212   5.690   9.888 -1.1642 -1.4343 -0.7960
17805TIP3    H274907   1.128   5.766   9.989  2.1163  0.4831  0.6492
17806TIP3   OH274908   6.340   1.139   5.108  0.1223 -0.3402  0.0358
17806TIP3    H174909   6.386   1.178   5.182  1.2447  0.8541 -1.2248
17806TIP3    H274910   6.273   1.083   5.147  0.5851  0.3703  1.9313
17807TIP3   OH274911   5.770   2.359   4.571  0.4525 -0.8155  0.5323
17807TIP3    H174912   5.857   2.393   4.549 -0.6629  0.6104 -2.0086
17807TIP3    H274913   5.729   2.429   4.621  0.2460 -0.9406  0.5394
17808TIP3   OH274914   6.342   6.487   0.684  0.3353 -0.4512  0.1268
17808TIP3    H174915   6.278   6.423   0.652 -1.4259  1.3812 -0.3059
17808TIP3    H274916   6.409   6.490   0.616  0.4336 -1.7915  0.1445
17809TIP3   OH274917   3.992   0.365  11.743  0.0182 -0.3502  0.3540
17809TIP3    H174918   4.067   0.318  11.709 -0.0331 -0.1952  0.0249
17809TIP3    H274919   4.013   0.458  11.730 -0.4485 -0.3185 -0.2181
17810TIP3   OH274920   1.867   2.750   2.664 -0.1238  0.4926 -0.2576
17810TIP3    H174921   1.951   2.747   2.710  0.3632  1.1509 -1.0747
17810TIP3    H274922   1.817   2.677   2.700  1.4066 -0.9383 -0.9010
17811TIP3   OH274923   3.216   2.918  14.160  0.1772 -0.4996 -0.1261
17811TIP3    H174924   3.197   2.999  14.208 -0.7402 -1.1696  0.6676
17811TIP3    H274925   3.303   2.893  14.189  1.0561  0.8985 -1.3900
17812TIP3   OH274926   3.885   1.668  13.743 -0.3848 -0.0262  0.4025
17812TIP3    H174927   3.817   1.717  13.790 -0.0130 -0.6696  1.6678
17812TIP3    H274928   3.953   1.732  13.725 -0.4944  0.2163  0.8287
17813TIP3   OH274929   2.317   3.355   3.453 -0.2055  0.1468  0.1544
17813TIP3    H174930   2.259   3.369   3.528  0.1501  0.6939  0.3343
17813TIP3    H274931   2.277   3.404   3.381 -0.0837  0.3449  0.2210
17814TIP3   OH274932   1.415   2.548  16.294 -0.2615 -0.2365 -0.1656
17814TIP3    H174933   1.355   2.474  16.283 -0.8190  0.3471 -1.2035
17814TIP3    H274934   1.485   2.514  16.350 -0.1428 -1.7686 -1.1755
17815TIP3   OH274935   4.782   5.179  16.696  0.1558 -0.3405 -0.3049
17815TIP3    H174936   4.877   5.195  16.694  0.0462  0.2823 -1.1555
17815TIP3    H274937   4.765   5.149  16.786  0.7520  2.1943  0.7529
17816TIP3   OH274938   1.683   0.566  13.871  0.2329 -0.3168  0.1102
17816TIP3    H174939   1.642   0.652  13.862 -0.7833 -0.7790  0.2047
17816TIP3    H274940   1.627   0.519  13.933  0.8733 -0.9957  0.1902
17817TIP3   OH274941   3.162   6.302  12.333 -0.5479 -0.1666 -0.3572
17817TIP3    H174942   3.189   6.215  12.362  1.6087  0.5676  0.0065
17817TIP3    H274943   3.207   6.314  12.249  0.0576  1.0000  0.1205
17818TIP3   OH274944   0.241   0.601  12.496 -0.1760 -0.1474 -0.0351
17818TIP3    H174945   0.205   0.669  12.438  0.4569  0.0840 -0.1661
17818TIP3    H274946   0.178   0.596  12.569 -2.3197 -2.1461 -1.8530
17819TIP3   OH274947   6.489   3.153   2.972 -0.1105 -0.1720 -0.4204
17819TIP3    H174948   6.580   3.129   2.991  0.4096  1.1114 -1.1497
17819TIP3    H274949   6.438   3.104   3.036  1.1589 -0.1645  0.6511
17820TIP3   OH274950   0.872   4.991  16.067  0.3458  0.2860  0.2210
17820TIP3    H174951   0.904   5.024  15.983 -0.6820  0.1226 -0.2544
17820TIP3    H274952   0.935   4.924  16.092 -0.6913 -1.5832 -1.7662
17821TIP3   OH274953   3.929   2.668  12.064  0.1146  0.2719  0.5672
17821TIP3    H174954   3.928   2.645  11.971  1.4070  1.6278  0.1816
17821TIP3    H274955   3.853   2.623  12.100 -0.1354 -0.6854 -1.0383
17822TIP3   OH274956   5.891   1.706  14.199 -0.1599  0.0445 -0.3013
17822TIP3    H174957   5.867   1.661  14.280  0.5904  0.2581  0.0523
17822TIP3    H274958   5.965   1.655  14.165  0.0757  0.4465 -0.3976
17823TIP3   OH274959   5.910   1.643   2.469  0.0960  0.2932 -0.0949
17823TIP3    H174960   5.819   1.659   2.441 -0.8441  0.4051  2.7548
17823TIP3    H274961   5.953   1.728   2.462 -0.7179  0.7925  0.8432
17824TIP3   OH274962   1.222   1.102  12.996  0.3752  0.4462 -0.7857
17824TIP3    H174963   1.137   1.072  12.963  0.1278 -0.7552  0.8103
17824TIP3    H274964   1.200   1.168  13.062  0.6946  0.5284 -0.7615
17825TIP3   OH274965   1.936   5.939   0.023 -0.1921  0.0710  0.2383
17825TIP3    H174966   1.889   5.928  -0.060  2.0426 -2.1647 -0.8679
17825TIP3    H274967   1.920   5.858   0.070  1.3586 -0.1468  0.4311
17826TIP3   OH274968   1.017   0.025  13.611 -0.6470  0.2111 -0.2176
17826TIP3    H174969   1.088   0.081  13.643  1.2865 -1.8571 -0.5819
17826TIP3    H274970   0.951   0.028  13.679 -0.1466  2.0471  0.2515
17827TIP3   OH274971   2.657   5.433  12.343 -0.0897 -0.5085  0.0272
17827TIP3    H174972   2.590   5.397  12.401 -1.4375  2.5975  0.5448
17827TIP3    H274973   2.637   5.526  12.336  4.3973  0.7528  0.5591
17828TIP3   OH274974   4.063   1.390  15.204  0.1166 -0.0746  0.3232
17828TIP3    H174975   4.064   1.448  15.127  0.2321 -0.1527  0.2662
17828TIP3    H274976   4.002   1.320  15.180 -1.2910  0.8528  1.0014
17829TIP3   OH274977   3.439   4.416  15.462 -0.0260  0.3742  0.6412
17829TIP3    H174978   3.413   4.327  15.486 -1.0523  0.3909 -0.3024
17829TIP3    H274979   3.460   4.410  15.368 -0.5124  1.2079  0.4722
17830TIP3   OH274980   4.648   1.813   6.590  0.4833  0.1580  0.0156
17830TIP3    H174981   4.727   1.793   6.541 -0.2380  2.6148 -2.4681
17830TIP3    H274982   4.675   1.878   6.655  0.8606 -0.6262  0.6516
17831TIP3   OH274983   5.536   1.237   4.160  0.0908  0.2687  0.8066
17831TIP3    H174984   5.460   1.179   4.161  1.0157 -1.0262 -0.4998
17831TIP3    H274985   5.596   1.200   4.224 -0.0892  0.9002  1.3481
17832TIP3   OH274986   4.228   0.432   4.866  0.1525  0.6902  0.1596
17832TIP3    H174987   4.310   0.396   4.899 -0.0073 -0.6076 -0.7351
17832TIP3    H274988   4.192   0.361   4.811 -1.6744  1.1361  0.7219
17833TIP3   OH274989   6.383   6.485   0.333  0.1879  0.1446  0.1155
17833TIP3    H174990   6.392   6.391   0.351 -0.9333 -0.2805 -1.4046
17833TIP3    H274991   6.449   6.504   0.267 -0.1320  0.2480 -0.1760
17834TIP3   OH274992   3.020   0.124   3.037 -0.0212 -0.6601  0.5299
17834TIP3    H174993   3.060   0.040   3.018  1.2779  0.0381  0.0659
17834TIP3    H274994   3.085   0.170   3.091  0.7582  1.2640 -1.8563
17835TIP3   OH274995   5.531   6.251   0.564 -0.1084  0.5498  0.1764
17835TIP3    H174996   5.491   6.270   0.479  1.0688 -0.6596 -0.6850
17835TIP3    H274997   5.610   6.303   0.566  0.4639 -0.2920  0.0135
17836TIP3   OH274998   6.164   5.650  12.748  0.1199 -0.1267  0.2511
17836TIP3    H174999   6.206   5.719  12.697 -1.0110  1.8927  1.8694
17836TIP3    H275000   6.071   5.669  12.742 -0.4058 -2.6166 -0.6721
17837TIP3   OH275001   3.687   2.208  16.160 -0.5109  0.4294 -0.0703
17837TIP3    H175002   3.620   2.257  16.209 -0.3064 -0.5536  1.2514
17837TIP3    H275003   3.770   2.235  16.200  0.1976  3.1730 -2.9966
17838TIP3   OH275004   0.151   1.286   1.930  0.0573 -0.1218 -0.3377
17838TIP3    H175005   0.115   1.364   1.972  2.1130  1.2126 -0.9290
17838TIP3    H275006   0.144   1.303   1.836  0.0813 -0.8701 -0.4829
17839TIP3   OH275007   3.822   6.747  14.704  0.2116 -0.3362 -0.7064
17839TIP3    H175008   3.829   6.683  14.775 -0.9629 -0.1348 -0.3841
17839TIP3    H275009   3.833   6.697  14.624 -0.0340 -0.8378 -0.4296
17840TIP3   OH275010   6.553   3.338  14.139 -0.6809  0.0797 -1.2041
17840TIP3    H175011   6.554   3.283  14.061 -3.3916 -0.2783 -1.0634
17840TIP3    H275012   6.517   3.282  14.208 -0.3265  1.0346 -0.2033
17841TIP3   OH275013   2.546   6.603  14.235  0.4087  0.0088 -0.6311
17841TIP3    H175014   2.506   6.540  14.175  1.6344 -0.2950 -1.1569
17841TIP3    H275015   2.595   6.663  14.178  1.0606  0.1046  0.0112
17842TIP3   OH275016   0.543   6.131   0.667 -0.3917 -0.2101 -0.2422
17842TIP3    H175017   0.575   6.207   0.619 -0.4780  0.0554  0.1130
17842TIP3    H275018   0.449   6.148   0.679 -0.2087  0.1725  0.8069
17843TIP3   OH275019   3.591   4.928   3.283 -0.1611 -0.0851 -0.0739
17843TIP3    H175020   3.610   4.847   3.235  0.1027 -2.0414  3.0858
17843TIP3    H275021   3.502   4.916   3.316  1.5065 -1.6464  4.6879
17844TIP3   OH275022   3.900   2.801  11.614  0.1298 -0.3500  0.3049
17844TIP3    H175023   3.815   2.783  11.574  0.3583 -2.9962  0.8326
17844TIP3    H275024   3.897   2.757  11.699  2.4426 -1.6276 -0.1902
17845TIP3   OH275025   3.481   0.824  14.131 -0.2357 -0.1273 -0.1471
17845TIP3    H175026   3.397   0.852  14.169 -1.1158 -2.5141 -0.2068
17845TIP3    H275027   3.467   0.733  14.105  2.3918 -0.6005 -0.1630
17846TIP3   OH275028   0.199   3.261   2.662  0.1533 -0.4677 -0.0627
17846TIP3    H175029   0.228   3.193   2.724  1.7029 -0.2750 -0.5269
17846TIP3    H275030   0.269   3.265   2.597 -0.9018  0.1545 -1.1879
17847TIP3   OH275031   6.627   6.682   0.926  0.2046 -0.2626  0.4618
17847TIP3    H175032   6.605   6.771   0.954  1.2375  0.3696 -0.6925
17847TIP3    H275033   6.602   6.627   1.001 -0.7927  0.9383  1.0446
17848TIP3   OH275034   5.406   2.503  13.466  0.3965 -0.3111  0.5834
17848TIP3    H175035   5.366   2.564  13.529 -0.2996 -0.6136  0.4459
17848TIP3    H275036   5.447   2.437  13.521  1.2020  0.2998  0.7349
17849TIP3   OH275037   1.930   1.195   4.475  0.0979 -0.1209  0.5474
17849TIP3    H175038   1.877   1.121   4.446  1.5218 -0.6930 -0.6937
17849TIP3    H275039   1.869   1.269   4.475 -0.7635 -0.7879 -0.6338
17850TIP3   OH275040   2.786   4.038  12.578  0.3306 -0.1600 -0.3790
17850TIP3    H175041   2.812   4.084  12.658  0.1435 -2.7351  1.2899
17850TIP3    H275042   2.725   4.097  12.535  2.3738  2.4104 -0.0127
17851TIP3   OH275043   2.180   4.610   1.952 -0.2407 -0.2293  0.1960
17851TIP3    H175044   2.244   4.678   1.973  0.4254 -0.2278 -1.7216
17851TIP3    H275045   2.226   4.550   1.894 -1.9926 -0.1402 -1.3743
17852TIP3   OH275046   0.700   6.655  16.018  0.5682 -0.0275 -0.7580
17852TIP3    H175047   0.714   6.641  16.111 -1.4309  1.2331 -0.2035
17852TIP3    H275048   0.776   6.615  15.976  0.9160 -1.7150  1.3136
17853TIP3   OH275049   0.938   0.749   1.409 -0.0929 -0.5013  0.2157
17853TIP3    H175050   0.972   0.838   1.400 -0.1294 -0.1306  2.8500
17853TIP3    H275051   0.843   0.759   1.406 -0.0984 -0.4382  0.5861
17854TIP3   OH275052   2.606   0.634  11.574 -0.2498 -0.0817  0.4766
17854TIP3    H175053   2.692   0.599  11.552  0.6766  2.4760 -0.4095
17854TIP3    H275054   2.550   0.608  11.501  0.6920  1.0827 -0.7266
17855TIP3   OH275055   2.648   4.635   0.091  0.6144  0.4841  0.0307
17855TIP3    H175056   2.710   4.600   0.155 -1.8631 -0.1306  2.2912
17855TIP3    H275057   2.639   4.727   0.114 -0.3165  0.2523  0.6273
17856TIP3   OH275058   1.911   2.678   6.172 -0.6199 -0.3231 -0.1527
17856TIP3    H175059   1.849   2.633   6.229 -1.3782 -1.4583 -1.8119
17856TIP3    H275060   1.879   2.662   6.083  2.8446 -2.3815 -1.2570
17857TIP3   OH275061   5.751   4.776   1.026  0.1235  0.1884  0.4814
17857TIP3    H175062   5.664   4.797   1.060 -0.8139 -2.1313 -0.2611
17857TIP3    H275063   5.808   4.781   1.103 -1.0134 -0.0710  1.3747
17858TIP3   OH275064   0.650   4.499  16.015  0.3327  0.0832  0.0916
17858TIP3    H175065   0.669   4.550  16.094  1.8418 -1.1511  0.5898
17858TIP3    H275066   0.714   4.529  15.951  0.3095 -0.1831 -0.0588
17859TIP3   OH275067   2.558   4.074  15.278  0.6996 -0.1781 -0.3607
17859TIP3    H175068   2.534   3.985  15.302 -1.4340  0.7667  1.2494
17859TIP3    H275069   2.504   4.094  15.202 -2.2374  1.1302  1.8654
17860TIP3   OH275070   4.596   1.305   6.543 -0.0918  0.1353 -0.0859
17860TIP3    H175071   4.511   1.350   6.542  0.4772  1.3423  1.4245
17860TIP3    H275072   4.591   1.248   6.620 -0.1765 -1.1553 -1.0263
17861TIP3   OH275073   0.935   6.583   0.703  0.6481 -0.2485  0.1682
17861TIP3    H175074   0.930   6.639   0.780 -0.4306 -0.1503  0.0435
17861TIP3    H275075   0.904   6.638   0.631  2.8447  0.0767 -0.6059
17862TIP3   OH275076   4.661   0.799  13.224 -0.5003  0.5423 -0.2281
17862TIP3    H175077   4.682   0.888  13.197  0.6654  1.1022  2.1994
17862TIP3    H275078   4.734   0.773  13.281 -0.3070 -2.3720 -1.6072
17863TIP3   OH275079   5.190   4.479  15.399 -0.1052 -0.0632  0.2046
17863TIP3    H175080   5.134   4.420  15.449  0.5704 -1.3447 -0.4820
17863TIP3    H275081   5.275   4.475  15.443 -0.1018  0.5734  0.2717
17864TIP3   OH275082   3.569   6.751   0.930 -0.0453  0.5480  0.6746
17864TIP3    H175083   3.503   6.692   0.966  1.8131 -2.4170 -0.3854
17864TIP3    H275084   3.581   6.818   0.997  0.2998 -2.3324  3.7642
17865TIP3   OH275085   1.127   0.972   5.976 -0.2788  0.5987 -0.3871
17865TIP3    H175086   1.151   1.007   6.062  0.3756  0.3758 -0.4771
17865TIP3    H275087   1.171   1.029   5.913  0.1442  0.0946 -0.5507
17866TIP3   OH275088   6.598   6.725   4.862  0.3287 -0.2052 -0.4267
17866TIP3    H175089   6.542   6.659   4.822  1.8277  0.9583 -5.0985
17866TIP3    H275090   6.556   6.808   4.840  0.8525  0.5456  1.2915
17867TIP3   OH275091   5.355   3.311   1.009 -0.1279  0.3078  0.4702
17867TIP3    H175092   5.277   3.283   1.057 -1.2945  0.4996 -1.2202
17867TIP3    H275093   5.343   3.405   0.997  0.1823  0.2760 -0.1048
17868TIP3   OH275094   0.852   2.238   3.492 -0.3442 -0.0282 -0.2791
17868TIP3    H175095   0.925   2.187   3.455 -1.0535  0.4602 -2.5084
17868TIP3    H275096   0.883   2.264   3.579  2.3177  0.4514 -1.2553
17869TIP3   OH275097   5.850   5.148  15.202 -0.1580 -0.1306 -0.2031
17869TIP3    H175098   5.857   5.200  15.122 -2.0159  3.0379  1.5081
17869TIP3    H275099   5.929   5.170  15.251  0.3663 -1.1023 -0.5788
17870TIP3   OH275100   1.932   0.130   4.264  0.0206 -0.9098  0.4218
17870TIP3    H175101   1.945   0.202   4.202 -1.0695 -1.0796 -0.0439
17870TIP3    H275102   1.992   0.062   4.234  2.4599  0.4281  1.9959
17871TIP3   OH275103   5.050   5.674  12.324  0.1273  0.2708  0.0971
17871TIP3    H175104   5.087   5.585  12.325 -0.0980  0.0926 -2.2354
17871TIP3    H275105   4.957   5.660  12.308 -0.2061  0.9123  1.3393
17872TIP3   OH275106   4.861   4.865  12.843 -0.3862  0.1502  0.8787
17872TIP3    H175107   4.887   4.855  12.752  1.1777  0.4007  1.2569
17872TIP3    H275108   4.939   4.841  12.893 -2.0136 -2.7580  2.2794
17873TIP3   OH275109   5.508   0.191   5.064  0.5850  0.0278  0.0839
17873TIP3    H175110   5.540   0.183   4.974 -0.7067  0.9463 -0.4882
17873TIP3    H275111   5.509   0.101   5.097  0.4806 -0.4176 -1.0635
17874TIP3   OH275112   2.934   0.996   0.988  0.0064 -0.4518  0.1250
17874TIP3    H175113   3.014   0.943   0.978  0.2725 -0.5403  2.2036
17874TIP3    H275114   2.889   0.956   1.062 -0.1640  1.7516  1.2785
17875TIP3   OH275115   2.469   2.542  16.518  0.7205 -0.3273  0.5586
17875TIP3    H175116   2.475   2.464  16.463 -2.0675 -0.8535  0.8581
17875TIP3    H275117   2.518   2.609  16.470 -0.4226 -1.1358 -1.8840
17876TIP3   OH275118   1.359   3.407   4.043  0.3592 -0.1775  0.2007
17876TIP3    H175119   1.438   3.407   3.989  0.5408 -0.5682  0.4625
17876TIP3    H275120   1.358   3.495   4.083  2.3158 -1.0832  2.5470
17877TIP3   OH275121   0.727   4.536   5.691 -0.1991 -0.3789 -0.2846
17877TIP3    H175122   0.637   4.505   5.686 -0.3763  0.0992 -0.1292
17877TIP3    H275123   0.739   4.559   5.784 -0.7073  1.8387 -0.7131
17878TIP3   OH275124   6.428   4.854  15.353  0.0665  0.0461 -0.2482
17878TIP3    H175125   6.449   4.766  15.322  3.0333  1.1633 -1.7596
17878TIP3    H275126   6.444   4.850  15.448  2.1019 -0.5906 -0.5786
17879TIP3   OH275127   5.663   3.033   3.170 -0.2465 -0.0967 -0.5698
17879TIP3    H175128   5.650   3.027   3.075 -0.6652 -0.8902 -0.4692
17879TIP3    H275129   5.602   2.968   3.207  0.5839 -0.4589  0.1907
17880TIP3   OH275130   3.314   3.912   0.482  0.3608 -0.0407 -0.2264
17880TIP3    H175131   3.378   3.965   0.434  0.5134 -0.6501 -0.6973
17880TIP3    H275132   3.367   3.862   0.544  0.0943  1.3731  1.2136
17881TIP3   OH275133   0.708   2.770  16.789  0.1621 -0.1966  0.2019
17881TIP3    H175134   0.747   2.758  16.702 -0.3522  0.5275 -0.1474
17881TIP3    H275135   0.767   2.832  16.833 -0.1801  0.3238 -0.0574
17882TIP3   OH275136   5.863   5.892   6.462 -0.0321 -0.6012 -0.6236
17882TIP3    H175137   5.847   5.833   6.536  1.6024  0.9198  1.0550
17882TIP3    H275138   5.927   5.846   6.408  2.6690  0.1968  1.6269
17883TIP3   OH275139   5.196   2.856  14.361  0.6292 -0.1302 -0.6239
17883TIP3    H175140   5.189   2.946  14.332  0.6611 -0.1163 -0.5876
17883TIP3    H275141   5.254   2.814  14.297 -0.0248 -0.3216 -1.0973
17884TIP3   OH275142   2.865   4.065   4.199 -0.5335 -0.1394 -0.2111
17884TIP3    H175143   2.840   4.130   4.134 -1.7795  0.0821  0.4713
17884TIP3    H275144   2.933   4.108   4.251 -0.6211  0.2392 -0.4070
17885TIP3   OH275145   3.135   3.143   2.302  0.1366  0.5652  0.1997
17885TIP3    H175146   3.059   3.168   2.249 -0.0002  0.5693  0.3974
17885TIP3    H275147   3.193   3.219   2.298  0.3682  0.3641 -0.3813
17886TIP3   OH275148   5.851   5.041   1.664 -0.0386  0.0592  0.1751
17886TIP3    H175149   5.794   5.117   1.673  1.1036  0.8138  1.4723
17886TIP3    H275150   5.839   4.993   1.746 -1.0916 -1.4495 -0.8068
17887TIP3   OH275151   4.035   6.116  14.828 -0.2245  0.8719 -0.0110
17887TIP3    H175152   4.068   6.069  14.904  0.3327 -0.0011 -0.7649
17887TIP3    H275153   4.011   6.203  14.861  0.4323  0.6625  1.0516
17888TIP3   OH275154   2.457   2.533   0.873 -0.2935  0.1255  0.5692
17888TIP3    H175155   2.444   2.452   0.921 -0.8314 -0.0196  0.1807
17888TIP3    H275156   2.485   2.596   0.940  1.8266 -0.7784  0.6135
17889TIP3   OH275157   3.922   5.687  15.558  0.0620  0.2127 -0.4266
17889TIP3    H175158   3.941   5.757  15.620  0.0802 -0.0999 -0.0769
17889TIP3    H275159   3.956   5.608  15.600 -0.5387 -0.1050 -0.5316
17890TIP3   OH275160   5.525   5.656  11.982 -0.1361  0.0244 -0.1638
17890TIP3    H175161   5.584   5.648  12.056 -0.7778  0.4709  0.4057
17890TIP3    H275162   5.544   5.742  11.944  0.7216 -0.5153 -0.9957
17891TIP3   OH275163   4.293   0.199  16.596  0.2384  0.0717  0.0445
17891TIP3    H175164   4.338   0.255  16.533 -0.8959  1.3328  0.3121
17891TIP3    H275165   4.298   0.111  16.558  1.1278  0.5160 -0.9065
17892TIP3   OH275166   6.174   4.967   1.045 -0.0056  0.2268  0.3837
17892TIP3    H175167   6.122   4.896   1.008 -0.5762 -0.3517  2.2082
17892TIP3    H275168   6.120   5.003   1.115  0.7637  1.7055  0.2576
17893TIP3   OH275169   3.308   0.034  16.218 -0.1430  0.0819 -0.6161
17893TIP3    H175170   3.394   0.021  16.179  0.3828 -0.5983  0.7157
17893TIP3    H275171   3.248   0.039  16.143  0.7079 -1.9385 -1.4915
17894TIP3   OH275172   6.228   0.501   5.625  0.4041  0.3448 -0.1103
17894TIP3    H175173   6.177   0.576   5.655 -0.9747 -0.7644  0.4681
17894TIP3    H275174   6.306   0.500   5.680  0.3642  1.2415 -0.0259
17895TIP3   OH275175   2.437   1.450   1.363 -0.0198 -0.4213  0.8667
17895TIP3    H175176   2.343   1.438   1.351 -0.1462  0.6513  0.6868
17895TIP3    H275177   2.445   1.519   1.429  0.5817  1.6016 -1.1866
17896TIP3   OH275178   1.920   2.935   2.116  0.1650  0.5082  0.0207
17896TIP3    H175179   1.858   2.900   2.180  0.7117 -0.6787 -0.0658
17896TIP3    H275180   1.878   3.013   2.081 -0.5628  0.6297  1.1321
17897TIP3   OH275181   5.373   3.527  13.270  0.2897  0.7868  0.8167
17897TIP3    H175182   5.376   3.445  13.318 -0.8241  0.4727  0.3686
17897TIP3    H275183   5.418   3.508  13.187  0.7737  0.8787  1.0523
17898TIP3   OH275184   0.902   4.628   6.287 -0.1378 -0.4972 -0.8749
17898TIP3    H175185   0.929   4.707   6.240  0.3112 -0.4478 -0.5389
17898TIP3    H275186   0.816   4.649   6.323  0.4214  0.2232  0.0932
17899TIP3   OH275187   4.718   2.172   3.538 -0.0343 -0.3687 -0.1475
17899TIP3    H175188   4.805   2.138   3.519  1.3905  2.5919  0.5094
17899TIP3    H275189   4.701   2.235   3.467 -0.6512  0.6609  0.8760
17900TIP3   OH275190   4.514   6.334  15.728  0.1340 -0.5385  0.5899
17900TIP3    H175191   4.522   6.429  15.729 -2.8733 -0.1532 -0.1873
17900TIP3    H275192   4.470   6.313  15.811 -1.8744 -0.8277 -0.4836
17901TIP3   OH275193   3.066   2.736   0.051 -0.2896 -0.1081  0.2013
17901TIP3    H175194   3.090   2.669  -0.013  0.5546  1.0182 -0.6914
17901TIP3    H275195   3.001   2.693   0.107  0.7601 -1.9092  0.1199
17902TIP3   OH275196   1.874   6.627   1.438  0.2123  0.4178  0.1682
17902TIP3    H175197   1.881   6.653   1.530 -1.1223 -1.2142  0.7675
17902TIP3    H275198   1.953   6.576   1.421 -1.2121 -2.4927  1.5827
17903TIP3   OH275199   4.604   4.530   0.307  0.4714  0.2167  0.0758
17903TIP3    H175200   4.530   4.473   0.331 -0.8859  1.5291 -0.8099
17903TIP3    H275201   4.573   4.618   0.327  1.6616  0.8234 -0.6832
17904TIP3   OH275202   2.701   1.878   2.375  0.1920 -0.2418 -0.0834
17904TIP3    H175203   2.705   1.783   2.387  0.6420 -0.1554  0.4926
17904TIP3    H275204   2.618   1.903   2.415  0.6668 -0.2381  0.9265
17905TIP3   OH275205   2.951   1.386   5.859  0.5661 -0.3059 -0.3068
17905TIP3    H175206   2.911   1.467   5.889  2.1117  0.1929  0.5107
17905TIP3    H275207   2.970   1.337   5.939 -3.4881 -3.1814 -0.8047
17906TIP3   OH275208   5.972   1.281  14.037  0.0107  0.4715  0.2974
17906TIP3    H175209   5.995   1.233  14.117  0.1461  1.3411  0.7986
17906TIP3    H275210   6.054   1.321  14.009 -0.6652  3.2788  1.8864
17907TIP3   OH275211   4.574   4.970  16.332 -0.2361  0.2197  0.0779
17907TIP3    H175212   4.607   4.942  16.246 -0.3645 -0.6133  0.2855
17907TIP3    H275213   4.492   4.922  16.343 -1.3573  1.9812 -0.2649
17908TIP3   OH275214   0.036   2.073   1.918  0.2626  0.3536 -0.0127
17908TIP3    H175215   0.000   2.138   1.857 -2.7764 -0.6885  0.4797
17908TIP3    H275216   0.084   2.012   1.862 -0.5842  0.6420 -1.0871
17909TIP3   OH275217   2.995   3.209  10.307 -0.0318  0.0573  0.1720
17909TIP3    H175218   2.936   3.273  10.348  1.1312  1.5499 -0.3698
17909TIP3    H275219   2.955   3.191  10.222 -0.7808 -0.5693  0.6449
17910TIP3   OH275220   5.582   2.668  16.670  0.1639  0.1658 -0.1058
17910TIP3    H175221   5.492   2.700  16.657  0.5475  1.1835 -0.3038
17910TIP3    H275222   5.618   2.662  16.581  1.0884  2.1554  0.0784
17911TIP3   OH275223   5.783   0.761   5.662  0.0483 -0.0219  0.2471
17911TIP3    H175224   5.698   0.794   5.692 -0.9826 -2.2274  0.0162
17911TIP3    H275225   5.803   0.812   5.584 -0.9556  0.6822  0.4296
17912TIP3   OH275226   0.499   3.617   0.798  0.0107  0.2445  0.3650
17912TIP3    H175227   0.470   3.533   0.836 -0.0806  1.0330  2.1563
17912TIP3    H275228   0.507   3.600   0.704 -3.5482 -0.7999  0.1258
17913TIP3   OH275229   6.457   2.127  12.383  0.5223  0.1679  1.1165
17913TIP3    H175230   6.518   2.164  12.446  1.1158  0.8059  0.1908
17913TIP3    H275231   6.372   2.163  12.407  0.7777  0.5590  1.4284
17914TIP3   OH275232   3.974   3.851   2.293  0.3016  0.0360  0.0211
17914TIP3    H175233   3.972   3.761   2.325 -0.4643  0.5956  1.6570
17914TIP3    H275234   3.961   3.844   2.198  0.9072 -1.5970  0.0345
17915TIP3   OH275235   3.643   3.128  12.014 -0.3999 -0.1206  0.4094
17915TIP3    H175236   3.643   3.217  12.049  2.4846  0.8459 -1.6572
17915TIP3    H275237   3.734   3.099  12.023 -1.4105 -3.2974  1.8262
17916TIP3   OH275238   0.436   1.433   3.218  0.2572  0.7463  0.0321
17916TIP3    H175239   0.446   1.426   3.313 -0.4202 -0.8456  0.0145
17916TIP3    H275240   0.341   1.436   3.204  0.3613  1.7734 -0.5643
17917TIP3   OH275241   0.218   0.811   4.528 -0.0715  0.5643  0.5146
17917TIP3    H175242   0.131   0.796   4.566 -0.4572  0.8240 -0.2329
17917TIP3    H275243   0.205   0.797   4.434  0.6925  0.6550  0.3902
17918TIP3   OH275244   6.512   1.485  14.522  0.6891 -0.2748 -0.3152
17918TIP3    H175245   6.447   1.443  14.466  1.4146 -0.8598 -0.7310
17918TIP3    H275246   6.580   1.516  14.462  1.4983 -0.9478  0.2339
17919TIP3   OH275247   2.632   6.735  14.470  0.6098 -0.0451  0.2172
17919TIP3    H175248   2.601   6.686  14.394  2.0220  1.1517 -1.2038
17919TIP3    H275249   2.727   6.721  14.471  1.2556  3.2467 -0.8408
17920TIP3   OH275250   3.493   0.185   3.456 -0.1713  0.0937  0.2031
17920TIP3    H175251   3.438   0.260   3.478 -1.4818 -1.1037  1.1745
17920TIP3    H275252   3.434   0.109   3.462  1.3855 -1.1539  0.4409
17921TIP3   OH275253   4.239   1.841  11.018  0.0389  0.3467 -0.0802
17921TIP3    H175254   4.156   1.834  11.065  0.2945 -0.6935  0.2606
17921TIP3    H275255   4.241   1.763  10.962  0.5980  0.5760 -0.3852
17922TIP3   OH275256   4.045   5.076   0.777 -0.3277  0.0000  0.4227
17922TIP3    H175257   3.954   5.107   0.783 -0.9439 -1.5522 -0.3559
17922TIP3    H275258   4.042   4.987   0.814  0.6972 -0.3935 -0.4035
17923TIP3   OH275259   3.643   1.305  15.875  0.4360 -0.9148 -0.3457
17923TIP3    H175260   3.620   1.230  15.930  2.7619 -1.8681 -0.5668
17923TIP3    H275261   3.733   1.326  15.900 -0.3847  2.4151  0.3247
17924TIP3   OH275262   2.107   4.805  15.316  0.0056 -0.5800 -0.2178
17924TIP3    H175263   2.166   4.842  15.250 -0.9236  0.1443 -0.6678
17924TIP3    H275264   2.101   4.872  15.384 -2.1964  0.4690 -1.3472
17925TIP3   OH275265   1.398   1.951  16.247 -0.2144 -0.5331 -0.1347
17925TIP3    H175266   1.319   1.926  16.295  0.0263  0.4316  0.8224
17925TIP3    H275267   1.399   2.047  16.253  0.3521 -0.4580 -1.2488
17926TIP3   OH275268   0.643   6.292   5.516 -0.3883  0.3034 -0.2748
17926TIP3    H175269   0.599   6.260   5.437 -2.5870  3.7978 -0.6908
17926TIP3    H275270   0.724   6.330   5.483  1.6870 -3.3223  0.0919
17927TIP3   OH275271   1.417   2.341   3.614 -0.9778 -0.4293  0.2169
17927TIP3    H175272   1.349   2.406   3.598 -0.0208  0.3106 -0.9665
17927TIP3    H275273   1.495   2.375   3.571 -0.2300 -1.9662  0.2620
17928TIP3   OH275274   2.415   2.207   5.577 -0.5247  0.3785  0.1921
17928TIP3    H175275   2.487   2.207   5.640 -0.8682  0.3372  0.5965
17928TIP3    H275276   2.399   2.114   5.559 -1.0396  0.3436  0.7759
17929TIP3   OH275277   4.916   5.210  12.208 -0.2989 -0.2951  0.1206
17929TIP3    H175278   4.939   5.138  12.148 -0.0958 -0.0409 -0.1095
17929TIP3    H275279   4.837   5.179  12.252  0.5357 -1.2322  1.0074
17930TIP3   OH275280   5.097   4.005  13.410  0.4268  0.1859  0.6426
17930TIP3    H175281   5.085   3.929  13.354  1.2166  0.6099 -0.1344
17930TIP3    H275282   5.186   3.996  13.445  0.3125  0.4460  1.0088
17931TIP3   OH275283   3.625   2.842  11.495 -0.6070 -0.5167  0.3705
17931TIP3    H175284   3.558   2.816  11.558  0.8854 -2.1049  1.3823
17931TIP3    H275285   3.652   2.761  11.452 -0.0319  0.2311 -0.7378
17932TIP3   OH275286   1.124   0.102   3.095  0.3621  0.0350 -0.4071
17932TIP3    H175287   1.078   0.023   3.065  1.6733  0.2557 -3.3461
17932TIP3    H275288   1.076   0.174   3.055 -0.0351  0.6838  1.1766
17933TIP3   OH275289   6.297   6.024   4.283  0.2121 -0.2834  0.3534
17933TIP3    H175290   6.317   5.938   4.319  1.3184  0.1206  0.7724
17933TIP3    H275291   6.214   6.013   4.237  1.4421 -2.1417 -1.6143
17934TIP3   OH275292   2.760   0.551  14.297 -0.1839 -0.0899  0.0878
17934TIP3    H175293   2.743   0.633  14.343 -1.2020  1.8904 -3.4675
17934TIP3    H275294   2.678   0.502  14.304 -2.1150  2.2646 -3.2306
17935TIP3   OH275295   4.926   4.199   6.276  0.3718  0.0259 -0.0309
17935TIP3    H175296   4.836   4.181   6.251 -0.0086 -0.1772  1.3727
17935TIP3    H275297   4.935   4.157   6.362  1.1960  1.7133  0.7496
17936TIP3   OH275298   6.593   6.120  12.808  0.3562 -0.2188  0.0052
17936TIP3    H175299   6.613   6.208  12.777  0.7280 -0.1348  0.4748
17936TIP3    H275300   6.605   6.064  12.732  3.1379 -0.2931  0.4091
17937TIP3   OH275301   3.077   2.145  16.032 -0.1582 -0.2091 -0.3328
17937TIP3    H175302   3.144   2.214  16.030  1.0491 -1.3275 -0.6111
17937TIP3    H275303   3.120   2.072  16.077 -2.6478  0.3842  3.3565
17938TIP3   OH275304   2.474   4.855  12.012 -0.1034 -0.1872 -0.1707
17938TIP3    H175305   2.428   4.792  11.956 -0.3834 -0.9412  0.8625
17938TIP3    H275306   2.404   4.898  12.061  0.1689  0.0306  0.0290
17939TIP3   OH275307   0.822   6.483  12.982 -0.5898  0.3566  0.5677
17939TIP3    H175308   0.732   6.469  13.013  0.3383 -0.0564  3.3457
17939TIP3    H275309   0.839   6.576  12.998 -0.9740  0.7827 -1.3535
17940TIP3   OH275310   3.572   6.641   1.825  0.1577 -0.3573  0.3578
17940TIP3    H175311   3.496   6.587   1.845  1.0575 -1.3038  1.3364
17940TIP3    H275312   3.556   6.723   1.872 -0.5204 -0.3081  0.0616
17941TIP3   OH275313   0.245   5.991   1.338 -0.7611  0.4765  0.4127
17941TIP3    H175314   0.301   5.995   1.416  0.5195 -1.6405 -0.3354
17941TIP3    H275315   0.167   5.944   1.367 -0.2731 -0.3397  0.4197
17942TIP3   OH275316   0.842   2.733  17.164 -0.2276  0.0091 -0.0511
17942TIP3    H175317   0.785   2.656  17.164  0.4881 -0.5454  0.4894
17942TIP3    H275318   0.866   2.745  17.072 -0.2805 -0.4697 -0.1304
17943TIP3   OH275319   3.941   4.861  12.074 -0.2585 -0.8303  0.0736
17943TIP3    H175320   4.034   4.863  12.095  0.2279  0.9853 -1.8500
17943TIP3    H275321   3.929   4.782  12.022  0.0513 -1.4231  0.8938
17944TIP3   OH275322   4.840   2.469   5.543  0.9082 -0.2239  0.6465
17944TIP3    H175323   4.804   2.406   5.606 -0.2772 -0.7435 -0.4837
17944TIP3    H275324   4.808   2.554   5.574 -0.2462 -0.5442  0.3936
17945TIP3   OH275325   1.816   6.447   5.148 -0.2798  0.4142 -0.3047
17945TIP3    H175326   1.867   6.512   5.198  1.2089 -0.2884 -0.8585
17945TIP3    H275327   1.826   6.366   5.198 -3.6288  0.8870  1.3883
17946TIP3   OH275328   6.563   4.293   5.105  0.3297 -0.2859 -0.0445
17946TIP3    H175329   6.584   4.280   5.197  0.0217  0.7039  0.1816
17946TIP3    H275330   6.555   4.205   5.069 -0.5370 -0.7043  1.1029
17947TIP3   OH275331   1.908   5.109   2.812 -0.0573 -0.3880  0.0740
17947TIP3    H175332   1.829   5.143   2.769 -0.0734  0.2717  0.6074
17947TIP3    H275333   1.972   5.102   2.742 -0.0743  0.7056 -0.0740
17948TIP3   OH275334   2.183   6.030   5.094 -0.3261 -0.3599  0.2224
17948TIP3    H175335   2.203   5.960   5.032  2.8031  0.0336  0.5940
17948TIP3    H275336   2.121   6.087   5.048  0.3089 -1.1723 -1.7201
17949TIP3   OH275337   5.985   2.574   0.259 -0.5304 -0.0113 -0.2806
17949TIP3    H175338   5.986   2.662   0.223 -0.0350 -0.5963 -1.7482
17949TIP3    H275339   5.892   2.555   0.275 -0.7399  0.3533 -1.0407
17950TIP3   OH275340   5.075   1.507   0.608 -0.2750  0.2759  0.4739
17950TIP3    H175341   5.128   1.470   0.537 -0.2683  0.3452  0.4427
17950TIP3    H275342   5.136   1.516   0.681  0.1602  1.8402 -0.0393
17951TIP3   OH275343   4.177   2.116  15.689 -0.1212 -0.1899 -0.0169
17951TIP3    H175344   4.181   2.107  15.593 -1.3102  0.7093 -0.1710
17951TIP3    H275345   4.269   2.115  15.716  0.2902  0.5482 -1.2742
17952TIP3   OH275346   6.575   5.097  15.957  0.4186  0.3029  0.2727
17952TIP3    H175347   6.667   5.077  15.937  0.4714  0.4048  0.4087
17952TIP3    H275348   6.531   5.012  15.955  0.6198  0.1823  0.7399
17953TIP3   OH275349   3.277   1.102   2.274  0.0483  0.0428 -0.2002
17953TIP3    H175350   3.267   1.121   2.181  1.7328  1.9917 -0.0456
17953TIP3    H275351   3.244   1.180   2.319  0.7587 -0.1952  0.7739
17954TIP3   OH275352   3.726   2.731  15.185 -0.0798 -0.8437  0.1748
17954TIP3    H175353   3.639   2.731  15.145  0.4079  0.6621 -0.9942
17954TIP3    H275354   3.713   2.773  15.270 -0.4127 -0.1090 -0.2307
17955TIP3   OH275355   0.048   0.508   5.992 -0.1743  0.3786 -0.0325
17955TIP3    H175356  -0.012   0.520   6.065  1.1516 -2.2709  1.6555
17955TIP3    H275357   0.129   0.551   6.019  0.5522 -1.2142  0.4583
17956TIP3   OH275358   3.042   3.444  14.072 -0.6828  0.1843  0.0657
17956TIP3    H175359   3.010   3.424  13.984 -0.3456  0.8867 -0.2211
17956TIP3    H275360   2.972   3.495  14.112 -0.1004  1.4254 -0.4429
17957TIP3   OH275361   5.388   6.416   1.195 -0.1225 -0.3040  0.1567
17957TIP3    H175362   5.478   6.382   1.196 -0.4681 -1.7259 -3.3084
17957TIP3    H275363   5.396   6.505   1.163  0.1463  0.3591  1.9378
17958TIP3   OH275364   4.111   3.091  12.283  0.2542  0.0778  0.1699
17958TIP3    H175365   4.136   3.007  12.243  2.2955  0.6260  0.1859
17958TIP3    H275366   4.189   3.146  12.274 -1.1053  2.0771 -0.0423
17959TIP3   OH275367   6.392   5.681  12.009  0.2066  0.0206  0.3760
17959TIP3    H175368   6.451   5.729  11.950 -0.6043 -0.7124 -1.1130
17959TIP3    H275369   6.310   5.730  12.005  0.2650  0.1940  1.2399
17960TIP3   OH275370   5.510   3.756   3.975 -0.4561 -0.5710  0.2230
17960TIP3    H175371   5.540   3.735   4.063  0.1936 -0.9403 -0.0762
17960TIP3    H275372   5.553   3.839   3.954 -1.0257 -0.2095  0.4428
17961TIP3   OH275373   1.955   6.511   3.172 -0.0022 -0.1036  0.5444
17961TIP3    H175374   2.006   6.521   3.252  2.7542  0.4245 -1.1386
17961TIP3    H275375   1.990   6.432   3.131  1.3342  1.6057 -1.8508
17962TIP3   OH275376   6.385   3.762  15.374  0.2271 -0.2476 -0.7420
17962TIP3    H175377   6.442   3.745  15.299  0.2510 -3.1002 -0.1909
17962TIP3    H275378   6.443   3.753  15.450 -0.6700 -2.2498 -0.2271
17963TIP3   OH275379   3.009   3.565   1.983  0.1131  0.4099  0.2823
17963TIP3    H175380   3.080   3.508   2.011  0.6110 -0.2764 -2.0922
17963TIP3    H275381   3.053   3.634   1.932 -0.7837  0.8244  0.0545
17964TIP3   OH275382   6.017   6.421  11.473 -0.0147  0.3328  0.0962
17964TIP3    H175383   6.010   6.419  11.377 -1.4387  0.6031  0.1634
17964TIP3    H275384   6.081   6.489  11.491  1.9724 -1.2294 -0.6896
17965TIP3   OH275385   5.993   3.258   4.330 -0.8788 -0.2299 -0.9723
17965TIP3    H175386   5.930   3.329   4.334  2.5551  3.0804 -0.2377
17965TIP3    H275387   6.037   3.269   4.246  0.1637 -1.0431 -0.5617
17966TIP3   OH275388   0.535   3.313   6.067 -0.4669 -0.0724 -0.3206
17966TIP3    H175389   0.562   3.227   6.037 -1.8398  0.0684 -2.1613
17966TIP3    H275390   0.550   3.312   6.161 -0.3987 -2.3008 -0.3092
17967TIP3   OH275391   5.349   3.503   5.640 -0.2851  0.2984  0.2203
17967TIP3    H175392   5.280   3.475   5.579 -0.1548 -0.9039  0.6024
17967TIP3    H275393   5.364   3.594   5.618 -1.1022  0.2243 -0.7339
17968TIP3   OH275394   0.062   3.806   5.797 -0.0987 -0.0468  0.4434
17968TIP3    H175395   0.015   3.728   5.767 -0.9242 -0.2148  2.0518
17968TIP3    H275396   0.041   3.812   5.890 -2.4303  3.6905 -0.1110
17969TIP3   OH275397   1.017   1.974  10.857  0.1859 -0.2330  0.1058
17969TIP3    H175398   0.990   2.025  10.933  0.0476 -0.0560 -0.0647
17969TIP3    H275399   0.942   1.975  10.798  1.4931  2.7426 -1.7050
17970TIP3   OH275400   0.026   5.822  16.395 -0.4138  0.1477 -0.6446
17970TIP3    H175401  -0.002   5.750  16.340  1.0984  0.1290 -1.4506
17970TIP3    H275402  -0.029   5.896  16.368 -0.8648 -0.2949 -0.9465
17971TIP3   OH275403   6.249   0.982  13.469 -0.6584  0.4730 -0.6355
17971TIP3    H175404   6.311   0.935  13.413 -0.3602  0.1120 -0.0069
17971TIP3    H275405   6.304   1.031  13.530 -0.9736  1.3417 -1.0275
17972TIP3   OH275406   4.272   3.896  14.897  0.3539 -0.0759 -0.3521
17972TIP3    H175407   4.346   3.898  14.837  1.2333 -1.2231  0.6287
17972TIP3    H275408   4.302   3.841  14.970 -1.5023 -0.6698  0.0180
17973TIP3   OH275409   5.338   2.633  16.154  0.2731 -0.1782 -0.0798
17973TIP3    H175410   5.304   2.627  16.243 -2.2056 -0.5668 -0.9572
17973TIP3    H275411   5.372   2.546  16.135 -0.0663 -0.3714  0.1810
17974TIP3   OH275412   5.580   3.708   4.223 -0.6771 -0.1517  0.6374
17974TIP3    H175413   5.564   3.627   4.271  0.1292 -0.8400 -0.2102
17974TIP3    H275414   5.651   3.751   4.272 -1.7665  0.5423  1.6453
17975TIP3   OH275415   4.494   1.758   5.277  0.6810 -0.0931  0.4311
17975TIP3    H175416   4.497   1.809   5.196 -3.6457 -0.6180 -0.3159
17975TIP3    H275417   4.444   1.813   5.338 -1.7357 -2.1282  0.4713
17976TIP3   OH275418   1.574   0.692   0.329  0.0878 -0.8278  0.0565
17976TIP3    H175419   1.667   0.715   0.335  0.0893 -1.0083  0.8719
17976TIP3    H275420   1.530   0.754   0.388 -0.4036 -0.2821 -0.8578
17977TIP3   OH275421   0.303   2.424   2.916  0.6311 -0.1585  0.5033
17977TIP3    H175422   0.372   2.406   2.981 -0.7171 -1.7890  1.5831
17977TIP3    H275423   0.243   2.483   2.961 -0.0990 -0.9711  0.6233
17978TIP3   OH275424   3.231   6.571   5.615  0.4278 -0.1349 -0.4570
17978TIP3    H175425   3.213   6.495   5.671  1.3294  0.1658  0.2700
17978TIP3    H275426   3.289   6.537   5.547  1.9361  0.1470  0.6316
17979TIP3   OH275427   0.146   3.710  11.447 -0.0999  0.1382 -0.3378
17979TIP3    H175428   0.143   3.767  11.524  1.8964 -0.2910  0.1084
17979TIP3    H275429   0.109   3.764  11.377 -0.2502  1.2029  0.5266
17980TIP3   OH275430   2.207   0.970   2.912  0.0492 -0.3956 -0.4418
17980TIP3    H175431   2.134   1.002   2.858 -1.6099 -0.2015  1.7423
17980TIP3    H275432   2.252   0.907   2.857  0.0986  1.6942 -2.9617
17981TIP3   OH275433   4.464   5.842  12.317  0.1883 -0.5411  0.2415
17981TIP3    H175434   4.517   5.765  12.298  0.7682  0.0206 -0.4838
17981TIP3    H275435   4.397   5.844  12.248 -0.2641 -0.7744  0.6643
17982TIP3   OH275436   5.386   1.692  17.006  0.1056  0.6592  0.1040
17982TIP3    H175437   5.363   1.768  16.951 -2.0060 -0.4571 -0.6765
17982TIP3    H275438   5.454   1.646  16.957  0.7392  1.5269  0.1431
17983TIP3   OH275439   5.882   1.288   0.719  0.4378 -0.1463  0.2039
17983TIP3    H175440   5.933   1.329   0.789  2.7849 -0.0638 -1.4605
17983TIP3    H275441   5.931   1.210   0.696  0.4577  0.5064 -2.1832
17984TIP3   OH275442   1.473   3.698   6.446 -0.3100  0.4094 -0.1872
17984TIP3    H175443   1.483   3.692   6.541 -3.4746  0.5171  0.2272
17984TIP3    H275444   1.448   3.789   6.430 -3.2309 -0.4005 -0.6692
17985TIP3   OH275445   2.133   4.843   4.780 -0.3375  0.1414 -0.1924
17985TIP3    H175446   2.097   4.864   4.866 -0.5733  0.5459 -0.3858
17985TIP3    H275447   2.085   4.900   4.720  0.3919  0.4361 -0.4960
17986TIP3   OH275448   6.495   4.240  16.688 -0.3236  0.3444 -0.3632
17986TIP3    H175449   6.555   4.239  16.613 -0.9324 -1.4832 -0.8753
17986TIP3    H275450   6.409   4.222  16.650 -0.8395  0.5860  0.6485
17987TIP3   OH275451   0.382   3.323   1.130  0.1802  0.3774 -0.1305
17987TIP3    H175452   0.432   3.248   1.162  1.7398  0.8534 -1.3085
17987TIP3    H275453   0.394   3.390   1.197 -1.1803 -0.3707  0.9033
17988TIP3   OH275454   0.786   1.231   0.742 -0.3652 -0.1803 -0.2756
17988TIP3    H175455   0.815   1.311   0.697  2.3979 -1.3818 -0.8270
17988TIP3    H275456   0.755   1.262   0.828 -0.3996  1.5654 -0.8751
17989TIP3   OH275457   5.446   6.339  17.028 -0.3240 -0.4743  0.3541
17989TIP3    H175458   5.358   6.302  17.039 -0.5294 -0.5066 -1.1722
17989TIP3    H275459   5.447   6.373  16.939  1.4502 -1.0763  0.1014
17990TIP3   OH275460   4.096   4.229  15.456 -0.5316  0.1811 -0.3935
17990TIP3    H175461   4.076   4.255  15.546  1.4405  2.0703 -0.4198
17990TIP3    H275462   4.187   4.255  15.443 -1.0574  0.9485 -3.2853
17991TIP3   OH275463   3.047   3.348  13.777 -0.4229 -0.0868 -0.0758
17991TIP3    H175464   3.069   3.264  13.737  1.6731  1.1013 -1.6051
17991TIP3    H275465   3.069   3.413  13.711 -0.0858  1.7996  1.7801
17992TIP3   OH275466   4.029   5.269   1.796  0.2045  0.6233 -0.1053
17992TIP3    H175467   4.023   5.353   1.750 -2.1987  0.5198 -0.0894
17992TIP3    H275468   4.080   5.288   1.875  0.6019  1.8078 -0.6281
17993TIP3   OH275469   6.629   2.821  16.322  0.1008 -0.0847  0.0652
17993TIP3    H175470   6.577   2.751  16.360  0.6847 -0.8743 -0.5341
17993TIP3    H275471   6.719   2.788  16.325  0.2521  0.1406 -1.2781
17994TIP3   OH275472   6.797   0.009   6.567  0.1307  0.2744  0.1270
17994TIP3    H175473   6.803  -0.084   6.590  0.3838  0.4222  0.6638
17994TIP3    H275474   6.882   0.029   6.528 -0.5270 -0.1458 -1.6302
17995TIP3   OH275475   1.799   1.826   3.092 -0.5491  0.2366  0.0776
17995TIP3    H175476   1.859   1.901   3.094 -0.6460  0.3652 -1.0927
17995TIP3    H275477   1.712   1.864   3.093 -0.7137  0.4511 -3.8400
17996TIP3   OH275478   2.226   3.130   0.485  0.4743  0.6543  0.0953
17996TIP3    H175479   2.302   3.148   0.540 -0.4418  0.6831  1.3912
17996TIP3    H275480   2.164   3.088   0.543  0.3298 -1.4476 -1.4844
17997TIP3   OH275481   3.123   6.720   2.917  0.6480 -0.2121  0.1405
17997TIP3    H175482   3.082   6.657   2.857  1.4830 -0.8525  0.2255
17997TIP3    H275483   3.188   6.765   2.862 -0.6196  1.3143 -0.1866
17998TIP3   OH275484   2.707   1.472  14.391  0.0309 -0.1250 -0.5907
17998TIP3    H175485   2.679   1.472  14.483  1.1810 -2.3368 -0.1645
17998TIP3    H275486   2.703   1.564  14.365  0.5221  0.7011  1.9521
17999TIP3   OH275487   0.200   0.087  13.128  0.2788 -0.1301  0.5249
17999TIP3    H175488   0.292   0.083  13.155  0.1615 -1.6594  0.8073
17999TIP3    H275489   0.158   0.017  13.178 -0.9947  0.3735  0.1968
18000TIP3   OH275490   2.733   4.693   3.763  0.3147 -0.1109 -0.2900
18000TIP3    H175491   2.711   4.786   3.753 -2.2804 -0.7650 -1.6869
18000TIP3    H275492   2.822   4.685   3.729  0.2816  1.7185 -0.9052
18001TIP3   OH275493   0.892   5.484  15.757  0.4809 -0.4818  0.7672
18001TIP3    H175494   0.966   5.469  15.699  0.1651 -1.0560  0.4997
18001TIP3    H275495   0.902   5.418  15.827  0.0178 -0.8297  0.5170
18002TIP3   OH275496   4.553   1.007  10.663 -0.6969 -0.3247  0.2726
18002TIP3    H175497   4.477   1.035  10.612 -0.6674 -1.2063 -0.2769
18002TIP3    H275498   4.553   1.064  10.740 -1.4129  0.2525 -0.1501
18003TIP3   OH275499   2.482   5.685   6.082 -0.0962 -0.7935 -0.2051
18003TIP3    H175500   2.438   5.666   5.999  0.6628 -2.0985 -0.3277
18003TIP3    H275501   2.535   5.763   6.064  1.6008 -2.1846 -1.5534
18004TIP3   OH275502   4.397   2.958  12.511  0.0500  0.1112 -0.0184
18004TIP3    H175503   4.484   2.966  12.551 -0.2652 -0.7738  0.9036
18004TIP3    H275504   4.411   2.978  12.419  0.7998  2.3411  0.5096
18005TIP3   OH275505   5.296   6.264  13.296  0.0364  0.2184 -0.0733
18005TIP3    H175506   5.248   6.240  13.217  0.4593 -1.7558  0.2294
18005TIP3    H275507   5.229   6.265  13.365  0.0469 -0.2441 -0.0586
18006TIP3   OH275508   1.998   3.934  14.181  0.0251 -0.3209  0.0577
18006TIP3    H175509   1.915   3.895  14.154  1.1455 -2.5271 -0.3520
18006TIP3    H275510   1.972   3.999  14.248 -2.0845 -0.1721 -0.8151
18007TIP3   OH275511   6.225   1.373  10.780 -0.2621 -0.0894  0.5368
18007TIP3    H175512   6.296   1.345  10.838  1.3467  2.6080  0.0076
18007TIP3    H275513   6.193   1.454  10.819  0.8074  1.7750 -2.1932
18008TIP3   OH275514   1.619   2.781  12.004 -0.1188  0.4581 -0.0632
18008TIP3    H175515   1.564   2.817  11.934 -0.9674  0.7755  0.7373
18008TIP3    H275516   1.564   2.786  12.082 -0.6666 -3.3944  0.0060
18009TIP3   OH275517   4.514   2.547   6.536  0.3702 -0.3625 -0.7995
18009TIP3    H175518   4.430   2.509   6.562  0.1230 -0.0691 -1.1710
18009TIP3    H275519   4.497   2.590   6.453  0.9144 -0.3897 -0.9298
18010TIP3   OH275520   2.002   4.666   5.676  0.1305  0.0003  0.3228
18010TIP3    H175521   2.009   4.726   5.750 -1.1053  0.2550  0.2592
18010TIP3    H275522   1.909   4.645   5.671  0.1619  0.0997 -1.2339
18011TIP3   OH275523   5.077   5.568   5.022  0.1504 -0.0075 -0.0357
18011TIP3    H175524   5.049   5.571   4.930  0.4030 -0.4482 -0.1306
18011TIP3    H275525   5.045   5.650   5.060  0.1059  0.2083 -0.5347
18012TIP3   OH275526   5.329   5.907  11.646 -0.7658 -0.1253 -0.2482
18012TIP3    H175527   5.249   5.891  11.596 -1.0870  1.3357 -0.2523
18012TIP3    H275528   5.396   5.923  11.580 -0.2243 -2.2146 -0.2694
18013TIP3   OH275529   0.459   4.558  13.427 -0.4608 -0.0464 -0.4774
18013TIP3    H175530   0.442   4.549  13.333 -0.6217  2.1040 -0.7013
18013TIP3    H275531   0.450   4.651  13.444 -0.9104 -0.4472  1.7908
18014TIP3   OH275532   6.617   0.666   0.538  0.5802 -0.0514  0.1878
18014TIP3    H175533   6.581   0.738   0.485 -2.9319 -0.2961  1.9954
18014TIP3    H275534   6.598   0.587   0.487  3.5495  0.0449 -1.3188
18015TIP3   OH275535   6.063   3.826   3.977 -0.3561  0.1472  0.3214
18015TIP3    H175536   6.041   3.740   4.013 -0.3856  0.3138  0.7099
18015TIP3    H275537   6.157   3.832   3.987 -0.1208 -0.4840 -1.1598
18016TIP3   OH275538   3.971   0.055   2.480 -0.0737  0.6428  0.2299
18016TIP3    H175539   3.897   0.115   2.477  0.1699  0.9178 -2.3345
18016TIP3    H275540   4.024   0.078   2.404  1.4012 -1.1309  0.6418
18017TIP3   OH275541   3.383   5.757   5.813  0.0197  0.3671 -0.2528
18017TIP3    H175542   3.403   5.810   5.736  0.4247  0.4535 -0.0909
18017TIP3    H275543   3.288   5.746   5.811  0.2448 -2.1389 -2.4072
18018TIP3   OH275544   6.687   3.454  11.072  0.0480  0.4521  0.6834
18018TIP3    H175545   6.643   3.502  11.001  1.6659  0.6144 -0.2534
18018TIP3    H275546   6.687   3.515  11.145  0.5240  1.2300  0.0508
18019TIP3   OH275547   2.965   0.191  15.789 -0.3487 -0.0732 -0.1119
18019TIP3    H175548   3.005   0.180  15.703  0.9492  1.6537  0.2378
18019TIP3    H275549   2.934   0.282  15.791  0.8247  0.3457  1.6959
18020TIP3   OH275550   5.323   1.735   1.704 -0.2555 -0.2811  0.4598
18020TIP3    H175551   5.351   1.672   1.638  2.2225 -0.3891  1.5164
18020TIP3    H275552   5.257   1.688   1.755 -0.8625 -0.8230 -0.7765
18021TIP3   OH275553   3.631   5.586   3.122 -0.6055  0.5245  0.2869
18021TIP3    H175554   3.690   5.530   3.172 -1.1622  0.3069  0.7275
18021TIP3    H275555   3.570   5.621   3.188 -0.6984  1.0895 -0.0852
18022TIP3   OH275556   3.662   3.851   3.555 -0.0898 -0.2852  0.0217
18022TIP3    H175557   3.576   3.839   3.516 -0.2877 -0.5431  0.5311
18022TIP3    H275558   3.695   3.762   3.570 -0.3340 -0.2082  1.1146
18023TIP3   OH275559   0.641   5.228  13.694  0.7191  0.3113 -0.4885
18023TIP3    H175560   0.594   5.283  13.631  1.5837 -1.0607 -2.4363
18023TIP3    H275561   0.732   5.254  13.684  0.7765  0.7784  1.0017
18024TIP3   OH275562   6.813   1.344   0.092 -0.0820 -0.0368  0.4823
18024TIP3    H175563   6.837   1.430   0.057  0.3903  0.0538  1.0127
18024TIP3    H275564   6.718   1.342   0.086 -0.0492  0.1803 -0.3147
18025TIP3   OH275565   4.169   1.373  17.026  0.1727 -0.2950  0.0077
18025TIP3    H175566   4.127   1.289  17.047 -1.3573  0.8833  2.1536
18025TIP3    H275567   4.195   1.408  17.111  2.5069  0.6023 -1.0077
18026TIP3   OH275568   5.557   1.157   1.156 -0.2038  0.2483  0.4518
18026TIP3    H175569   5.509   1.183   1.234 -1.2156  2.9663 -0.9409
18026TIP3    H275570   5.501   1.184   1.083  1.2265 -1.0860 -1.2335
18027TIP3   OH275571   1.225   2.398  11.183 -0.1392 -0.8910 -0.1284
18027TIP3    H175572   1.154   2.374  11.123 -0.1800 -1.8516  0.2897
18027TIP3    H275573   1.191   2.375  11.270  0.6911 -1.3924  0.0733
18028TIP3   OH275574   0.623   5.278   5.943  0.1101 -0.3978 -0.0294
18028TIP3    H175575   0.686   5.241   5.881  2.2170  1.9373  0.5764
18028TIP3    H275576   0.660   5.363   5.967 -0.8164 -0.9720  4.0920
18029TIP3   OH275577   0.127   1.425   6.016  0.7889  0.0070 -0.2641
18029TIP3    H175578   0.146   1.490   6.084  0.6887  0.0261 -0.2528
18029TIP3    H275579   0.056   1.465   5.965 -1.0804 -1.1700  1.2985
18030TIP3   OH275580   5.649   1.357   2.161  0.0048 -0.5842 -0.1066
18030TIP3    H175581   5.586   1.429   2.149 -1.6032 -2.0329 -0.6940
18030TIP3    H275582   5.709   1.366   2.087  0.2055  0.4940  0.1577
18031TIP3   OH275583   4.841   1.662   4.198 -0.7068  0.3413 -0.0737
18031TIP3    H175584   4.774   1.698   4.140 -1.2662  0.2238  0.4896
18031TIP3    H275585   4.851   1.727   4.268  0.5054  0.8393 -0.6718
18032TIP3   OH275586   5.425   5.859  16.008 -0.6222  0.8590 -0.0955
18032TIP3    H175587   5.376   5.872  16.089  1.6246  1.1108  1.3002
18032TIP3    H275588   5.404   5.770  15.982 -4.0347  1.8079 -1.2288
18033TIP3   OH275589   0.589   3.071  16.710 -0.3793 -0.1674  0.2766
18033TIP3    H175590   0.573   3.160  16.741 -0.7080  0.0927 -0.6204
18033TIP3    H275591   0.620   3.082  16.620 -1.0491 -0.9936 -0.0632
18034TIP3   OH275592   2.526   0.707   6.028 -0.3968 -0.0502 -0.0307
18034TIP3    H175593   2.511   0.614   6.044  1.3577 -0.4213 -0.4163
18034TIP3    H275594   2.586   0.710   5.954  2.2502  1.2604  2.0088
18035TIP3   OH275595   4.827   2.079   5.024  0.4833 -0.4535  0.3040
18035TIP3    H175596   4.827   2.136   4.947 -0.2433 -0.0164  0.6209
18035TIP3    H275597   4.813   2.138   5.098  1.1264 -0.8794  0.7757
18036TIP3   OH275598   0.832   2.529   2.798  0.0878 -0.2175 -0.6102
18036TIP3    H175599   0.832   2.544   2.704 -0.8143  0.1356 -0.5635
18036TIP3    H275600   0.924   2.530   2.823  0.5736 -3.0796 -1.9138
18037TIP3   OH275601   6.789   1.281  14.368  0.1331  0.1567  0.1143
18037TIP3    H175602   6.757   1.372  14.366 -0.4448  0.0039  1.2199
18037TIP3    H275603   6.812   1.267  14.460  0.8027 -0.6230 -0.1702
18038TIP3   OH275604   3.915   0.912  12.406  0.2533  0.2600 -0.2306
18038TIP3    H175605   3.989   0.972  12.412 -0.4103  0.9574  1.8855
18038TIP3    H275606   3.919   0.861  12.487 -1.9338  0.7790  0.2677
18039TIP3   OH275607   2.060   4.065  12.964 -0.3118 -0.8459  0.0333
18039TIP3    H175608   2.076   4.086  13.056 -1.1115  0.1879 -0.0388
18039TIP3    H275609   2.098   4.139  12.916  0.9586 -1.8286 -0.5547
18040TIP3   OH275610   3.984   3.090  16.982 -0.4297 -0.2267 -0.1962
18040TIP3    H175611   3.982   3.181  16.954  0.3154  0.3239  1.4199
18040TIP3    H275612   3.941   3.042  16.911 -1.5946  1.4653 -0.7021
18041TIP3   OH275613   6.549   0.685  16.473 -0.2723 -0.0130 -0.6755
18041TIP3    H175614   6.526   0.643  16.556 -0.5812  0.7342 -0.3815
18041TIP3    H275615   6.531   0.618  16.407 -4.0497  0.6686 -0.5797
18042TIP3   OH275616   6.528   3.789  10.977 -0.2080  0.0881  0.1365
18042TIP3    H175617   6.511   3.859  10.914 -0.4408 -1.2077 -1.3108
18042TIP3    H275618   6.518   3.708  10.926  0.0969 -1.0047  1.7329
18043TIP3   OH275619   6.474   6.744  13.701  0.2820 -0.2496 -0.0117
18043TIP3    H175620   6.417   6.812  13.667  0.5363  0.3404  0.7074
18043TIP3    H275621   6.455   6.667  13.647 -2.3542 -0.5534  1.1701
18044TIP3   OH275622   0.378   2.223  12.708 -0.2246  0.3085  0.5208
18044TIP3    H175623   0.312   2.201  12.774 -0.0283 -0.7687  0.3774
18044TIP3    H275624   0.372   2.152  12.644  1.1980  0.0757  0.6058
18045TIP3   OH275625   6.808   6.596  11.231 -0.3496 -0.4242  0.6809
18045TIP3    H175626   6.848   6.511  11.247 -0.0504 -0.4729 -0.2461
18045TIP3    H275627   6.832   6.649  11.307 -0.0989 -1.0159  1.0159
18046TIP3   OH275628   3.949   3.441  11.215  0.2476 -0.5015 -0.2860
18046TIP3    H175629   3.862   3.409  11.187  0.3506 -2.0400  1.0363
18046TIP3    H275630   4.007   3.365  11.203  0.8817 -0.2768  1.2435
18047TIP3   OH275631   5.212   1.657   1.248 -0.6987 -1.2376 -0.3015
18047TIP3    H175632   5.267   1.630   1.174 -0.7584 -1.1119 -0.3912
18047TIP3    H275633   5.244   1.744   1.272 -0.9407 -1.1110 -0.4340
18048TIP3   OH275634   5.123   1.004   1.394  0.1301 -0.0874  0.0483
18048TIP3    H175635   5.058   0.991   1.463  1.1426 -1.0287  0.8641
18048TIP3    H275636   5.181   0.928   1.401  1.0016  0.4445 -1.0183
18049TIP3   OH275637   5.165   1.002  15.465  0.3436  0.7869  0.1255
18049TIP3    H175638   5.097   1.055  15.508 -0.1544  0.2151  0.0567
18049TIP3    H275639   5.188   0.937  15.531  0.7229  0.8854  0.0901
18050TIP3   OH275640   2.713   1.899   2.097  0.1676 -0.6363  0.7167
18050TIP3    H175641   2.735   1.897   2.191 -1.0040 -0.0994  1.0190
18050TIP3    H275642   2.651   1.971   2.089  1.9152  0.8200 -0.8619
18051TIP3   OH275643   0.677   0.816  11.638 -0.7179  0.4911 -0.6215
18051TIP3    H175644   0.626   0.856  11.709 -1.1990  0.5627 -1.0044
18051TIP3    H275645   0.745   0.766  11.683 -0.5535  1.1507 -0.1263
18052TIP3   OH275646   2.778   3.017  13.298  0.3003  0.0358  0.3894
18052TIP3    H175647   2.797   3.110  13.290 -0.0785  0.2916  1.9892
18052TIP3    H275648   2.684   3.014  13.314  0.1966 -0.6758 -0.3453
18053TIP3   OH275649   6.712   0.482   5.569  0.2054 -0.2537 -0.6397
18053TIP3    H175650   6.791   0.464   5.620 -1.1101 -0.8911  1.2985
18053TIP3    H275651   6.646   0.424   5.607 -1.1248  0.0392 -2.4041
18054TIP3   OH275652   2.813   1.986  13.361  0.4359 -0.3939  0.6175
18054TIP3    H175653   2.856   2.003  13.277 -0.1297  2.9332  0.8800
18054TIP3    H275654   2.721   1.971  13.339  0.6929 -1.9075  0.4987
18055TIP3   OH275655   3.009   6.017   1.242 -0.0249 -0.4097  0.8504
18055TIP3    H175656   2.969   6.095   1.279  0.5293  0.5076 -0.4311
18055TIP3    H275657   2.969   6.007   1.156  0.4489 -1.0993  0.6983
18056TIP3   OH275658   4.868   6.742  11.231 -0.1536 -0.4510  0.1316
18056TIP3    H175659   4.818   6.714  11.154  0.3010 -0.2773 -0.2263
18056TIP3    H275660   4.844   6.679  11.299 -0.7012 -0.4941 -0.0975
18057TIP3   OH275661   3.875   4.669   3.492  0.0092 -0.1588  0.6162
18057TIP3    H175662   3.787   4.682   3.458 -0.2861  0.3402  1.5232
18057TIP3    H275663   3.918   4.613   3.428 -1.3271 -1.3542  0.7266
18058TIP3   OH275664   6.143   3.091  16.110 -0.0540  0.1422  0.1818
18058TIP3    H175665   6.076   3.042  16.061  0.3636 -1.0305  0.7400
18058TIP3    H275666   6.216   3.099  16.049 -0.5589  1.1612 -0.3251
18059TIP3   OH275667   2.274   5.302  14.100 -0.4272 -0.0071 -0.1587
18059TIP3    H175668   2.285   5.208  14.105  1.4435  0.1297 -0.7752
18059TIP3    H275669   2.311   5.326  14.015 -1.0178  1.2700 -0.0864
18060TIP3   OH275670   1.194   5.744  13.752  0.6837 -0.1357 -0.3758
18060TIP3    H175671   1.210   5.742  13.657 -0.1840 -1.3169 -0.5199
18060TIP3    H275672   1.111   5.792  13.761  0.3351 -0.7448 -0.2948
18061TIP3   OH275673   2.907   1.164  12.706  0.2103 -0.3421 -0.1704
18061TIP3    H175674   2.822   1.201  12.684  0.0849 -1.2890 -1.4211
18061TIP3    H275675   2.966   1.239  12.707 -0.7410  0.4422  1.5082
18062TIP3   OH275676   0.629   5.857  16.892  0.6446 -0.6211 -0.0006
18062TIP3    H175677   0.642   5.896  16.979  0.1500 -1.1191  0.3028
18062TIP3    H275678   0.597   5.769  16.910  0.8545 -0.8435 -0.6923
18063TIP3   OH275679   4.218   3.543  11.916  0.1494  0.4323  0.0362
18063TIP3    H175680   4.190   3.505  11.999  0.1656 -0.3023 -0.2897
18063TIP3    H275681   4.164   3.500  11.850  1.8448 -0.8806 -0.5856
18064TIP3   OH275682   1.994   0.645   0.721  0.4205 -0.6781 -0.0157
18064TIP3    H175683   2.045   0.595   0.785  1.3457  2.2985  1.7851
18064TIP3    H275684   1.915   0.670   0.768 -0.3790 -1.0190 -1.1335
18065TIP3   OH275685   6.559   6.731   4.035 -0.2844  0.3119 -0.0588
18065TIP3    H175686   6.512   6.800   3.988 -1.8888 -0.8463 -0.2168
18065TIP3    H275687   6.504   6.654   4.027  1.4128 -0.9901  0.2178
18066TIP3   OH275688   5.402   3.354  16.478 -0.0772 -0.0447 -0.0792
18066TIP3    H175689   5.454   3.386  16.405  0.8867 -0.6554  0.3214
18066TIP3    H275690   5.462   3.300  16.529 -1.3412 -1.5208 -0.0812
18067TIP3   OH275691   0.231   4.301  14.492  0.3770 -0.0786 -0.3794
18067TIP3    H175692   0.288   4.227  14.508  0.1537  0.2635  2.3750
18067TIP3    H275693   0.285   4.378  14.510 -0.6479  0.2683  1.4417
18068TIP3   OH275694   5.413   3.259  12.406 -0.0286 -0.2678 -0.4071
18068TIP3    H175695   5.467   3.188  12.441  2.0330  1.3429 -0.1153
18068TIP3    H275696   5.373   3.222  12.327  0.3398 -1.9618  0.1469
18069TIP3   OH275697   4.799   5.607  15.367 -0.1452 -0.2922  0.2372
18069TIP3    H175698   4.833   5.686  15.410 -0.2985 -0.4782  0.7062
18069TIP3    H275699   4.877   5.557  15.343 -0.0209  0.3172 -0.6829
18070TIP3   OH275700   6.126   5.893   1.083  0.5816 -0.0986 -0.2188
18070TIP3    H175701   6.115   5.843   1.164 -2.0421 -0.7216 -0.8437
18070TIP3    H275702   6.208   5.940   1.094  0.2535 -0.0627  2.8423
18071TIP3   OH275703   4.386   0.876   4.586 -0.0939 -0.5338 -0.0151
18071TIP3    H175704   4.347   0.963   4.591  0.3140 -0.3512  0.0001
18071TIP3    H275705   4.316   0.821   4.550 -0.5574 -0.3330  0.5553
18072TIP3   OH275706   4.498   4.181   0.665  0.0680 -0.1074  0.2238
18072TIP3    H175707   4.555   4.202   0.739 -0.6637  0.0878  0.7470
18072TIP3    H275708   4.409   4.189   0.700 -0.2843 -0.4754 -0.5536
18073TIP3   OH275709   4.935   6.602  14.929 -0.3881  0.2498  0.0081
18073TIP3    H175710   4.902   6.539  14.865  0.0275 -1.8255  1.7074
18073TIP3    H275711   4.884   6.584  15.008  0.2021  1.6343  0.7327
18074TIP3   OH275712   4.846   6.776  10.336  0.4266 -0.0536  0.4757
18074TIP3    H175713   4.856   6.772  10.431  0.0747  2.5006  0.6998
18074TIP3    H275714   4.832   6.869  10.318 -0.1749 -0.5665 -2.0224
18075TIP3   OH275715   1.675   2.834   0.495  0.3158  0.8429  0.6788
18075TIP3    H175716   1.702   2.803   0.409 -2.2455  1.0784 -0.2928
18075TIP3    H275717   1.757   2.842   0.544  1.7102 -0.7458 -1.2223
18076TIP3   OH275718   3.050   6.316   4.266 -0.0309  0.1702  0.7164
18076TIP3    H175719   3.061   6.361   4.183  0.2166 -0.4385  0.4127
18076TIP3    H275720   2.971   6.263   4.254  0.4073 -0.4709  0.6095
18077TIP3   OH275721   6.083   5.770  16.007 -0.2672 -0.7069 -0.0816
18077TIP3    H175722   6.146   5.756  15.936  0.2437 -1.2866  0.4824
18077TIP3    H275723   6.134   5.807  16.079 -0.4976 -1.4963  0.4949
18078TIP3   OH275724   5.646   3.886  13.284 -0.1645  0.4881  0.3490
18078TIP3    H175725   5.552   3.870  13.269  0.2462  0.5982 -2.9332
18078TIP3    H275726   5.684   3.799  13.291 -0.3418  0.4141  0.3978
18079TIP3   OH275727   6.324   6.033   5.166 -0.6589 -0.1059  0.6833
18079TIP3    H175728   6.379   6.016   5.090 -1.4349  2.4182 -0.5427
18079TIP3    H275729   6.369   6.104   5.213 -1.2349 -0.2175  1.4297
18080TIP3   OH275730   0.375   2.382   4.140  0.0021  0.2768  0.5328
18080TIP3    H175731   0.469   2.372   4.125  0.5491  3.2511  1.2183
18080TIP3    H275732   0.334   2.347   4.061  1.7405 -0.2790 -0.1677
18081TIP3   OH275733   1.760   4.970   1.028 -0.2028 -0.1962  0.1638
18081TIP3    H175734   1.780   4.992   0.937  0.7875  0.8404  0.6178
18081TIP3    H275735   1.845   4.959   1.070 -0.6498 -1.5766  0.7788
18082TIP3   OH275736   2.768   3.940   5.596  0.0829  0.2354 -0.3296
18082TIP3    H175737   2.685   3.891   5.595 -1.3728  2.3187  2.8653
18082TIP3    H275738   2.759   4.003   5.525 -1.1666  0.5179  0.0499
18083TIP3   OH275739   6.076   2.084  11.705 -0.4497 -0.3185 -0.0845
18083TIP3    H175740   6.106   2.072  11.615 -0.4363 -1.1489  0.0182
18083TIP3    H275741   5.987   2.118  11.696 -0.8586 -1.4402 -0.4334
18084TIP3   OH275742   2.513   5.331   1.341  0.2019 -0.5013 -0.2299
18084TIP3    H175743   2.586   5.298   1.395  1.2845  1.6534 -0.2759
18084TIP3    H275744   2.516   5.426   1.351  2.5950  0.5860 -6.4486
18085TIP3   OH275745   5.273   2.532   0.388 -0.0888 -0.3256 -0.1111
18085TIP3    H175746   5.362   2.552   0.417  0.7008 -0.0325 -2.4834
18085TIP3    H275747   5.221   2.527   0.469  1.9012  0.2960  1.2733
18086TIP3   OH275748   6.564   6.546   1.708  0.2129  0.4800  0.5078
18086TIP3    H175749   6.496   6.601   1.670  0.6764  0.0159 -1.0824
18086TIP3    H275750   6.526   6.512   1.789 -0.6901  1.8027  0.6581
18087TIP3   OH275751   0.328   0.530  13.278  0.1629 -0.1735  0.6355
18087TIP3    H175752   0.248   0.517  13.329  0.3014 -0.6220  0.7472
18087TIP3    H275753   0.335   0.625  13.268  0.0067 -0.0904  1.2536
18088TIP3   OH275754   5.309   4.434   6.199 -0.1374  0.7359  0.1466
18088TIP3    H175755   5.392   4.477   6.179  0.0893 -0.3186 -1.3416
18088TIP3    H275756   5.274   4.483   6.273  1.6677  1.3861  0.6179
18089TIP3   OH275757   2.798   1.835  13.750 -0.3305 -0.1082 -0.0359
18089TIP3    H175758   2.865   1.827  13.818  0.5849 -2.2843 -1.0649
18089TIP3    H275759   2.845   1.871  13.675 -1.0094  0.9864  0.0463
18090TIP3   OH275760   2.714   6.501  12.527 -0.4485 -0.6330  0.3429
18090TIP3    H175761   2.648   6.508  12.596  0.4202  1.8727  1.0561
18090TIP3    H275762   2.671   6.535  12.449 -1.0526 -2.3402 -0.1090
18091TIP3   OH275763   5.013   4.090  14.189  0.3378 -0.1563 -0.1040
18091TIP3    H175764   5.033   4.157  14.254  1.9633 -0.5161 -0.2091
18091TIP3    H275765   5.016   4.136  14.105  0.0294 -0.0744 -0.0725
18092TIP3   OH275766   0.466   5.896   3.337 -0.5616 -0.1142  0.4716
18092TIP3    H175767   0.408   5.967   3.366 -0.1878  0.1624  0.5527
18092TIP3    H275768   0.553   5.923   3.367 -0.2042  0.0470 -0.6558
18093TIP3   OH275769   3.101   6.718  16.757  0.3849  0.0137  0.2822
18093TIP3    H175770   3.123   6.783  16.823 -1.8841 -0.4304  1.5728
18093TIP3    H275771   3.010   6.736  16.734  0.9670 -0.0912 -2.5020
18094TIP3   OH275772   3.546   2.527  13.616 -0.0695  0.0525 -0.5952
18094TIP3    H175773   3.629   2.518  13.569 -0.1135 -3.3842 -0.2555
18094TIP3    H275774   3.570   2.549  13.705  0.4770 -0.4780 -0.6086
18095TIP3   OH275775   4.368   1.432   6.636  0.5814 -0.0336  0.0205
18095TIP3    H175776   4.387   1.380   6.714  0.0089 -1.0792 -0.5151
18095TIP3    H275777   4.280   1.466   6.651  0.4104 -0.3611 -0.2263
18096TIP3   OH275778   1.072   5.071   1.731 -0.0746  0.0638  0.5602
18096TIP3    H175779   1.022   5.002   1.774 -1.6704  0.9792  0.2771
18096TIP3    H275780   1.110   5.029   1.654 -0.7976 -0.5640  0.5358
18097TIP3   OH275781   4.396   1.572   2.142 -0.0541 -0.2680  0.6742
18097TIP3    H175782   4.450   1.645   2.170 -0.7035  0.2057  0.7233
18097TIP3    H275783   4.319   1.576   2.198  0.0742 -1.2271  0.9383
18098TIP3   OH275784   5.303   2.387   3.687  0.5195  0.1602  0.2037
18098TIP3    H175785   5.242   2.440   3.739  0.8654 -0.1224  0.9032
18098TIP3    H275786   5.378   2.374   3.744  0.7838 -0.3994 -0.2683
18099TIP3   OH275787   3.872   4.739   4.187 -0.2446 -0.4491  0.0370
18099TIP3    H175788   3.965   4.742   4.164  0.0069  0.2889  1.0385
18099TIP3    H275789   3.850   4.646   4.184 -0.2825 -0.4406 -3.0854
18100TIP3   OH275790   5.643   5.956   0.508  0.5834 -0.1444  0.4573
18100TIP3    H175791   5.576   6.022   0.526  0.0631 -0.3379 -0.7188
18100TIP3    H275792   5.723   5.994   0.545  0.2933  1.1436 -0.1695
18101TIP3   OH275793   6.425   2.053  13.227 -0.4227 -0.2950 -0.1425
18101TIP3    H175794   6.370   1.975  13.222 -0.3100 -0.4158  0.3851
18101TIP3    H275795   6.427   2.075  13.321 -1.6221  1.1885 -0.4336
18102TIP3   OH275796   0.304   6.392   3.272 -0.1602  0.1336 -0.0071
18102TIP3    H175797   0.235   6.405   3.207  0.8450  1.6876 -0.8405
18102TIP3    H275798   0.279   6.450   3.345 -0.5350 -0.5087  0.3850
18103TIP3   OH275799   6.014   3.910  10.398  0.6606 -0.1622 -0.4508
18103TIP3    H175800   6.008   3.916  10.303 -0.4240  0.2293 -0.3685
18103TIP3    H275801   5.954   3.977  10.431  0.0955 -1.1047  0.5020
18104TIP3   OH275802   4.954   3.272  13.853  0.1042  1.0336 -0.4292
18104TIP3    H175803   4.927   3.280  13.945  0.1865 -0.7114 -0.2099
18104TIP3    H275804   5.003   3.190  13.850 -0.0528  0.9726 -2.0740
18105TIP3   OH275805   0.556   4.079   1.499 -0.1255 -0.1695 -0.0952
18105TIP3    H175806   0.591   4.160   1.536 -1.3578  0.2093  0.2948
18105TIP3    H275807   0.634   4.027   1.476  0.6697  0.4566  1.1017
18106TIP3   OH275808   3.979   1.253   3.900 -0.5973 -0.2935 -0.1550
18106TIP3    H175809   4.030   1.329   3.869  2.4687 -2.0355  0.1585
18106TIP3    H275810   3.974   1.266   3.995  0.6431 -0.8055  0.0037
18107TIP3   OH275811   4.740   6.000   0.911  0.7928  0.0697  0.4644
18107TIP3    H175812   4.715   6.084   0.873 -1.1062 -0.0569  1.3038
18107TIP3    H275813   4.824   6.016   0.953  2.3529  0.5305 -2.5664
18108TIP3   OH275814   2.798   0.977   1.837  0.1956 -0.5418 -0.1478
18108TIP3    H175815   2.749   1.057   1.816  0.1912 -0.4728  0.1140
18108TIP3    H275816   2.832   0.946   1.753 -1.1139 -1.1286 -0.4894
18109TIP3   OH275817   4.069   0.601  16.605 -0.2109 -0.5330  0.4366
18109TIP3    H175818   3.980   0.567  16.589 -0.0117 -2.1522  2.3018
18109TIP3    H275819   4.116   0.526  16.642  0.7509  1.3307  3.3185
18110TIP3   OH275820   4.373   0.069  15.419 -0.6317  0.4162  0.6560
18110TIP3    H175821   4.320   0.015  15.360  1.7284 -1.2447 -0.0765
18110TIP3    H275822   4.368   0.024  15.503 -1.0770  0.7554  0.8139
18111TIP3   OH275823   0.751   3.701  12.737  0.0514 -0.1730 -0.4049
18111TIP3    H175824   0.710   3.728  12.655  0.2996  0.1672 -0.4227
18111TIP3    H275825   0.827   3.649  12.711  0.0216 -0.2226 -0.3908
18112TIP3   OH275826   4.868   3.861  14.369 -0.6934  0.4163  0.2212
18112TIP3    H175827   4.858   3.891  14.279  0.3379 -1.4345 -0.5524
18112TIP3    H275828   4.930   3.924  14.408  0.6140 -0.0332 -1.0431
18113TIP3   OH275829   5.924   3.252  13.202 -0.3260  0.1641  0.1126
18113TIP3    H175830   6.002   3.254  13.147 -0.3991  0.9947  0.0267
18113TIP3    H275831   5.874   3.329  13.176 -0.5007  0.4094  1.1310
18114TIP3   OH275832   2.611   5.569   4.770  0.1590  0.2110 -0.8546
18114TIP3    H175833   2.600   5.546   4.678 -0.9927 -1.8272 -0.2799
18114TIP3    H275834   2.564   5.652   4.780 -0.5383 -0.0367 -1.9167
18115TIP3   OH275835   4.150   4.235   4.847  0.1196 -0.3129  0.0908
18115TIP3    H175836   4.073   4.197   4.804 -1.1113  0.8220  1.1999
18115TIP3    H275837   4.157   4.188   4.930 -0.5435  0.8335  0.8274
18116TIP3   OH275838   1.341   3.614   3.635 -0.1494  0.4415  0.2662
18116TIP3    H175839   1.293   3.532   3.620 -0.3682  0.1984  2.0692
18116TIP3    H275840   1.431   3.594   3.608 -0.6360  0.3153 -1.3589
18117TIP3   OH275841   0.464   4.751   4.241  0.1560  0.1337 -0.2841
18117TIP3    H175842   0.556   4.723   4.238  0.1775  0.2372 -2.6894
18117TIP3    H275843   0.419   4.679   4.285  1.2782 -0.1962  0.3846
18118TIP3   OH275844   0.060   3.291  16.580 -0.0145  0.2144  0.4207
18118TIP3    H175845   0.069   3.271  16.487 -2.1506 -2.2394  0.6407
18118TIP3    H275846   0.089   3.212  16.625 -2.4387 -0.0638  1.6440
18119TIP3   OH275847   4.482   4.845  15.639 -0.1030 -0.1167  0.0939
18119TIP3    H175848   4.487   4.824  15.546 -3.3474 -1.2822  0.0669
18119TIP3    H275849   4.552   4.793  15.679  1.2993  0.3464 -1.6069
18120TIP3   OH275850   3.655   6.779  16.689  0.0323  0.1115 -0.0100
18120TIP3    H175851   3.727   6.810  16.634 -2.5609 -0.2169 -4.0073
18120TIP3    H275852   3.684   6.693  16.720  1.5025  0.1039 -1.2550
18121TIP3   OH275853   1.083   2.446   1.906  0.3008 -0.2593  0.6288
18121TIP3    H175854   1.119   2.528   1.940 -0.0711  1.9521 -3.5366
18121TIP3    H275855   1.158   2.401   1.866 -0.2863  1.7129 -3.2406
18122TIP3   OH275856   2.001   0.432  13.082 -0.0717 -0.0962 -0.4310
18122TIP3    H175857   2.082   0.477  13.060 -0.3522 -0.0297 -1.3829
18122TIP3    H275858   1.995   0.360  13.019  0.9128 -2.2058  1.7233
18123TIP3   OH275859   2.517   3.600  15.277 -0.2582 -0.0956  0.0835
18123TIP3    H175860   2.581   3.634  15.215  0.2346 -1.1527 -0.0101
18123TIP3    H275861   2.487   3.677  15.325  0.0157  0.6154 -0.8436
18124TIP3   OH275862   4.550   0.511  14.809 -0.2294  0.7001  0.1511
18124TIP3    H175863   4.504   0.467  14.881  0.9120 -0.1307  0.4024
18124TIP3    H275864   4.488   0.577  14.778 -2.2124 -1.3651 -0.5626
18125TIP3   OH275865   1.068   3.098   1.483  0.1190  0.6097  0.1697
18125TIP3    H175866   1.120   3.065   1.409  1.9224  0.1002  1.6072
18125TIP3    H275867   0.989   3.043   1.483  0.4712  0.0718 -0.8579
18126TIP3   OH275868   4.768   0.112   4.940  0.1535 -0.2285  0.5623
18126TIP3    H175869   4.788   0.161   4.861 -0.1151  2.3685  1.9812
18126TIP3    H275870   4.847   0.061   4.958  1.2339  1.1784  0.0036
18127TIP3   OH275871   4.912   4.536   4.741 -0.3282 -0.2880 -0.5888
18127TIP3    H175872   4.825   4.533   4.781 -1.9952 -0.0221 -3.8520
18127TIP3    H275873   4.906   4.476   4.667  2.6347 -0.9627 -0.3880
18128TIP3   OH275874   3.956   1.001   1.090 -0.1709 -0.2061 -0.4656
18128TIP3    H175875   4.020   0.931   1.084  0.0769 -0.5702  3.3959
18128TIP3    H275876   4.009   1.079   1.111 -0.7901 -0.0546  0.5903
18129TIP3   OH275877   3.932   1.951  12.676  0.3340 -0.1954 -0.2235
18129TIP3    H175878   3.894   1.863  12.672  1.8506 -0.8877 -0.3397
18129TIP3    H275879   4.013   1.944  12.626  0.1082  1.4962 -0.8982
18130TIP3   OH275880   1.895   5.797  12.364 -0.7772 -0.4549  0.5008
18130TIP3    H175881   1.921   5.726  12.422 -1.1268 -0.8127  0.2216
18130TIP3    H275882   1.920   5.877  12.411  0.7935 -0.7764  0.2519
18131TIP3   OH275883   2.241   1.861  16.125 -0.1149 -0.0637  0.6221
18131TIP3    H175884   2.155   1.900  16.110  0.3189  0.0975 -1.7839
18131TIP3    H275885   2.222   1.772  16.154 -1.1538 -0.8132 -2.1249
18132TIP3   OH275886   4.973   1.141   2.827 -0.4152 -0.0836 -0.7076
18132TIP3    H175887   4.933   1.174   2.907  0.7067 -0.6431  0.1257
18132TIP3    H275888   4.933   1.192   2.757 -2.5317 -0.5942  0.0502
18133TIP3   OH275889   4.967   4.028   3.316  0.0196 -0.5014  0.1696
18133TIP3    H175890   4.921   3.945   3.303  0.1954 -0.3234 -1.9442
18133TIP3    H275891   4.936   4.084   3.245  0.4346  1.0217  1.1392
18134TIP3   OH275892   1.834   3.754  15.120 -0.5099  0.5786  0.1205
18134TIP3    H175893   1.914   3.724  15.078 -0.7978 -0.0267 -0.0090
18134TIP3    H275894   1.765   3.735  15.056 -0.6098  2.3501 -0.3506
18135TIP3   OH275895   1.990   5.497   2.133  0.3600 -0.4133  0.0086
18135TIP3    H175896   1.910   5.461   2.172 -0.0046 -0.8641 -1.1250
18135TIP3    H275897   2.049   5.509   2.208 -0.9385  0.4276  0.9309
18136TIP3   OH275898   4.568   4.503  11.321 -0.3967 -0.1219 -0.3073
18136TIP3    H175899   4.511   4.500  11.398  1.3076  0.2590  1.0293
18136TIP3    H275900   4.572   4.596  11.298 -0.7940 -0.2196 -0.8007
18137TIP3   OH275901   2.220   3.888   2.089  0.0004 -0.1294 -0.3032
18137TIP3    H175902   2.163   3.950   2.043 -0.1644  1.0975  1.4705
18137TIP3    H275903   2.160   3.823   2.125 -0.2335  0.6936  0.8466
18138TIP3   OH275904   2.348   4.815   1.112 -0.0996  0.2130 -0.4540
18138TIP3    H175905   2.309   4.749   1.055 -1.8141 -0.3443  1.2438
18138TIP3    H275906   2.418   4.770   1.158 -1.1779 -0.4498  0.5991
18139TIP3   OH275907   6.048   4.332  16.295 -0.1275 -0.0389  0.1449
18139TIP3    H175908   6.120   4.274  16.269  0.2876  1.4205 -2.1566
18139TIP3    H275909   6.091   4.407  16.336 -0.5563 -0.4303  1.3649
18140TIP3   OH275910   2.708   6.757   0.562 -0.0856 -0.5401 -0.1958
18140TIP3    H175911   2.734   6.848   0.544  1.7161 -0.9042  0.3303
18140TIP3    H275912   2.715   6.749   0.657 -1.7789 -0.8276 -0.0679
18141TIP3   OH275913   2.584   2.329  12.558  0.3347 -0.4453 -0.4412
18141TIP3    H175914   2.531   2.298  12.631 -0.0220 -0.2707 -0.6261
18141TIP3    H275915   2.670   2.290  12.573  1.2125  2.0233  1.8166
18142TIP3   OH275916   6.269   0.732  15.734 -0.4083 -0.5985 -0.2703
18142TIP3    H175917   6.219   0.776  15.665  0.5233 -1.1903 -1.3582
18142TIP3    H275918   6.259   0.788  15.811  0.0980  1.0963 -1.3915
18143TIP3   OH275919   1.770   2.326  16.467 -0.0185 -0.4798  0.2515
18143TIP3    H175920   1.847   2.376  16.439 -0.9633  0.1319 -1.3855
18143TIP3    H275921   1.788   2.304  16.558  0.8223  2.1092  0.8037
18144TIP3   OH275922   2.044   2.663   0.525 -0.6133 -0.3766 -0.1891
18144TIP3    H175923   2.126   2.617   0.541 -0.4941  0.0249  0.4110
18144TIP3    H275924   2.066   2.730   0.460 -0.4100 -0.1098  0.1558
18145TIP3   OH275925   1.607   5.896   2.332 -0.1075 -0.2762  0.3422
18145TIP3    H175926   1.660   5.817   2.342 -0.7112 -0.9194 -1.3314
18145TIP3    H275927   1.667   5.968   2.355  0.5821 -1.1527  1.4220
18146TIP3   OH275928   4.950   1.388   3.812 -0.3113  0.0912  0.3220
18146TIP3    H175929   4.934   1.454   3.880  2.5672  1.8007 -0.4660
18146TIP3    H275930   4.893   1.414   3.740  0.0279  1.1409  0.4053
18147TIP3   OH275931   1.036   1.891  13.616 -0.4765 -0.0992  0.5689
18147TIP3    H175932   0.973   1.883  13.688  0.0366 -1.0086  0.9398
18147TIP3    H275933   1.022   1.813  13.563 -0.6833  0.4459 -0.1979
18148TIP3   OH275934   2.354   1.385  13.418  0.4949 -0.0072  0.4149
18148TIP3    H175935   2.419   1.400  13.487 -0.4704  2.0613  0.9445
18148TIP3    H275936   2.352   1.467  13.368 -0.0093 -0.8837 -1.0926
18149TIP3   OH275937   3.302   4.860   3.003  0.2297  0.0894 -0.0719
18149TIP3    H175938   3.243   4.789   3.028  0.6175  0.2611  1.4110
18149TIP3    H275939   3.363   4.868   3.076  0.8465  1.2556 -0.6801
18150TIP3   OH275940   0.663   2.024   1.264  0.2748 -0.1542 -0.4635
18150TIP3    H175941   0.629   2.113   1.256 -0.5256 -0.5706 -2.2973
18150TIP3    H275942   0.758   2.036   1.264  0.1877  0.7026 -1.1466
18151TIP3   OH275943   2.425   2.265  11.593  0.4356 -0.3376 -0.3236
18151TIP3    H175944   2.334   2.235  11.590  0.3783 -0.1284 -0.8999
18151TIP3    H275945   2.467   2.220  11.520  0.3350  0.9925 -1.2495
18152TIP3   OH275946   6.386   2.855   0.357 -0.6031  0.0278 -0.2532
18152TIP3    H175947   6.396   2.765   0.326 -3.2891 -0.2656 -0.5172
18152TIP3    H275948   6.316   2.850   0.422 -1.3249  2.0141 -0.8056
18153TIP3   OH275949   3.136   0.321  14.425 -0.4166 -0.1348 -0.9840
18153TIP3    H175950   3.147   0.269  14.505 -1.2153  0.4621 -0.4736
18153TIP3    H275951   3.152   0.411  14.452  0.5200 -0.0425 -1.7753
18154TIP3   OH275952   6.288   4.416   1.830 -0.1290  0.2456  0.1087
18154TIP3    H175953   6.360   4.475   1.855  0.2450  0.0072 -0.3899
18154TIP3    H275954   6.330   4.331   1.818 -0.4507  0.1649 -0.4570
18155TIP3   OH275955   5.981   4.498   3.229 -0.6944  0.1006 -0.1556
18155TIP3    H175956   5.908   4.523   3.173 -0.8494  0.8090  0.3572
18155TIP3    H275957   5.941   4.473   3.312 -0.2968  1.8811  0.6268
18156TIP3   OH275958   0.850   0.658  14.446 -0.3402 -0.4928  0.2239
18156TIP3    H175959   0.849   0.564  14.464  0.4584 -0.9317 -1.7903
18156TIP3    H275960   0.941   0.678  14.422 -0.7085  0.5718 -0.3814
18157TIP3   OH275961   1.585   2.072   3.946 -0.2868 -0.1140 -0.0929
18157TIP3    H175962   1.642   2.109   3.878  0.3243  0.5028  0.7279
18157TIP3    H275963   1.607   1.979   3.947  1.7078  0.3045  1.0861
18158TIP3   OH275964   4.594   6.088  13.520 -1.2410 -0.3013  0.0232
18158TIP3    H175965   4.627   6.175  13.496 -0.4743 -0.5761  0.0352
18158TIP3    H275966   4.522   6.072  13.460 -1.0106  0.1027 -0.3706
18159TIP3   OH275967   1.511   5.723   1.770  0.5922 -0.0936  0.7389
18159TIP3    H175968   1.444   5.679   1.823 -0.6255  0.9833  0.1583
18159TIP3    H275969   1.593   5.702   1.813  0.0076 -2.2320  0.9629
18160TIP3   OH275970   2.205   5.514   5.008 -0.0217  0.1868 -0.4630
18160TIP3    H175971   2.211   5.535   4.915  0.4263 -1.4596 -0.8353
18160TIP3    H275972   2.115   5.487   5.021  0.6320 -2.7212 -1.1975
18161TIP3   OH275973   6.563   4.825   1.715 -0.1825  0.3087  0.1666
18161TIP3    H175974   6.579   4.781   1.632  0.8522  0.0467  0.4891
18161TIP3    H275975   6.510   4.902   1.692 -1.4319 -0.7209 -0.4824
18162TIP3   OH275976   6.676   4.718  14.229 -0.6507  0.0667  0.5777
18162TIP3    H175977   6.596   4.742  14.276 -0.2460  1.3699  0.6273
18162TIP3    H275978   6.745   4.770  14.270  0.3899 -1.5863  1.0292
18163TIP3   OH275979   1.218   4.779   6.026  0.3116  0.2898 -0.2508
18163TIP3    H175980   1.277   4.739   6.090 -0.5050  0.8305  0.8812
18163TIP3    H275981   1.179   4.853   6.073 -2.6048 -1.0728 -0.3339
18164TIP3   OH275982   1.406   3.017  12.003 -0.0650 -0.4462  0.4178
18164TIP3    H175983   1.417   2.983  11.914  0.9732 -1.7221  0.9950
18164TIP3    H275984   1.329   2.970  12.037 -0.0445 -0.4732  0.4267
18165TIP3   OH275985   4.441   0.074  12.112 -0.1932  0.7887 -0.3954
18165TIP3    H175986   4.482   0.036  12.034  1.2249  3.5762 -1.1054
18165TIP3    H275987   4.355   0.031  12.116  0.9971 -1.9504 -1.4231
18166TIP3   OH275988   1.679   1.274   4.685  0.8511 -0.3230 -0.7090
18166TIP3    H175989   1.622   1.305   4.756  0.7756 -0.5295 -0.6776
18166TIP3    H275990   1.718   1.193   4.719 -0.8527 -1.6445 -1.6886
18167TIP3   OH275991   1.324   6.489  11.530  1.0246  0.1149 -0.0945
18167TIP3    H175992   1.247   6.444  11.496 -1.2934  1.8184  2.4244
18167TIP3    H275993   1.313   6.580  11.501  1.0683  0.7472  1.7396
18168TIP3   OH275994   1.513   3.997   3.738 -0.4040 -0.6747 -0.1746
18168TIP3    H175995   1.590   3.947   3.764 -1.2237 -1.9078  0.0049
18168TIP3    H275996   1.547   4.081   3.709  0.8524 -0.4279  1.7964
18169TIP3   OH275997   4.923   3.155  11.225  0.1801  0.0064  0.3779
18169TIP3    H175998   4.943   3.235  11.177  2.4894 -1.3420 -1.1080
18169TIP3    H275999   5.007   3.127  11.262  0.7307 -4.1675 -3.2073
18170TIP3   OH276000   1.363   4.265  11.333 -1.0167  0.1137 -0.8740
18170TIP3    H176001   1.425   4.277  11.405 -0.7245 -2.3070 -0.6459
18170TIP3    H276002   1.282   4.238  11.376 -1.2980  0.1430 -1.3790
18171TIP3   OH276003   2.969   2.448  14.095  0.1428  0.5272  0.1627
18171TIP3    H176004   2.995   2.524  14.146 -0.8319 -1.3754  3.8506
18171TIP3    H276005   2.876   2.437  14.113  0.4335 -1.9940  0.5544
18172TIP3   OH276006   3.338   1.980   3.448  0.2951  0.5943 -0.3418
18172TIP3    H176007   3.243   1.970   3.437  0.5090 -0.3407 -1.5818
18172TIP3    H276008   3.357   2.067   3.414 -0.4651  2.0161  2.5936
18173TIP3   OH276009   6.659   2.597   3.418 -0.2838 -0.3013  0.0907
18173TIP3    H176010   6.677   2.691   3.417  0.2351 -0.3394  1.8118
18173TIP3    H276011   6.744   2.556   3.402 -0.3461 -0.4733  0.1971
18174TIP3   OH276012   3.228   1.560  12.751 -0.0732  0.1295 -0.4324
18174TIP3    H176013   3.294   1.553  12.819 -0.7988  0.7141  0.3550
18174TIP3    H276014   3.250   1.641  12.704  0.0350  0.0799 -0.4681
18175TIP3   OH276015   3.834   5.336  15.951  0.4504  0.4086 -0.0896
18175TIP3    H176016   3.788   5.362  15.871  0.4245  2.0418  0.4387
18175TIP3    H276017   3.924   5.319  15.922  0.3401  0.5740 -0.5346
18176TIP3   OH276018   0.455   1.309  12.436 -0.2730  0.9424 -0.0997
18176TIP3    H176019   0.541   1.320  12.396 -0.3860  0.8963 -0.3527
18176TIP3    H276020   0.453   1.217  12.464  0.4815  1.3904  1.5805
18177TIP3   OH276021   6.648   5.639  15.162 -0.6304  0.0595 -0.1232
18177TIP3    H176022   6.689   5.630  15.248  0.5761 -1.0772 -0.7752
18177TIP3    H276023   6.631   5.733  15.153  2.3904  0.7014 -0.0190
18178TIP3   OH276024   0.172   4.609  10.455  0.0546  0.5909 -0.4583
18178TIP3    H176025   0.243   4.666  10.424 -1.3547  2.9976  0.4156
18178TIP3    H276026   0.207   4.568  10.534  0.7742  1.0573 -0.5268
18179TIP3   OH276027   5.734   2.043   6.458 -0.2342 -0.3402 -0.6657
18179TIP3    H176028   5.768   2.125   6.421  0.8050 -1.0149 -1.2595
18179TIP3    H276029   5.648   2.066   6.492 -0.3314  0.7990 -1.6183
18180TIP3   OH276030   0.027   4.735   5.547 -0.2620  0.0071 -0.4795
18180TIP3    H176031  -0.020   4.664   5.503  0.6831  0.2541 -1.9407
18180TIP3    H276032   0.007   4.722   5.640  1.1657 -3.1697 -0.4877
18181TIP3   OH276033   5.334   1.024   0.159 -0.4099  0.5873 -1.0247
18181TIP3    H176034   5.313   1.116   0.177  1.0202  0.5302  1.3729
18181TIP3    H276035   5.412   1.028   0.103  1.2201  0.9741  1.1086
18182TIP3   OH276036   6.598   4.704   3.307  0.3994 -0.7475  0.4424
18182TIP3    H176037   6.562   4.658   3.383 -1.6897 -0.0144 -0.0388
18182TIP3    H276038   6.678   4.655   3.286  0.5942 -1.4698  2.5735
18183TIP3   OH276039   0.926   1.198   5.803  0.4624  0.0823 -0.5390
18183TIP3    H176040   0.925   1.103   5.791  1.3821  0.0278 -0.2546
18183TIP3    H276041   0.988   1.230   5.737  0.1891  0.4852 -0.6060
18184TIP3   OH276042   3.451   5.043  14.891  0.0086 -0.6580 -0.2581
18184TIP3    H176043   3.470   5.130  14.928  0.7223 -0.0204 -1.9974
18184TIP3    H276044   3.447   4.985  14.967  2.5007  0.3595  0.7648
18185TIP3   OH276045   6.745   5.481   0.327  0.2453 -0.2481 -0.6351
18185TIP3    H176046   6.799   5.480   0.406 -0.6215  1.5293  0.0508
18185TIP3    H276047   6.734   5.389   0.303  0.5358 -0.8301  1.3117
18186TIP3   OH276048   0.701   1.331   3.601 -0.1949 -0.4083  0.1248
18186TIP3    H176049   0.764   1.270   3.563 -0.1492  0.0489 -0.5471
18186TIP3    H276050   0.708   1.316   3.696 -0.2229 -1.4733 -0.0242
18187TIP3   OH276051   5.374   5.852   0.193  0.1233  0.6073  0.2714
18187TIP3    H176052   5.300   5.836   0.135  0.2700  0.6793  0.0632
18187TIP3    H276053   5.451   5.832   0.139  0.2179 -1.0139  0.9517
18188TIP3   OH276054   3.937   0.977  14.147  0.3007  0.2988 -0.1736
18188TIP3    H176055   3.937   1.046  14.080 -0.2973  0.5804  0.1111
18188TIP3    H276056   3.911   0.898  14.099 -1.5872  0.7797 -0.0181
18189TIP3   OH276057   3.585   0.308  12.700 -0.3668 -0.3776  0.4603
18189TIP3    H176058   3.495   0.323  12.731 -0.1889 -0.8473  1.2178
18189TIP3    H276059   3.638   0.371  12.747 -0.6148  1.8052 -1.9717
18190TIP3   OH276060   6.569   0.475   5.943  0.3750  0.2371 -0.1481
18190TIP3    H176061   6.541   0.448   6.031  0.7681  0.7240  0.1355
18190TIP3    H276062   6.665   0.466   5.945  0.5058  1.4598 -0.0983
18191TIP3   OH276063   2.619   3.483  14.787  0.0822  0.0601  0.2645
18191TIP3    H176064   2.629   3.562  14.735  0.6745 -1.3429 -1.8660
18191TIP3    H276065   2.687   3.423  14.755 -1.3308 -1.8814  0.6815
18192TIP3   OH276066   6.520   3.245  11.119 -0.2548  0.4170  0.4006
18192TIP3    H176067   6.449   3.274  11.061  0.0157  0.4581  0.0840
18192TIP3    H276068   6.585   3.316  11.115 -0.3942  0.5806  1.0358
18193TIP3   OH276069   4.452   5.736   5.513 -0.4494  0.4047  0.0832
18193TIP3    H176070   4.452   5.667   5.580 -0.1704  0.8528  0.5470
18193TIP3    H276071   4.542   5.769   5.513 -0.1237 -0.4162 -1.3695
18194TIP3   OH276072   1.831   2.266   5.124  0.1618  0.2577  0.1181
18194TIP3    H176073   1.820   2.188   5.070 -1.0406  0.5508 -0.0680
18194TIP3    H276074   1.925   2.268   5.144  0.6589  0.2123 -2.0289
18195TIP3   OH276075   3.684   3.339  12.195 -0.4238 -0.1357 -0.3956
18195TIP3    H176076   3.649   3.368  12.280 -1.4494  2.6615 -1.6275
18195TIP3    H276077   3.775   3.317  12.213 -0.2975  1.4616  1.2665
18196TIP3   OH276078   6.725   0.443   6.467  0.3328  0.0173  0.1627
18196TIP3    H176079   6.708   0.528   6.508  0.0795 -1.1461  2.6698
18196TIP3    H276080   6.697   0.379   6.533 -0.0451 -2.0410 -1.8725
18197TIP3   OH276081   5.261   3.335  13.755  0.6968  0.1858 -0.3428
18197TIP3    H176082   5.178   3.321  13.800  1.5542 -0.0075  1.2458
18197TIP3    H276083   5.236   3.360  13.666 -1.1109  1.6681  0.5116
18198TIP3   OH276084   1.350   0.359   3.791  0.0897  0.2258 -0.0291
18198TIP3    H176085   1.407   0.307   3.849  1.0415  2.6492  1.3370
18198TIP3    H276086   1.324   0.297   3.723  0.4408 -2.2844  1.9406
18199TIP3   OH276087   6.589   4.199  12.688 -0.6834 -0.8069  0.2378
18199TIP3    H176088   6.524   4.150  12.638 -2.9836 -0.4986  2.7256
18199TIP3    H276089   6.541   4.270  12.728  1.6915  0.8222  0.4133
18200TIP3   OH276090   6.365   0.954  15.958 -0.4451 -0.0102 -0.3139
18200TIP3    H176091   6.362   1.023  15.892  0.0202  1.6719  1.3369
18200TIP3    H276092   6.308   0.986  16.029 -1.4036 -2.0242 -0.1026
18201TIP3   OH276093   1.120   4.688   4.833  0.7531  0.2160 -0.0642
18201TIP3    H176094   1.181   4.743   4.883  2.3162 -2.1294  0.7536
18201TIP3    H276095   1.038   4.694   4.881  1.6654 -0.3205  1.6407
18202TIP3   OH276096   0.528   5.519  15.827  0.3475  0.5539  0.2507
18202TIP3    H176097   0.557   5.550  15.913 -1.0851 -0.9738  1.3500
18202TIP3    H276098   0.584   5.444  15.807 -0.6171 -0.3551  0.8433
18203TIP3   OH276099   1.014   0.797  15.434 -0.5314 -1.0244 -0.3751
18203TIP3    H176100   1.099   0.797  15.389 -0.6314  0.3928 -0.6237
18203TIP3    H276101   0.983   0.707  15.426 -0.2884 -0.9796 -2.6440
18204TIP3   OH276102   5.299   3.135   1.533  0.0426  0.3965  0.5957
18204TIP3    H176103   5.373   3.117   1.590  1.0685  1.8811 -0.1851
18204TIP3    H276104   5.338   3.178   1.457 -1.4919  0.0981 -0.3943
18205TIP3   OH276105   0.397   2.283  14.050 -0.2597 -0.4268  0.2664
18205TIP3    H176106   0.339   2.339  13.999  0.6313 -0.2017 -0.5212
18205TIP3    H276107   0.374   2.194  14.022  0.9733 -0.2575 -1.3772
18206TIP3   OH276108   6.507   4.700   4.413 -0.1627 -0.3825  0.0949
18206TIP3    H176109   6.414   4.678   4.419 -0.0209 -1.0337 -0.0427
18206TIP3    H276110   6.529   4.735   4.500 -1.6300  4.3614 -1.1158
18207TIP3   OH276111   5.745   0.213   5.456 -0.4548 -0.3768 -0.2699
18207TIP3    H176112   5.828   0.251   5.485 -0.1476 -1.6560  0.6204
18207TIP3    H276113   5.723   0.260   5.375  1.3319 -0.2704 -0.7311
18208TIP3   OH276114   0.443   3.559   2.178 -0.3909 -0.1931 -0.1993
18208TIP3    H176115   0.483   3.540   2.093 -0.0280  0.2436 -0.1283
18208TIP3    H276116   0.477   3.645   2.202 -0.2918 -0.4232  0.5088
18209TIP3   OH276117   5.000   5.518   5.862  0.1092 -0.4590 -0.5220
18209TIP3    H176118   5.070   5.460   5.832  0.2781 -0.0284 -0.9888
18209TIP3    H276119   4.997   5.505   5.957 -1.2121 -2.7254 -0.8006
18210TIP3   OH276120   1.737   2.107   2.464  0.2479  0.5225 -0.2537
18210TIP3    H176121   1.784   2.055   2.530 -1.2680  0.9883  1.2575
18210TIP3    H276122   1.652   2.125   2.503 -0.7155  0.8699 -2.3459
18211TIP3   OH276123   1.380   1.624   0.148  0.6181  0.3197 -0.0879
18211TIP3    H176124   1.469   1.655   0.129  0.4570  0.6753 -0.2769
18211TIP3    H276125   1.374   1.629   0.244  0.6412  0.7610 -0.1048
18212TIP3   OH276126   0.667   4.877   0.896 -0.1230  0.0559 -0.3742
18212TIP3    H176127   0.656   4.825   0.816  1.4710 -1.5426  0.3757
18212TIP3    H276128   0.688   4.965   0.865  3.4301 -1.1571 -1.8559
18213TIP3   OH276129   3.570   5.354   0.043  0.1162 -0.9429  0.6143
18213TIP3    H176130   3.492   5.301   0.026 -0.8198  0.4888  0.3098
18213TIP3    H276131   3.556   5.434  -0.007  0.5080  0.4874  2.6504
18214TIP3   OH276132   3.131   2.193  16.392 -0.7947 -0.0668 -0.0983
18214TIP3    H176133   3.105   2.106  16.363 -0.6070  0.4794 -2.0036
18214TIP3    H276134   3.061   2.250  16.363  0.1120  0.7143 -0.7931
18215TIP3   OH276135   4.582   0.172   5.660  0.2364  0.4467 -0.9634
18215TIP3    H176136   4.669   0.201   5.630  0.4619  0.4065 -0.3777
18215TIP3    H276137   4.537   0.253   5.683  0.5660  0.4024 -0.1148
18216TIP3   OH276138   0.186   2.500  15.376  0.3128 -0.1337  1.0521
18216TIP3    H176139   0.197   2.514  15.470  1.6114 -0.5385  0.9747
18216TIP3    H276140   0.257   2.440  15.352 -0.3242 -0.4633 -0.0917
18217TIP3   OH276141   0.038   2.246   6.148  0.2044 -0.3105 -0.4354
18217TIP3    H176142   0.119   2.223   6.102  0.3081  0.0947 -0.4565
18217TIP3    H276143   0.060   2.325   6.197  0.3436 -1.1833  0.9674
18218TIP3   OH276144   2.247   3.261   4.991 -0.3978 -0.1314 -0.0389
18218TIP3    H176145   2.243   3.188   5.053 -1.7238  1.1077  1.4420
18218TIP3    H276146   2.160   3.262   4.951  0.2371 -0.5125 -1.4926
18219TIP3   OH276147   4.124   2.974   0.467 -0.8649  0.0374 -0.8159
18219TIP3    H176148   4.123   2.991   0.561 -0.5662  1.8588 -1.1013
18219TIP3    H276149   4.051   2.913   0.453  0.2854 -1.8100  0.8125
18220TIP3   OH276150   4.554   5.819   3.019  0.2505  0.1296  0.0357
18220TIP3    H176151   4.593   5.903   3.042  0.5031  0.3696 -1.1697
18220TIP3    H276152   4.461   5.838   3.011 -0.0511 -0.2517  2.0595
18221TIP3   OH276153   5.854   3.855   5.430 -0.1578  0.0351  0.2533
18221TIP3    H176154   5.856   3.793   5.503 -0.3467  0.0604  0.2786
18221TIP3    H276155   5.827   3.802   5.355  0.9585 -0.2091 -0.0061
18222TIP3   OH276156   4.931   0.190   3.570 -0.3454  0.6573  0.3056
18222TIP3    H176157   4.878   0.265   3.598 -0.2144  0.7822  0.2184
18222TIP3    H276158   4.905   0.120   3.630 -0.6687  0.6949  0.2124
18223TIP3   OH276159   2.821   5.243  12.669 -0.2290 -0.1808  0.3850
18223TIP3    H176160   2.914   5.262  12.676 -0.4139  1.5158 -0.9581
18223TIP3    H276161   2.810   5.214  12.578 -1.1514  0.6506  0.2174
18224TIP3   OH276162   4.022   5.798   2.706 -0.0426 -0.0197  0.2223
18224TIP3    H176163   4.102   5.807   2.759 -1.5198 -0.7721  2.7577
18224TIP3    H276164   3.965   5.742   2.759 -3.0038  2.0388 -0.5758
18225TIP3   OH276165   3.122   2.891  11.633 -0.3072 -0.1556  0.2531
18225TIP3    H176166   3.120   2.985  11.656 -0.1355  0.2390 -1.2750
18225TIP3    H276167   3.055   2.852  11.688 -1.2100  1.0696  0.0668
18226TIP3   OH276168   2.656   3.696  14.642 -0.1164 -0.4768 -0.6183
18226TIP3    H176169   2.645   3.682  14.548  0.2790 -1.7053 -0.5052
18226TIP3    H276170   2.748   3.720  14.652  0.1347 -1.4487 -0.4539
18227TIP3   OH276171   0.099   1.206  14.148 -0.4065 -0.0212  0.1683
18227TIP3    H176172   0.153   1.136  14.185 -0.1182 -0.5438 -1.1812
18227TIP3    H276173   0.030   1.220  14.212 -0.3950 -1.4637  0.5269
18228TIP3   OH276174   2.000   0.563  16.971  0.2172  0.1134 -0.1621
18228TIP3    H176175   2.016   0.513  17.051  1.7568  2.8670  1.3997
18228TIP3    H276176   1.910   0.541  16.947  0.4154 -2.4063  1.0622
18229TIP3   OH276177   3.807   5.149   0.842  0.7388  0.0214 -0.0947
18229TIP3    H176178   3.762   5.230   0.867  1.6520  0.6492 -0.4119
18229TIP3    H276179   3.743   5.080   0.858  0.7632  0.5036  2.6355
18230TIP3   OH276180   0.201   0.212   2.071  0.2942 -0.2691  0.4089
18230TIP3    H176181   0.195   0.280   2.137 -0.5376 -0.9063  1.0156
18230TIP3    H276182   0.276   0.158   2.098  1.0177  0.4408 -0.1304
18231TIP3   OH276183   0.839   6.535  17.076  0.1783  0.4893 -0.5306
18231TIP3    H176184   0.781   6.487  17.134  1.0611 -2.0543 -1.6118
18231TIP3    H276185   0.889   6.592  17.134 -1.6110  0.8880  0.6973
18232TIP3   OH276186   3.082   1.363  15.078  0.1245 -0.0514 -0.3032
18232TIP3    H176187   2.994   1.332  15.059 -0.3350  1.0338 -0.0480
18232TIP3    H276188   3.093   1.440  15.022  1.5432 -1.0918 -1.5576
18233TIP3   OH276189   1.554   6.696  11.000 -0.7048  0.2458 -0.3700
18233TIP3    H176190   1.502   6.623  11.032 -0.9283  0.7002  0.3295
18233TIP3    H276191   1.525   6.771  11.053  1.0412  0.4110  0.4166
18234TIP3   OH276192   1.127   1.981   3.286  0.0671  0.5629  0.0500
18234TIP3    H176193   1.083   2.007   3.367  0.7491  2.0819 -0.0237
18234TIP3    H276194   1.202   1.929   3.314  0.0433  0.7037  0.3732
18235TIP3   OH276195   4.427   4.489  11.585  0.0074  0.1103  0.5768
18235TIP3    H176196   4.395   4.569  11.544  1.2120  0.6285  0.5981
18235TIP3    H276197   4.378   4.483  11.667  0.2553  1.1180  0.8203
18236TIP3   OH276198   2.985   5.962   3.207 -0.3142 -0.2607  0.0912
18236TIP3    H176199   3.055   5.942   3.269 -0.0948  0.9722  0.2559
18236TIP3    H276200   2.934   5.881   3.202  0.3485 -0.7513  0.9723
18237TIP3   OH276201   5.553   1.134   1.722 -0.2154 -0.1135 -0.4942
18237TIP3    H176202   5.483   1.070   1.710  0.9162 -1.4778 -0.1055
18237TIP3    H276203   5.590   1.146   1.634  0.7662 -1.4665 -0.3066
18238TIP3   OH276204   2.110   5.874  13.248 -0.2795  0.4663  0.3459
18238TIP3    H176205   2.055   5.881  13.170 -0.4975  1.2888  0.5623
18238TIP3    H276206   2.148   5.786  13.243  0.3202  0.7780 -1.0764
18239TIP3   OH276207   3.536   4.016   0.898  0.2170  0.1827 -0.4319
18239TIP3    H176208   3.576   4.001   0.812  0.8846  0.3818 -0.1631
18239TIP3    H276209   3.477   3.942   0.910  1.6415 -0.9580 -0.1911
18240TIP3   OH276210   6.304   6.201   1.318 -0.3121  0.0781  0.7796
18240TIP3    H176211   6.347   6.286   1.326 -0.4581  0.0268  2.4254
18240TIP3    H276212   6.356   6.142   1.372 -0.9874 -0.5693  0.7504
18241TIP3   OH276213   4.369   6.452   4.839 -0.1672  0.1133 -0.4145
18241TIP3    H176214   4.460   6.462   4.867  0.3215  2.0544 -2.4252
18241TIP3    H276215   4.320   6.445   4.921  1.8475 -2.6966  0.7309
18242TIP3   OH276216   1.080   5.691   1.499  0.1025  0.4111  0.0210
18242TIP3    H176217   1.082   5.755   1.570  0.0416  1.7937 -1.1556
18242TIP3    H276218   1.052   5.742   1.422 -0.2055 -1.1003 -0.9143
18243TIP3   OH276219   4.652   6.744   4.022  0.3943  0.2915 -0.8232
18243TIP3    H176220   4.718   6.791   4.072 -0.0872 -0.4791  0.5801
18243TIP3    H276221   4.665   6.773   3.931  3.8397 -1.1346 -0.9300
18244TIP3   OH276222   4.637   1.222  13.401 -0.4719  0.4192  0.2645
18244TIP3    H176223   4.556   1.222  13.452 -1.4878 -0.5379 -1.2738
18244TIP3    H276224   4.688   1.150  13.437  0.5355  2.0838  2.3970
18245TIP3   OH276225   4.594   2.969   0.663  0.8901  0.1783 -0.3661
18245TIP3    H176226   4.591   2.982   0.758 -0.5918 -0.6357 -0.2629
18245TIP3    H276227   4.655   2.896   0.651 -0.4759 -1.1240  0.1904
18246TIP3   OH276228   0.623   5.493   1.457  0.3101 -0.5454 -0.0592
18246TIP3    H176229   0.671   5.521   1.535 -0.9647 -0.2525  0.6479
18246TIP3    H276230   0.547   5.446   1.491 -0.4458 -0.1330 -1.1161
18247TIP3   OH276231   5.668   0.788   0.091  0.6337  0.1309  0.4623
18247TIP3    H176232   5.740   0.738   0.052  0.8669 -0.4730  1.6211
18247TIP3    H276233   5.618   0.724   0.141  0.1046  0.8033  0.8195
18248TIP3   OH276234   1.453   3.225  16.108  0.0304 -0.1879  0.5286
18248TIP3    H176235   1.461   3.237  16.013  0.7227 -0.6290  0.5157
18248TIP3    H276236   1.455   3.130  16.120 -1.8442 -0.2119  0.8618
18249TIP3   OH276237   1.457   1.179  13.507  0.8303 -0.1787  0.3555
18249TIP3    H176238   1.383   1.240  13.510  0.8804 -0.0890 -0.0701
18249TIP3    H276239   1.455   1.144  13.418  0.7382 -0.8876  0.6367
18250TIP3   OH276240   6.017   2.069   5.578 -0.1090  0.2921 -0.5270
18250TIP3    H176241   5.936   2.052   5.531 -1.8868  3.7528  0.9957
18250TIP3    H276242   6.023   2.164   5.585  2.9116  0.1188  1.4617
18251TIP3   OH276243   1.541   3.679  15.103  0.0930 -0.2057  0.2823
18251TIP3    H176244   1.449   3.685  15.076  0.0938  2.2744  0.5857
18251TIP3    H276245   1.575   3.603  15.056 -1.6398 -0.0716 -1.3001
18252TIP3   OH276246   6.562   6.113  11.707 -0.2766  0.1935  0.7509
18252TIP3    H176247   6.628   6.153  11.650 -0.4909  0.3989  0.6471
18252TIP3    H276248   6.533   6.036  11.659  2.2760 -1.8634  2.2098
18253TIP3   OH276249   2.631   4.762  14.900  0.1823  0.0015  0.3697
18253TIP3    H176250   2.554   4.784  14.847  0.7157 -0.1849 -0.4982
18253TIP3    H276251   2.634   4.830  14.967 -0.4610  0.2845  0.1171
18254TIP3   OH276252   4.448   6.472   2.560  0.0325  0.1555 -0.1797
18254TIP3    H176253   4.538   6.505   2.548  0.4043 -0.5818  0.4809
18254TIP3    H276254   4.457   6.377   2.554 -0.9749  0.1418 -1.7322
18255TIP3   OH276255   2.811   6.292   2.904 -0.0392 -0.4656  0.1741
18255TIP3    H176256   2.805   6.319   2.812  2.8933 -0.0897 -0.0007
18255TIP3    H276257   2.781   6.369   2.953  0.3580  0.1043 -0.4552
18256TIP3   OH276258   4.200   1.739  17.106  0.1656  0.0981  0.3430
18256TIP3    H176259   4.234   1.827  17.087 -1.4860  0.7112 -0.0077
18256TIP3    H276260   4.157   1.712  17.025  0.0229 -0.7197  0.6839
18257TIP3   OH276261   3.377   6.699  14.693  0.5974 -0.3286 -0.0078
18257TIP3    H176262   3.453   6.755  14.675 -0.4204  1.2911  0.5347
18257TIP3    H276263   3.317   6.716  14.621 -0.2256  0.2271  0.7854
18258TIP3   OH276264   3.448   1.759   0.610 -0.0676 -1.0253  0.5146
18258TIP3    H176265   3.492   1.782   0.692 -0.9315 -2.4660  1.4236
18258TIP3    H276266   3.357   1.784   0.624  0.1619  0.8469 -0.9114
18259TIP3   OH276267   2.718   2.358   3.235 -0.1768 -0.2229  0.1856
18259TIP3    H176268   2.759   2.443   3.254 -0.7296 -0.2512  1.6279
18259TIP3    H276269   2.637   2.359   3.286 -0.9056 -1.0426 -0.9216
18260TIP3   OH276270   1.145   0.250   5.273  0.2112  0.0403  0.1366
18260TIP3    H176271   1.205   0.323   5.287 -0.0466  0.0630  1.2694
18260TIP3    H276272   1.088   0.252   5.350 -0.3053 -0.8631 -0.2161
18261TIP3   OH276273   0.618   2.195  13.507 -0.2393  0.0389  0.0721
18261TIP3    H176274   0.667   2.272  13.478 -0.1255  0.2111  0.7165
18261TIP3    H276275   0.612   2.204  13.602 -1.3226 -0.1004  0.0313
18262TIP3   OH276276   2.789   1.727  14.103  0.0204 -0.0848 -0.2487
18262TIP3    H176277   2.828   1.738  14.190 -2.1941 -1.4714  1.0174
18262TIP3    H276278   2.698   1.755  14.114 -0.7179 -1.7035 -1.7100
18263TIP3   OH276279   2.518   4.722  11.043 -0.1563 -0.2471  0.5091
18263TIP3    H176280   2.562   4.733  10.958 -1.2500 -1.0819 -0.1980
18263TIP3    H276281   2.529   4.807  11.086 -2.0700  1.2759 -1.7129
18264TIP3   OH276282   0.014   1.653  12.345  0.0442  0.2348 -0.2105
18264TIP3    H176283  -0.029   1.652  12.431  0.9421 -0.1124  0.2527
18264TIP3    H276284  -0.058   1.659  12.282 -0.6154  0.7547  0.5701
18265TIP3   OH276285   3.947   2.849   4.663  0.3993  0.5483  0.1629
18265TIP3    H176286   3.887   2.835   4.589 -0.4970  1.2292  0.7454
18265TIP3    H276287   3.953   2.763   4.705 -1.3654  0.7690  0.9681
18266TIP3   OH276288   2.176   6.340   5.615  0.5558 -0.3198  0.2194
18266TIP3    H176289   2.178   6.358   5.521  1.9755 -0.5527  0.1933
18266TIP3    H276290   2.111   6.270   5.624  2.8730 -2.8009 -1.0613
18267TIP3   OH276291   6.007   2.967  11.709  0.0149  0.6615 -0.7654
18267TIP3    H176292   6.073   2.919  11.758 -0.2987 -0.6130 -1.5437
18267TIP3    H276293   6.055   3.040  11.669  0.8852 -0.0220 -0.9963
18268TIP3   OH276294   1.715   0.944  12.724  0.1310 -0.3148  1.1403
18268TIP3    H176295   1.790   0.891  12.749  1.6997  1.5915  0.7323
18268TIP3    H276296   1.753   1.019  12.678 -2.2168 -1.5041 -3.3818
18269TIP3   OH276297   0.329   0.239   4.792  0.5593  0.5490 -0.9898
18269TIP3    H176298   0.366   0.157   4.757 -2.5910 -1.7072  0.4921
18269TIP3    H276299   0.361   0.244   4.882 -0.3301  0.1819 -0.6457
18270TIP3   OH276300   2.335   2.695   4.897  0.5563 -0.2032  0.7411
18270TIP3    H176301   2.338   2.622   4.959  3.4858 -1.3417 -0.5184
18270TIP3    H276302   2.281   2.663   4.825  1.7550 -1.1781  0.2325
18271TIP3   OH276303   4.768   6.273   1.543 -0.1375  0.4802  1.0310
18271TIP3    H176304   4.720   6.207   1.492 -0.2197  0.6359  0.9054
18271TIP3    H276305   4.729   6.270   1.630  0.1917  0.0130  1.1676
18272TIP3   OH276306   0.201   3.607   5.171  0.1347 -0.0745 -0.2046
18272TIP3    H176307   0.264   3.582   5.239  0.4380  0.2229 -0.3729
18272TIP3    H276308   0.222   3.698   5.152  0.2495 -0.2408 -0.9073
18273TIP3   OH276309   1.459   0.341   4.089  0.0944 -0.1238  0.2055
18273TIP3    H176310   1.455   0.260   4.037 -0.5016  0.0186  0.0135
18273TIP3    H276311   1.482   0.312   4.177  2.4144 -0.2478 -0.3869
18274TIP3   OH276312   3.306   4.593  13.751  0.3125  0.6084 -0.1137
18274TIP3    H176313   3.230   4.598  13.693  0.6170  0.9043 -0.4950
18274TIP3    H276314   3.378   4.628  13.699  0.8621 -0.3488 -0.0124
18275TIP3   OH276315   6.684   4.233   3.540  0.8928  0.4590  0.6343
18275TIP3    H176316   6.751   4.267   3.599  1.0734 -0.9145  1.2557
18275TIP3    H276317   6.723   4.155   3.500  0.4018  0.7820 -0.5509
18276TIP3   OH276318   0.601   5.759   5.833  0.5764  0.4430  0.2271
18276TIP3    H176319   0.622   5.850   5.855 -1.2442  0.7357  0.9950
18276TIP3    H276320   0.510   5.749   5.861  0.3950 -1.3034 -0.8708
18277TIP3   OH276321   5.841   2.718   2.433  0.8857 -0.4611 -0.0326
18277TIP3    H176322   5.802   2.650   2.379 -1.2206  0.2638  0.5099
18277TIP3    H276323   5.849   2.794   2.376 -2.0909  0.5613  0.7510
18278TIP3   OH276324   1.379   0.026  14.536  0.6260 -0.6409 -0.2883
18278TIP3    H176325   1.462  -0.018  14.516  1.0665 -0.8188  1.7588
18278TIP3    H276326   1.405   0.113  14.567 -0.0043 -0.4323 -0.3379
18279TIP3   OH276327   6.455   3.410  15.099  0.2842 -0.6136 -0.3114
18279TIP3    H176328   6.443   3.354  15.176  0.7156 -1.9974 -1.2052
18279TIP3    H276329   6.515   3.361  15.043  2.7552  1.8955 -0.0591
18280TIP3   OH276330   1.451   0.298   2.411  0.6745 -0.1176  0.3069
18280TIP3    H176331   1.463   0.311   2.317 -2.6477 -0.0068 -0.2221
18280TIP3    H276332   1.500   0.370   2.452 -0.4243  1.7877 -1.5431
18281TIP3   OH276333   1.438   1.049  14.562 -1.0697  0.5909 -0.1928
18281TIP3    H176334   1.380   1.054  14.637 -1.0859  0.0422 -0.1642
18281TIP3    H276335   1.453   0.955  14.549  1.8732  0.7292  1.4012
18282TIP3   OH276336   3.646   5.629   2.170 -0.1106 -0.0478  0.2059
18282TIP3    H176337   3.637   5.724   2.162  1.3057  0.0280 -0.8698
18282TIP3    H276338   3.595   5.606   2.248 -1.4144  1.4281 -0.1672
18283TIP3   OH276339   6.754   2.231   0.381  0.0964 -0.5138 -0.3338
18283TIP3    H176340   6.762   2.224   0.476  0.5670 -0.8690 -0.3984
18283TIP3    H276341   6.805   2.309   0.358 -0.3526 -0.1937 -0.2525
18284TIP3   OH276342   3.328   2.181   1.573 -0.2911  0.1103 -0.4448
18284TIP3    H176343   3.380   2.146   1.646 -1.3306 -1.6133 -0.4712
18284TIP3    H276344   3.386   2.177   1.498  0.4397  0.8929  0.0532
18285TIP3   OH276345   0.397   4.261  13.434 -0.7002  0.2972 -0.4409
18285TIP3    H176346   0.472   4.291  13.382  0.7652 -0.7383  0.9384
18285TIP3    H276347   0.357   4.193  13.381  2.6243 -2.9848  0.7842
18286TIP3   OH276348   3.352   0.633   3.515  0.7563 -0.2687  1.0455
18286TIP3    H176349   3.262   0.654   3.490  0.5098  0.3618  2.3747
18286TIP3    H276350   3.389   0.717   3.542  0.9283 -0.8895  2.9047
18287TIP3   OH276351   2.827   2.285  11.920 -0.0767  0.7670  0.0747
18287TIP3    H176352   2.746   2.297  11.871 -1.0042 -0.0115  1.3474
18287TIP3    H276353   2.801   2.233  11.997  1.6535  0.3757  0.4365
18288TIP3   OH276354   2.712   5.079   2.088 -0.4123 -0.3339  0.2530
18288TIP3    H176355   2.663   5.157   2.113 -0.4980  0.2982 -1.6529
18288TIP3    H276356   2.801   5.096   2.117 -0.7018 -0.1233  1.0283
18289TIP3   OH276357   0.160   2.759   1.376 -0.7913  0.3771  0.6567
18289TIP3    H176358   0.140   2.824   1.444 -1.3166  1.6476 -0.6703
18289TIP3    H276359   0.165   2.676   1.424  1.4594  1.5278  2.6690
18290TIP3   OH276360   1.048   5.872   0.419  0.4149  0.1169 -0.0540
18290TIP3    H176361   1.113   5.938   0.398  0.4090  0.2114  0.2191
18290TIP3    H276362   0.979   5.920   0.465  0.3683 -0.0612  0.0641
18291TIP3   OH276363   5.031   5.705   2.778  0.1309 -0.2117 -0.9408
18291TIP3    H176364   4.937   5.722   2.783 -0.0506 -1.0451 -1.4423
18291TIP3    H276365   5.043   5.622   2.824  0.9722  1.0149  1.2352
18292TIP3   OH276366   6.773   6.109   3.494 -0.0197 -0.0941 -0.2815
18292TIP3    H176367   6.728   6.141   3.416  1.6132  0.0370 -1.2394
18292TIP3    H276368   6.704   6.074   3.550 -1.3120  0.4506 -1.4751
18293TIP3   OH276369   1.195   4.275  13.954  0.0935 -0.4092  0.3506
18293TIP3    H176370   1.113   4.278  13.905  0.0540 -1.5534  0.3190
18293TIP3    H276371   1.167   4.273  14.046  0.0755 -1.0780  0.3310
18294TIP3   OH276372   3.363   4.239  14.746 -0.1994  0.5492  0.2334
18294TIP3    H176373   3.328   4.319  14.706 -1.1725 -0.3588 -0.8069
18294TIP3    H276374   3.430   4.209  14.685 -1.7502 -0.8896 -0.8747
18295TIP3   OH276375   4.967   4.185   3.988 -0.8700 -0.8805  0.0632
18295TIP3    H176376   4.875   4.210   4.000 -0.7159 -0.5543  0.6386
18295TIP3    H276377   4.973   4.158   3.897 -1.2193  0.5014 -0.3980
18296TIP3   OH276378   1.640   0.556   4.295  0.4612  0.4696 -0.3396
18296TIP3    H176379   1.594   0.565   4.211  1.6577  0.9426 -0.9552
18296TIP3    H276380   1.733   0.561   4.273  0.7878  1.5706  1.1253
18297TIP3   OH276381   1.559   3.096  10.458 -0.7346  0.4495  0.3653
18297TIP3    H176382   1.558   3.051  10.542 -0.2167 -0.6015 -0.1730
18297TIP3    H276383   1.609   3.039  10.400 -1.0597  1.1628 -0.6600
18298TIP3   OH276384   5.745   2.072   0.858  0.2044 -0.8542 -0.7422
18298TIP3    H176385   5.767   2.058   0.766  0.6630  1.2495 -0.9907
18298TIP3    H276386   5.649   2.072   0.860  0.1398  0.9906 -1.6062
18299TIP3   OH276387   2.156   1.853  17.088  0.1854  0.1769  0.4525
18299TIP3    H176388   2.147   1.866  16.994  1.1933  0.1650  0.3411
18299TIP3    H276389   2.249   1.830  17.100  0.3946  1.5019  1.5961
18300TIP3   OH276390   5.828   0.831  11.238  0.4042  0.1253  0.1711
18300TIP3    H176391   5.740   0.821  11.275 -0.0964  1.9333 -0.4263
18300TIP3    H276392   5.878   0.758  11.274 -0.5928  0.6424  2.8178
18301TIP3   OH276393   0.040   4.047  16.945 -0.5427 -0.5047 -0.3210
18301TIP3    H176394   0.075   3.959  16.948  0.9398  0.0413 -0.6388
18301TIP3    H276395   0.109   4.099  16.903 -0.4371  1.2234  1.8016
18302TIP3   OH276396   3.710   5.399   4.480 -0.3333 -0.0489 -0.0723
18302TIP3    H176397   3.794   5.440   4.501  0.1588 -1.0565 -0.0052
18302TIP3    H276398   3.723   5.307   4.499 -0.6788 -0.6375 -2.3618
18303TIP3   OH276399   3.166   0.186  12.665  0.5804 -1.0666 -0.4023
18303TIP3    H176400   3.075   0.212  12.680  0.5060 -2.1491  1.1791
18303TIP3    H276401   3.208   0.266  12.633 -0.8123 -0.4314 -0.7240
18304TIP3   OH276402   2.828   5.224   0.706  0.1989 -0.2088 -0.0271
18304TIP3    H176403   2.812   5.282   0.631  0.6971 -0.5872 -0.4331
18304TIP3    H276404   2.880   5.277   0.767 -0.0632  0.0435 -0.0212
18305TIP3   OH276405   3.082   4.622   5.198 -0.1632  0.1676 -0.4077
18305TIP3    H176406   3.123   4.706   5.218  0.1438 -0.5241  2.2204
18305TIP3    H276407   3.003   4.644   5.150  0.4946  1.8641 -0.7705
18306TIP3   OH276408   2.680   4.318   0.306 -0.2204 -0.3573 -0.0944
18306TIP3    H176409   2.641   4.231   0.299 -1.6881  0.3701 -2.0024
18306TIP3    H276410   2.609   4.378   0.281  0.5617  1.4532  1.7760
18307TIP3   OH276411   2.500   3.121  12.574  0.1357  0.4156 -0.5181
18307TIP3    H176412   2.571   3.158  12.521  0.6528  1.4214  0.8204
18307TIP3    H276413   2.538   3.111  12.661 -0.9513 -0.3741 -0.1195
18308TIP3   OH276414   4.659   5.369  16.187  0.7967  0.1498  0.1008
18308TIP3    H176415   4.608   5.288  16.181  0.6735  0.0792  1.6682
18308TIP3    H276416   4.614   5.430  16.129  1.4113 -1.1349 -1.7972
18309TIP3   OH276417   3.573   0.817  14.597  0.0780 -0.1513 -0.0824
18309TIP3    H176418   3.600   0.730  14.626  1.7984  0.2868 -0.2700
18309TIP3    H276419   3.549   0.805  14.505 -0.6956 -0.6061  0.1679
18310TIP3   OH276420   2.676   5.364   1.893 -0.5261 -0.0738 -0.4015
18310TIP3    H176421   2.595   5.413   1.886 -2.3027 -2.4325  1.8215
18310TIP3    H276422   2.714   5.391   1.977  0.5394  0.2957 -0.9749
18311TIP3   OH276423   3.239   2.388   1.330  0.6636  0.0509 -0.1260
18311TIP3    H176424   3.272   2.393   1.420  1.4693 -0.2015 -0.4030
18311TIP3    H276425   3.309   2.425   1.276 -0.1782  1.0327 -0.5825
18312TIP3   OH276426   1.519   3.233  11.612 -0.2802  0.1652  0.0039
18312TIP3    H176427   1.451   3.178  11.574 -0.3432 -0.6679  1.2708
18312TIP3    H276428   1.556   3.280  11.537 -1.6061 -0.0553 -0.8344
18313TIP3   OH276429   2.601   1.112   4.757 -0.2753 -1.1976 -0.2329
18313TIP3    H176430   2.572   1.076   4.673  0.4014 -2.0885 -0.1025
18313TIP3    H276431   2.689   1.147   4.740 -0.0289 -1.6137  0.1581
18314TIP3   OH276432   4.967   3.003  12.833  0.1084 -0.8009  0.1754
18314TIP3    H176433   5.046   3.049  12.806  0.2842 -0.1510  1.7201
18314TIP3    H276434   4.999   2.920  12.869  0.2089 -0.1166  1.7340
18315TIP3   OH276435   1.852   3.025  11.465  0.5451  0.0007  0.2472
18315TIP3    H176436   1.815   2.993  11.547  0.0128 -0.5217 -0.1926
18315TIP3    H276437   1.777   3.058  11.415  0.8416  0.1545 -0.1044
18316TIP3   OH276438   5.422   5.727   4.843  0.0078  0.5753 -0.1255
18316TIP3    H176439   5.374   5.781   4.780 -0.2020  1.5396  0.8448
18316TIP3    H276440   5.394   5.637   4.823  0.2096  0.8226 -1.6245
18317TIP3   OH276441   2.949   4.887  15.804 -0.0596  0.0203 -0.1742
18317TIP3    H176442   3.009   4.878  15.878 -0.7899  1.6991  0.6821
18317TIP3    H276443   2.866   4.916  15.844 -0.5628  0.6383 -1.6044
18318TIP3   OH276444   4.585   6.274   6.001  0.1314  0.0857  0.7547
18318TIP3    H176445   4.605   6.318   6.083 -2.0661  0.3751  1.2050
18318TIP3    H276446   4.556   6.187   6.028  0.9491 -0.3918  0.1369
18319TIP3   OH276447   0.949   5.880   2.926 -0.0131  0.4425  0.1347
18319TIP3    H176448   1.027   5.930   2.904  0.1637  1.2553  2.3275
18319TIP3    H276449   0.877   5.930   2.889  0.3974  0.3157 -0.8741
18320TIP3   OH276450   5.073   4.238  12.281  0.7947 -0.6588  0.0679
18320TIP3    H176451   5.159   4.229  12.321  0.1948 -1.3843  1.2555
18320TIP3    H276452   5.025   4.160  12.309 -0.5136  0.1470  0.1657
18321TIP3   OH276453   1.745   5.166  14.512 -0.2774  0.0232 -0.0815
18321TIP3    H176454   1.783   5.194  14.429  1.7139  0.6299  0.9628
18321TIP3    H276455   1.662   5.213  14.517  0.2202  1.0623 -1.1133
18322TIP3   OH276456   4.926   3.223  15.234 -0.1171 -0.4987  0.0327
18322TIP3    H176457   4.842   3.180  15.220  0.0929 -0.2285 -2.5591
18322TIP3    H276458   4.915   3.272  15.316 -2.6481 -0.0568 -0.4909
18323TIP3   OH276459   1.719   1.442   4.482 -0.4395  0.5488 -0.6291
18323TIP3    H176460   1.785   1.500   4.521 -0.4857  0.7292 -0.8154
18323TIP3    H276461   1.683   1.393   4.556 -1.0113  1.3709 -0.3442
18324TIP3   OH276462   3.787   6.769  15.418  0.4833 -0.0466  0.0954
18324TIP3    H176463   3.749   6.836  15.361  2.9428  0.7732 -0.7056
18324TIP3    H276464   3.787   6.690  15.364 -0.5162 -0.2056  0.3020
18325TIP3   OH276465   4.339   0.017   3.974  0.2815  0.4802 -0.1303
18325TIP3    H176466   4.364  -0.006   3.884 -0.0441  0.8819 -0.3280
18325TIP3    H276467   4.286  -0.057   4.004  2.0306 -0.6017  0.4567
18326TIP3   OH276468   2.264   1.399   5.147 -0.2602  0.0785 -0.0614
18326TIP3    H176469   2.253   1.454   5.224  0.6834  0.4283 -0.1629
18326TIP3    H276470   2.211   1.442   5.080 -1.1830 -0.2962  0.4182
18327TIP3   OH276471   1.711   5.476   5.890  0.1024  0.0529 -0.0132
18327TIP3    H176472   1.787   5.435   5.932 -0.1822  0.1933  0.6486
18327TIP3    H276473   1.642   5.410   5.895  0.2607 -0.1888 -0.8865
18328TIP3   OH276474   5.156   3.174   6.247 -0.1771 -0.2188 -0.3486
18328TIP3    H176475   5.197   3.202   6.329  1.3045  2.5164 -1.8579
18328TIP3    H276476   5.226   3.127   6.201 -0.7502 -1.0671 -0.3553
18329TIP3   OH276477   0.586   6.179   3.883 -0.2485  0.0205  0.1111
18329TIP3    H176478   0.578   6.096   3.931  1.6598 -1.2724 -1.5905
18329TIP3    H276479   0.509   6.181   3.827 -0.4134 -0.5422  0.3077
18330TIP3   OH276480   2.719   1.430  12.923  0.6063 -0.8189  0.1732
18330TIP3    H176481   2.672   1.494  12.977 -1.1886 -0.6878 -1.4391
18330TIP3    H276482   2.744   1.479  12.844  0.7145 -1.6909 -0.3450
18331TIP3   OH276483   1.019   4.777   3.949 -0.1592  0.6135 -0.4977
18331TIP3    H176484   0.981   4.783   3.861  0.9372 -3.2052 -1.4212
18331TIP3    H276485   1.079   4.703   3.944 -1.0550 -0.6903  3.8095
18332TIP3   OH276486   3.784   3.514  12.503 -0.4056  0.3862  0.2708
18332TIP3    H176487   3.780   3.423  12.530  0.4775  0.4584  0.6772
18332TIP3    H276488   3.703   3.528  12.453 -1.3299 -0.1636  1.5698
18333TIP3   OH276489   1.142   2.504   5.842  0.1971 -0.3345  0.1557
18333TIP3    H176490   1.199   2.504   5.919  2.2967  0.9284 -1.2896
18333TIP3    H276491   1.201   2.490   5.768 -1.0998  2.3730 -1.5762
18334TIP3   OH276492   5.408   1.434  15.699  0.4518  0.4454  0.0963
18334TIP3    H176493   5.372   1.519  15.674 -0.2870 -0.3321 -1.6495
18334TIP3    H276494   5.472   1.414  15.630  2.1980  0.5224  1.6350
18335TIP3   OH276495   2.879   0.460   2.427 -0.0362 -0.5725 -0.4037
18335TIP3    H176496   2.817   0.413   2.372  0.0246 -1.0942 -0.0228
18335TIP3    H276497   2.834   0.473   2.510 -0.7609  1.6654 -1.0713
18336TIP3   OH276498   1.921   1.412  16.358 -0.0684  0.3175  0.0102
18336TIP3    H176499   1.936   1.439  16.268 -3.7614  0.9142 -0.5804
18336TIP3    H276500   1.981   1.466  16.410  0.9007  1.2022 -1.9360
18337TIP3   OH276501   6.006   0.753  12.870 -0.4031 -0.2478  0.3374
18337TIP3    H176502   6.096   0.739  12.841 -0.1331 -0.9953  1.4809
18337TIP3    H276503   5.990   0.846  12.852  0.5387 -0.1412 -0.0228
18338TIP3   OH276504   2.081   2.888   6.545 -0.0064 -0.3715  0.3452
18338TIP3    H176505   2.089   2.877   6.450 -0.2965  0.1979  0.2512
18338TIP3    H276506   2.037   2.972   6.555 -2.1373 -1.5001  0.9310
18339TIP3   OH276507   5.888   0.666  12.648  0.5219  0.0210 -0.0170
18339TIP3    H176508   5.905   0.695  12.737  1.6251 -0.3232 -0.0975
18339TIP3    H276509   5.794   0.681  12.635  0.4416  0.5083  1.0305
18340TIP3   OH276510   5.868   2.960   3.627  0.3248 -0.5043  0.0189
18340TIP3    H176511   5.840   2.887   3.573  2.0549  0.0697 -1.7882
18340TIP3    H276512   5.948   2.929   3.671  0.0987 -0.2587  0.6202
18341TIP3   OH276513   3.746   6.813   0.726  0.0813 -0.7886 -0.2455
18341TIP3    H176514   3.729   6.906   0.737 -0.5162 -0.9580  0.3718
18341TIP3    H276515   3.688   6.770   0.790  1.7454 -1.4821  0.8797
18342TIP3   OH276516   5.794   1.436  17.135  0.5808  0.1423 -0.5761
18342TIP3    H176517   5.870   1.463  17.082  0.7481 -0.3682 -0.5975
18342TIP3    H276518   5.832   1.387  17.208  0.3735  1.0466  0.1665
18343TIP3   OH276519   1.642   3.313  10.323 -0.3071 -0.3402 -0.2055
18343TIP3    H176520   1.602   3.245  10.376 -0.5403 -2.3959 -2.8156
18343TIP3    H276521   1.571   3.345  10.267 -0.1132  1.8908  0.7005
18344TIP3   OH276522   3.669   5.822  14.020  0.4912 -0.3106  0.5689
18344TIP3    H176523   3.610   5.846  13.949 -0.0355 -1.9192  0.4250
18344TIP3    H276524   3.648   5.883  14.091 -0.3160  0.0679  0.0174
18345TIP3   OH276525   5.389   5.179  16.672  0.0331  0.0303 -0.0995
18345TIP3    H176526   5.375   5.201  16.764  2.8716  1.2898  0.1336
18345TIP3    H276527   5.371   5.085  16.667 -1.5897  0.2040  1.3688
18346TIP3   OH276528   6.426   3.929  16.068 -0.6173 -0.1214 -0.6937
18346TIP3    H176529   6.368   3.981  16.124  0.1415 -0.5910  0.5590
18346TIP3    H276530   6.434   3.981  15.988 -0.3594  1.4167  0.2828
18347TIP3   OH276531   0.918   0.158   2.543  0.2798 -0.2962  0.0098
18347TIP3    H176532   1.008   0.185   2.527  0.7381 -0.8561  1.4448
18347TIP3    H276533   0.870   0.186   2.465  1.3493  1.5909 -0.0359
18348TIP3   OH276534   0.724   3.398   0.200 -0.2198 -0.2972  0.2024
18348TIP3    H176535   0.789   3.469   0.206  0.0996 -0.4958 -0.8045
18348TIP3    H276536   0.727   3.357   0.287 -1.5268  1.8422  1.3526
18349TIP3   OH276537   5.574   2.042  15.415 -0.5181 -0.0488 -0.6104
18349TIP3    H176538   5.589   2.033  15.509 -0.4538 -0.5988 -0.6734
18349TIP3    H276539   5.538   2.131  15.405  0.5093  0.4309 -0.1990
18350TIP3   OH276540   2.318   3.425   2.475 -0.4081  0.0836  0.5266
18350TIP3    H176541   2.321   3.335   2.440  0.7845  0.2818  0.0531
18350TIP3    H276542   2.255   3.421   2.547  0.7723 -1.5139  1.5441
18351TIP3   OH276543   4.507   6.283  12.605 -0.3790  0.5002 -0.2431
18351TIP3    H176544   4.560   6.348  12.560 -0.7419  2.3624  1.8249
18351TIP3    H276545   4.467   6.231  12.535  2.5812  0.2603 -1.8830
18352TIP3   OH276546   0.362   3.429  13.492 -0.1613 -0.0542  0.3040
18352TIP3    H176547   0.395   3.473  13.570 -0.1327  1.5103 -0.5670
18352TIP3    H276548   0.275   3.466  13.478 -0.0874 -0.1836 -0.5279
18353TIP3   OH276549   5.296   5.011  14.428  0.0023  0.0276  0.8923
18353TIP3    H176550   5.200   5.012  14.437  0.0549 -1.8804  2.2229
18353TIP3    H276551   5.313   5.070  14.355 -1.9568  2.8826  2.5478
18354TIP3   OH276552   5.724   6.701   0.510  0.4409  0.1774  0.5976
18354TIP3    H176553   5.752   6.712   0.601  2.0292  0.4768  0.1108
18354TIP3    H276554   5.693   6.788   0.484 -0.8269 -0.1067  1.0791
18355TIP3   OH276555   3.779   5.798  15.345  0.2464 -0.0008 -0.5658
18355TIP3    H176556   3.818   5.791  15.433 -1.3518 -1.7508  0.0563
18355TIP3    H276557   3.779   5.708  15.312 -1.0685  0.3358 -1.5184
18356TIP3   OH276558   1.944   0.631   0.179  0.0770  0.2326  0.6720
18356TIP3    H176559   1.967   0.715   0.138 -0.8943  0.3449  0.3372
18356TIP3    H276560   2.010   0.620   0.248  2.0812 -0.2247 -1.2026
18357TIP3   OH276561   1.046   3.596   0.793  0.8256  0.5124 -0.0491
18357TIP3    H176562   0.971   3.655   0.787  0.1821 -0.3068 -0.2135
18357TIP3    H276563   1.110   3.644   0.844  0.3635  1.4083 -0.2893
18358TIP3   OH276564   2.688   4.310   4.381 -0.3735  0.6057 -0.3111
18358TIP3    H176565   2.637   4.355   4.315 -0.3415 -1.2721 -1.7151
18358TIP3    H276566   2.701   4.222   4.345 -0.5223 -0.5675  2.2920
18359TIP3   OH276567   4.155   2.832  16.165 -0.3822  0.1857  0.0630
18359TIP3    H176568   4.146   2.901  16.230 -0.6072 -0.2007  0.4502
18359TIP3    H276569   4.078   2.841  16.110 -0.3668  0.2980  0.0589
18360TIP3   OH276570   1.186   2.693  15.914 -0.1493 -0.2719 -0.7782
18360TIP3    H176571   1.261   2.751  15.928 -0.5790  0.3809 -1.1468
18360TIP3    H276572   1.138   2.732  15.841 -1.0811 -0.4466 -0.2758
18361TIP3   OH276573   4.764   0.898   6.318 -0.4217 -0.1000 -0.6526
18361TIP3    H176574   4.698   0.965   6.338  0.3274 -0.0761  1.9937
18361TIP3    H276575   4.723   0.816   6.343  0.7392 -0.0190  1.6961
18362TIP3   OH276576   3.199   6.577  17.088 -0.2430  0.0039  0.4576
18362TIP3    H176577   3.198   6.516  17.014  2.2602 -0.8891  1.0871
18362TIP3    H276578   3.264   6.541  17.148  0.0506  2.3799  1.6627
18363TIP3   OH276579   6.147   0.353  14.539 -0.2671 -0.3321  0.0081
18363TIP3    H176580   6.238   0.355  14.508 -1.1062  0.6450 -2.6019
18363TIP3    H276581   6.125   0.445  14.554 -0.5975 -0.6279  1.5348
18364TIP3   OH276582   1.155   5.821  15.563  0.1921  0.5190 -0.0631
18364TIP3    H176583   1.060   5.831  15.553 -0.3185  0.1605  3.3544
18364TIP3    H276584   1.173   5.847  15.653  3.1179 -0.9820 -0.0976
18365TIP3   OH276585   1.069   5.643   3.052  0.3267  0.3638  0.0946
18365TIP3    H176586   1.013   5.568   3.033  1.4787 -0.3348 -0.7279
18365TIP3    H276587   1.024   5.718   3.013 -0.1583 -0.1389 -0.3143
18366TIP3   OH276588   4.512   6.143  15.519  0.4591 -0.3440  0.0636
18366TIP3    H176589   4.575   6.075  15.545  2.1891  0.7859 -0.9784
18366TIP3    H276590   4.528   6.215  15.580  1.6540  0.7210 -1.4212
18367TIP3   OH276591   6.578   2.552  15.752  0.1495  0.1830  0.5624
18367TIP3    H176592   6.598   2.520  15.840 -3.0786 -0.7916  1.0738
18367TIP3    H276593   6.557   2.644  15.764 -1.5769 -0.2424  1.1360
18368TIP3   OH276594   0.037   4.734   4.866  0.2244 -0.1708 -0.2298
18368TIP3    H176595   0.007   4.787   4.939  0.6895  2.3739 -1.7773
18368TIP3    H276596   0.132   4.727   4.878  0.1849 -0.5626 -0.1157
18369TIP3   OH276597   0.231   5.794   5.144 -0.2281 -0.0891  0.2013
18369TIP3    H176598   0.323   5.781   5.170 -0.5995 -1.7624  0.7621
18369TIP3    H276599   0.235   5.808   5.050  0.5080 -1.6875 -0.0456
18370TIP3   OH276600   3.536   6.436  14.308  0.3502 -0.1094 -0.3428
18370TIP3    H176601   3.561   6.489  14.232 -0.6252 -0.4230 -0.9127
18370TIP3    H276602   3.571   6.349  14.289 -1.1125 -0.5604 -1.1629
18371TIP3   OH276603   6.039   1.768   0.833 -0.4806  0.1230  0.0766
18371TIP3    H176604   6.035   1.843   0.892  0.0248 -0.8292  1.3571
18371TIP3    H276605   6.132   1.758   0.814 -0.4737 -0.5949  0.4691
18372TIP3   OH276606   0.373   4.502   5.046  0.7784 -0.1141  0.3511
18372TIP3    H176607   0.347   4.513   5.138 -0.4758 -0.4149  0.0386
18372TIP3    H276608   0.361   4.589   5.008 -0.6991 -0.4601 -0.0125
18373TIP3   OH276609   1.082   1.870  13.335 -0.2699 -0.1424 -0.4602
18373TIP3    H176610   1.044   1.951  13.369  1.1409 -0.0565  1.0092
18373TIP3    H276611   1.038   1.857  13.251  0.1549  2.6537 -1.2070
18374TIP3   OH276612   2.702   0.150   0.970 -0.0422  0.0767 -0.2675
18374TIP3    H176613   2.711   0.181   1.060  1.2348  0.4306 -0.4931
18374TIP3    H276614   2.781   0.183   0.926 -0.3032 -0.6921 -1.3382
18375TIP3   OH276615   0.922   6.493  15.936  0.0970 -0.5668 -0.7352
18375TIP3    H176616   0.989   6.431  15.965  1.4568 -0.2731 -3.0582
18375TIP3    H276617   0.957   6.530  15.855 -1.0316  2.6578  0.1117
18376TIP3   OH276618   1.485   4.711  15.854  0.0171  0.4229 -0.3220
18376TIP3    H176619   1.521   4.630  15.892 -1.0275  0.5142  0.9701
18376TIP3    H276620   1.553   4.744  15.797  0.6803 -1.0957 -0.4483
18377TIP3   OH276621   6.496   6.293  17.067  0.1563  0.1867  1.0003
18377TIP3    H176622   6.507   6.325  16.978 -0.3339  1.6540  1.4419
18377TIP3    H276623   6.458   6.206  17.057  0.5890  0.1241 -0.2227
18378TIP3   OH276624   5.888   3.168   3.996  0.1426 -0.0052 -0.4105
18378TIP3    H176625   5.939   3.107   4.049 -0.9354  0.8575  1.7738
18378TIP3    H276626   5.910   3.254   4.032 -1.2776  0.5363 -0.7744
18379TIP3   OH276627   3.713   2.509   3.630 -0.9163 -0.7626  0.1416
18379TIP3    H176628   3.797   2.468   3.650 -0.3026 -2.4472 -4.6556
18379TIP3    H276629   3.656   2.437   3.604 -1.2439  0.7565 -4.1976
18380TIP3   OH276630   3.001   5.881  15.534 -0.4486 -0.7668 -0.1282
18380TIP3    H176631   2.966   5.898  15.447  1.8332 -1.2625 -1.1947
18380TIP3    H276632   3.025   5.967  15.568  1.5659 -0.8129 -1.3173
18381TIP3   OH276633   1.619   0.454  11.869 -0.0095  0.4114 -0.1038
18381TIP3    H176634   1.684   0.402  11.916 -1.2048 -0.6972  0.3840
18381TIP3    H276635   1.607   0.407  11.786 -0.0792  0.6919 -0.2510
18382TIP3   OH276636   0.117   6.721   3.302  0.3016 -0.5917 -0.4009
18382TIP3    H176637   0.097   6.803   3.347 -0.5901 -0.2939 -1.3198
18382TIP3    H276638   0.097   6.653   3.366  0.6071 -0.1202  0.2093
18383TIP3   OH276639   4.557   0.423   3.316  0.3790 -0.4309 -0.3693
18383TIP3    H176640   4.633   0.479   3.300  2.4471 -2.5595  1.5273
18383TIP3    H276641   4.524   0.451   3.401 -1.4893  0.9247 -1.4582
18384TIP3   OH276642   2.731   5.811   4.514 -0.1467  0.1436  0.0214
18384TIP3    H176643   2.642   5.790   4.486  0.3924 -1.3340 -0.6208
18384TIP3    H276644   2.780   5.824   4.433  0.1659  1.2801  0.3760
18385TIP3   OH276645   4.091   4.300  13.572  0.9456 -0.2468  0.5013
18385TIP3    H176646   4.104   4.389  13.606 -0.2069  0.3273 -0.4605
18385TIP3    H276647   3.998   4.282  13.588  0.8300 -0.7017 -0.5664
18386TIP3   OH276648   0.065   3.880  10.792  0.7456  0.2313 -0.3889
18386TIP3    H176649   0.084   3.823  10.866  2.5832  0.9679 -0.2601
18386TIP3    H276650  -0.004   3.834  10.743  2.9202 -2.7121 -0.9353
18387TIP3   OH276651   5.236   5.619  11.667 -0.0785  0.1400  0.1132
18387TIP3    H176652   5.243   5.714  11.670 -1.9946  0.2948  0.6325
18387TIP3    H276653   5.145   5.600  11.689  0.1215 -1.7967 -0.5082
18388TIP3   OH276654   3.285   4.499   2.187 -0.3020 -0.3986 -0.3657
18388TIP3    H176655   3.332   4.553   2.125  1.2715  0.2950  1.3476
18388TIP3    H276656   3.208   4.551   2.211  0.8563  0.8893  0.7715
18389TIP3   OH276657   5.454   0.253   5.839  0.4995  0.1110  0.6847
18389TIP3    H176658   5.505   0.303   5.903  0.8037  4.7050 -2.6417
18389TIP3    H276659   5.363   0.272   5.861  0.2928 -2.4378  2.4880
18390TIP3   OH276660   4.964   0.378  12.987 -0.1903  0.0477 -0.2155
18390TIP3    H176661   5.042   0.425  13.018  1.2091 -0.5007 -2.6568
18390TIP3    H276662   4.961   0.396  12.893 -1.6987 -1.8071 -0.5751
18391TIP3   OH276663   0.646   2.022   3.558 -0.5754 -0.2693 -0.0500
18391TIP3    H176664   0.661   1.994   3.648  2.5597 -0.9332 -0.6762
18391TIP3    H276665   0.671   2.114   3.557 -0.1486 -0.3865 -0.3271
18392TIP3   OH276666   0.256   4.872   5.437 -0.4948  0.0149  0.8220
18392TIP3    H176667   0.173   4.829   5.452 -1.4997  1.5886  0.0413
18392TIP3    H276668   0.298   4.820   5.369 -1.6363  0.1858 -0.0416
18393TIP3   OH276669   3.271   5.469   5.894 -0.0062 -0.8758 -0.3617
18393TIP3    H176670   3.255   5.563   5.887  0.6303 -0.7337 -0.0244
18393TIP3    H276671   3.285   5.454   5.987 -1.4288 -1.5414 -0.2334
18394TIP3   OH276672   4.219   6.468   3.738  0.3383  0.2142  0.1706
18394TIP3    H176673   4.183   6.491   3.652  1.7300 -0.3591 -0.5877
18394TIP3    H276674   4.180   6.532   3.797  2.1336  3.0229 -1.4537
18395TIP3   OH276675   5.777   2.749  16.439 -0.4748  0.2436 -0.2390
18395TIP3    H176676   5.793   2.655  16.443  0.7062  0.2667 -2.5714
18395TIP3    H276677   5.786   2.771  16.346  2.9097  3.2196  0.5635
18396TIP3   OH276678   3.297   0.487   2.563 -0.4753 -0.4132  0.4570
18396TIP3    H176679   3.329   0.577   2.570 -1.3664  0.0325 -0.7901
18396TIP3    H276680   3.376   0.433   2.556  0.0464  0.4580 -0.6430
18397TIP3   OH276681   3.623   4.361   1.043  0.3796 -0.0295  0.0579
18397TIP3    H176682   3.626   4.456   1.042 -0.6010  0.0219  0.8002
18397TIP3    H276683   3.546   4.340   1.096 -0.1729 -1.2315 -1.1753
18398TIP3   OH276684   5.876   2.851  11.323  0.5587  0.1858 -0.5024
18398TIP3    H176685   5.965   2.884  11.335  0.5632  0.6577 -1.7392
18398TIP3    H276686   5.862   2.795  11.400  3.1320 -2.5430 -1.7976
18399TIP3   OH276687   5.254   0.417  14.345 -0.0191 -0.1234  0.3898
18399TIP3    H176688   5.200   0.496  14.346  0.3666  0.1455  0.1179
18399TIP3    H276689   5.261   0.392  14.437 -1.1824 -0.5589  0.3697
18400TIP3   OH276690   5.698   3.478  17.143  1.3031  0.4032  0.3941
18400TIP3    H176691   5.691   3.430  17.226  0.7570  0.0993  0.1743
18400TIP3    H276692   5.608   3.486  17.113  1.1852  2.9112  1.1808
18401TIP3   OH276693   4.473   3.208   2.470 -0.7343 -0.3144  0.3642
18401TIP3    H176694   4.428   3.151   2.532 -0.1616  1.4575  2.5356
18401TIP3    H276695   4.405   3.265   2.435 -0.5437  1.2510  2.3812
18402TIP3   OH276696   0.749   1.921  11.673  0.6499 -0.3944 -0.2902
18402TIP3    H176697   0.779   1.922  11.582 -2.2173 -0.6768 -1.3371
18402TIP3    H276698   0.703   1.838  11.682  1.8768 -0.9173  1.8364
18403TIP3   OH276699   4.987   2.414  13.955 -0.2403  0.4119 -0.3119
18403TIP3    H176700   4.998   2.444  13.865 -1.7136 -0.0218 -0.6678
18403TIP3    H276701   4.916   2.469  13.989  0.9365  1.2268  0.9098
18404TIP3   OH276702   0.234   3.816   4.283 -0.0645  0.3839  0.0032
18404TIP3    H176703   0.305   3.822   4.219 -0.6970  2.4057 -0.5711
18404TIP3    H276704   0.201   3.727   4.272  1.2615 -0.0355 -0.9164
18405TIP3   OH276705   6.311   2.641  14.770  0.0140  0.1728 -0.2232
18405TIP3    H176706   6.237   2.659  14.712 -0.5241 -0.7781  0.1514
18405TIP3    H276707   6.293   2.693  14.848  0.1775  0.5966 -0.4646
18406TIP3   OH276708   2.975   6.749  14.810 -0.6001 -0.4989 -0.3308
18406TIP3    H176709   3.014   6.666  14.780  1.1635  0.1680 -0.0058
18406TIP3    H276710   2.881   6.735  14.801 -0.4017 -2.7954  0.3683
18407TIP3   OH276711   1.491   3.099   6.042  0.3786  0.3697  0.2746
18407TIP3    H176712   1.521   3.098   6.133  1.1350 -1.3115  0.0364
18407TIP3    H276713   1.397   3.113   6.047  0.3772 -0.0112  1.3261
18408TIP3   OH276714   0.925   1.029   5.482 -0.0953  0.2988  0.3707
18408TIP3    H176715   0.888   0.979   5.555 -0.0545  0.8686  0.7902
18408TIP3    H276716   0.878   0.998   5.405  0.5826 -1.0696  0.4694
18409TIP3   OH276717   4.864   2.433  12.232  0.1552 -0.3533  0.4858
18409TIP3    H176718   4.819   2.441  12.316 -1.4910 -0.1293 -0.3869
18409TIP3    H276719   4.883   2.523  12.205  0.5223 -0.4160  0.5278
18410TIP3   OH276720   4.303   3.041   4.123  0.3360 -0.0497  0.7207
18410TIP3    H176721   4.319   3.110   4.188  0.3675  2.9992 -2.1915
18410TIP3    H276722   4.208   3.043   4.110  0.3237 -0.6750  0.7268
18411TIP3   OH276723   5.172   4.965   0.673  0.1635 -0.1765 -0.0380
18411TIP3    H176724   5.128   4.999   0.751  1.5023 -0.3870  0.8433
18411TIP3    H276725   5.128   4.883   0.654 -2.9749  1.7708 -2.0681
18412TIP3   OH276726   3.260   3.359   3.692  0.4133 -0.0537  0.0157
18412TIP3    H176727   3.291   3.444   3.723  1.0913 -0.6403  1.0119
18412TIP3    H276728   3.170   3.354   3.724  1.3139 -0.9525  2.7200
18413TIP3   OH276729   0.716   4.771   1.703  0.1342 -0.3231 -0.0243
18413TIP3    H176730   0.659   4.774   1.626  1.3453 -0.1019 -0.9320
18413TIP3    H276731   0.764   4.689   1.694  1.3553  0.4031 -0.3057
18414TIP3   OH276732   3.989   4.631   2.357 -0.4580 -0.1481 -0.6768
18414TIP3    H176733   4.048   4.666   2.423 -1.1939 -1.1955  0.6015
18414TIP3    H276734   4.045   4.611   2.282  0.6061 -0.0550  0.0734
18415TIP3   OH276735   3.635   2.518  12.824  0.0839  0.2219 -0.4222
18415TIP3    H176736   3.693   2.455  12.866  0.6175  0.9321 -0.0737
18415TIP3    H276737   3.548   2.497  12.859  0.6253  1.3713  1.8171
18416TIP3   OH276738   3.086   5.584  14.862 -0.2206 -0.0301 -0.1967
18416TIP3    H176739   3.084   5.654  14.927 -1.2302  2.5499 -2.8212
18416TIP3    H276740   3.179   5.561  14.855 -0.0008  0.2244  1.4974
18417TIP3   OH276741   1.637   4.034  13.710 -0.7970  0.5126  1.1691
18417TIP3    H176742   1.664   4.086  13.634  0.6404 -0.7571  0.7644
18417TIP3    H276743   1.548   4.064  13.729 -0.0304  3.1917  1.0363
18418TIP3   OH276744   1.796   3.194   2.627  0.3353  0.3112 -0.2091
18418TIP3    H176745   1.794   3.203   2.531  1.4913 -1.8786 -0.5052
18418TIP3    H276746   1.725   3.250   2.657  0.3335  1.5633 -2.2883
18419TIP3   OH276747   5.998   5.005   5.549  0.0594  0.2911  0.1416
18419TIP3    H176748   6.062   4.956   5.498 -1.0944 -0.6093 -0.4880
18419TIP3    H276749   6.049   5.043   5.621  1.2983 -0.3436 -0.3647
18420TIP3   OH276750   3.263   4.398   6.211  0.2089 -0.2031 -0.3071
18420TIP3    H176751   3.284   4.439   6.295  2.5967  0.3711 -1.0849
18420TIP3    H276752   3.259   4.305   6.230  1.0466 -0.1069  0.4148
18421TIP3   OH276753   3.923   6.207  15.332  0.6077  0.0984  0.1205
18421TIP3    H176754   3.994   6.145  15.350 -0.3358 -1.0769 -0.0571
18421TIP3    H276755   3.866   6.200  15.409  0.2468  0.3804 -0.1221
18422TIP3   OH276756   1.749   4.212  16.531 -0.3581 -0.2141 -0.3254
18422TIP3    H176757   1.736   4.170  16.446  1.0580  0.4877 -0.9364
18422TIP3    H276758   1.782   4.143  16.588 -2.6517 -1.0228  0.0961
18423TIP3   OH276759   6.574   6.261  14.849  0.5086 -0.1308  0.4560
18423TIP3    H176760   6.582   6.171  14.817  1.3602 -0.6673  2.0558
18423TIP3    H276761   6.658   6.302  14.826 -0.0266  0.4068 -0.6218
18424TIP3   OH276762   2.762   1.415   0.513 -0.6003 -0.1586 -0.3355
18424TIP3    H176763   2.845   1.375   0.489 -0.8911 -0.0904 -1.5104
18424TIP3    H276764   2.718   1.350   0.567 -0.3231 -0.7160 -0.7707
18425TIP3   OH276765   0.448   6.821   1.307 -0.0821  0.1834  0.1787
18425TIP3    H176766   0.385   6.819   1.235 -0.4431  1.3004  0.4433
18425TIP3    H276767   0.484   6.732   1.310 -0.6702 -0.1044 -0.8321
18426TIP3   OH276768   4.407   4.516  11.872 -0.0201 -0.7266  0.0033
18426TIP3    H176769   4.451   4.440  11.910  0.4382  0.0847  1.1738
18426TIP3    H276770   4.344   4.543  11.938 -0.2435 -0.1412 -0.4349
18427TIP3   OH276771   5.685   3.113  17.040  0.1612 -0.7758  0.0896
18427TIP3    H176772   5.690   3.036  16.983 -2.2690 -0.8402 -0.1270
18427TIP3    H276773   5.658   3.184  16.982  0.2581 -0.2280  0.7012
18428TIP3   OH276774   6.640   5.026  14.668  0.6781  0.0092  0.0712
18428TIP3    H176775   6.669   5.089  14.602  0.7055 -0.5347 -0.4430
18428TIP3    H276776   6.707   5.030  14.736  1.3753 -0.3973 -0.5670
18429TIP3   OH276777   2.751   3.690   4.051 -0.2640 -0.2544 -0.3039
18429TIP3    H176778   2.743   3.737   4.134 -2.0011 -0.4748 -0.3065
18429TIP3    H276779   2.771   3.600   4.077  0.6365 -0.0402 -0.2075
18430TIP3   OH276780   0.737   1.429   0.256  0.0320  0.2006 -0.5727
18430TIP3    H176781   0.762   1.380   0.177  1.2222 -1.4220  0.7408
18430TIP3    H276782   0.795   1.506   0.255  1.3063 -0.7257 -0.3945
18431TIP3   OH276783   3.749   2.989   0.135 -0.2721  0.3631 -0.0510
18431TIP3    H176784   3.671   2.934   0.135 -0.9924  1.3632  0.3400
18431TIP3    H276785   3.822   2.928   0.150 -1.2237 -0.2311  2.5169
18432TIP3   OH276786   6.220   6.201  12.966 -0.4028  0.2085 -0.1025
18432TIP3    H176787   6.266   6.285  12.970  0.7909 -0.4482  0.9141
18432TIP3    H276788   6.140   6.214  13.016  0.6956  0.2382  1.7372
18433TIP3   OH276789   1.502   0.392  15.482 -0.0735 -0.6063 -0.1517
18433TIP3    H176790   1.472   0.481  15.502  3.6770  0.9677 -0.7247
18433TIP3    H276791   1.523   0.354  15.567 -0.7953 -0.6449  0.0216
18434TIP3   OH276792   1.052   1.927  14.276 -0.0368  0.0751 -0.3249
18434TIP3    H176793   1.034   1.837  14.250 -1.4399 -0.1669  1.2947
18434TIP3    H276794   1.130   1.921  14.331 -1.6176 -0.5999  1.9598
18435TIP3   OH276795   4.223   4.682   0.731 -0.0558 -0.5623  0.7071
18435TIP3    H176796   4.278   4.760   0.733 -0.3062 -0.2625 -1.4373
18435TIP3    H276797   4.271   4.620   0.675 -1.4662 -0.6093 -0.5050
18436TIP3   OH276798   1.130   5.964  13.110 -1.0029  0.0688 -0.2513
18436TIP3    H176799   1.117   6.059  13.111 -1.0704  0.0589 -0.1410
18436TIP3    H276800   1.050   5.929  13.150 -0.3244  0.0384  1.1139
18437TIP3   OH276801   4.984   2.806   3.190  0.1775  0.4434 -0.2582
18437TIP3    H176802   5.029   2.881   3.150 -0.3516  0.5595 -0.6469
18437TIP3    H276803   4.964   2.749   3.116 -2.2148  1.3829 -0.4198
18438TIP3   OH276804   4.923   0.461   4.716  0.3762 -0.0392  0.0369
18438TIP3    H176805   4.986   0.533   4.717  0.8055 -0.4074  0.0655
18438TIP3    H276806   4.951   0.404   4.788 -0.2509  0.0125  0.3285
18439TIP3   OH276807   1.083   3.729   0.527 -0.1772 -0.5885  0.4285
18439TIP3    H176808   1.145   3.700   0.459  0.5747  1.8693 -0.0462
18439TIP3    H276809   1.126   3.707   0.609  2.0125  2.0817  0.1327
18440TIP3   OH276810   1.053   2.632   3.425  0.0110  0.2680  0.1728
18440TIP3    H176811   1.096   2.632   3.340  0.7020 -0.1283  0.5081
18440TIP3    H276812   0.963   2.656   3.407 -0.0628 -0.6424 -0.7895
18441TIP3   OH276813   0.846   3.805   2.609 -0.1132 -0.6270  0.5282
18441TIP3    H176814   0.754   3.779   2.609 -0.3567  0.2140  0.3461
18441TIP3    H276815   0.854   3.867   2.682  0.2249 -0.3992  0.3001
18442TIP3   OH276816   3.200   6.235  14.629  0.1107 -0.6668 -0.0746
18442TIP3    H176817   3.238   6.314  14.665 -1.4049  0.5279 -0.9839
18442TIP3    H276818   3.230   6.233  14.538 -0.1750 -0.9252 -0.1668
18443TIP3   OH276819   6.380   2.074   2.396 -0.1575  0.1066  0.8893
18443TIP3    H176820   6.357   2.156   2.441 -1.1190  1.4867 -1.8582
18443TIP3    H276821   6.476   2.072   2.398  0.0142  2.4835 -0.7615
18444TIP3   OH276822   5.211   2.975  14.732 -0.1646 -0.2290  0.7512
18444TIP3    H176823   5.215   2.880  14.731  2.6728 -0.2846 -2.3878
18444TIP3    H276824   5.267   3.002  14.805 -0.6428 -0.9388  1.3881
18445TIP3   OH276825   2.754   4.475  11.395 -0.1075 -0.6414  0.0697
18445TIP3    H176826   2.840   4.519  11.391  0.0758 -0.8132  1.4531
18445TIP3    H276827   2.721   4.496  11.483 -2.3401  0.9448 -1.0547
18446TIP3   OH276828   3.134   0.352  15.137  0.2090 -0.5118 -0.4540
18446TIP3    H176829   3.103   0.438  15.108  0.4713 -0.5928 -0.9951
18446TIP3    H276830   3.226   0.364  15.156  0.1026 -0.5289  0.0842
18447TIP3   OH276831   1.034   0.648   6.386 -0.4705 -0.0663  0.2644
18447TIP3    H176832   1.050   0.706   6.460  0.4617  0.8555 -0.6355
18447TIP3    H276833   0.946   0.612   6.403 -0.2576  0.0747  1.8225
18448TIP3   OH276834   2.621   0.650   2.788 -0.3057 -0.4305  0.2016
18448TIP3    H176835   2.579   0.570   2.758  0.6761 -0.9784  0.2472
18448TIP3    H276836   2.702   0.655   2.736  0.6190 -0.5240  1.5788
18449TIP3   OH276837   4.157   2.807  14.126  0.1545 -0.1750 -0.0903
18449TIP3    H176838   4.074   2.831  14.167  0.0322 -1.8334  0.7315
18449TIP3    H276839   4.221   2.866  14.165 -0.7047  1.5787 -1.2320
18450TIP3   OH276840   1.122   6.302   2.858 -0.4585  0.2233  0.3824
18450TIP3    H176841   1.126   6.209   2.836 -1.0089 -0.0689  1.4593
18450TIP3    H276842   1.056   6.337   2.798 -1.1098 -0.3256  0.7613
18451TIP3   OH276843   6.782   0.276  14.826  0.2793  0.2201 -0.8010
18451TIP3    H176844   6.799   0.308  14.737  0.4219 -2.7085 -1.9230
18451TIP3    H276845   6.726   0.200  14.814 -2.3598  1.5223  1.9172
18452TIP3   OH276846   3.377   2.220   6.521 -0.3755  0.0896  0.6089
18452TIP3    H176847   3.446   2.186   6.578  0.7190  2.6464  0.9458
18452TIP3    H276848   3.304   2.238   6.581  0.6985  2.5749  1.2970
18453TIP3   OH276849   1.978   6.187  13.712  0.6114  0.4721  0.4057
18453TIP3    H176850   1.910   6.253  13.699 -0.5883 -0.3939  1.9366
18453TIP3    H276851   1.946   6.110  13.665  1.3426  0.5306 -0.2198
18454TIP3   OH276852   1.054   6.019  13.432 -0.2533  0.4775  0.6950
18454TIP3    H176853   1.119   6.073  13.477  2.7948 -0.0962 -2.6112
18454TIP3    H276854   1.095   5.933  13.425 -1.6353 -0.1021 -0.9549
18455TIP3   OH276855   4.654   3.644   1.873 -0.1349 -0.0099 -0.1100
18455TIP3    H176856   4.710   3.719   1.893 -0.7029  0.8146 -1.4884
18455TIP3    H276857   4.653   3.593   1.954 -0.0214  1.6469  0.9921
18456TIP3   OH276858   2.936   4.616  14.384  0.4577  0.2628 -0.6754
18456TIP3    H176859   2.959   4.674  14.457 -1.7610  0.3616 -0.0001
18456TIP3    H276860   2.987   4.537  14.401  1.7732  1.1287 -0.3510
18457TIP3   OH276861   5.040   3.989  15.881  0.2071 -0.1390 -0.2874
18457TIP3    H176862   4.979   4.033  15.821  0.2357  3.3171  1.9350
18457TIP3    H276863   5.127   4.009  15.846  0.2004 -0.9888 -0.8339
18458TIP3   OH276864   2.142   0.611   3.833  0.3042 -0.1659 -0.3626
18458TIP3    H176865   2.223   0.640   3.790  0.5524  0.4067  0.4648
18458TIP3    H276866   2.170   0.583   3.920 -0.5285  1.1519  0.3712
18459TIP3   OH276867   1.191   0.992   6.352  0.0420  0.1671 -0.0812
18459TIP3    H176868   1.219   1.057   6.288 -0.5116  0.2521 -0.2489
18459TIP3    H276869   1.207   0.908   6.309 -1.2473  0.2363 -0.7589
18460TIP3   OH276870   0.577   2.935   2.933  0.2014  0.2168  0.1071
18460TIP3    H176871   0.483   2.948   2.920  0.4087  1.4698 -0.2090
18460TIP3    H276872   0.586   2.840   2.945 -1.4209  0.2981  2.7849
18461TIP3   OH276873   4.591   2.095   1.943 -0.0411  0.4743 -0.1128
18461TIP3    H176874   4.658   2.143   1.992  1.8414 -3.9147  2.1899
18461TIP3    H276875   4.519   2.084   2.005  0.0689 -0.6130 -0.1604
18462TIP3   OH276876   5.048   5.146  17.145  0.0040  0.6010 -0.3589
18462TIP3    H176877   5.018   5.066  17.103 -1.6677 -0.0111  1.8148
18462TIP3    H276878   5.115   5.117  17.207  1.3092  1.2852 -1.3834
18463TIP3   OH276879   4.599   2.037  11.733 -0.3932 -0.4444  0.5831
18463TIP3    H176880   4.589   2.097  11.660 -1.1681 -2.1279 -0.7596
18463TIP3    H276881   4.556   1.956  11.704 -0.2506 -1.3385  2.6906
18464TIP3   OH276882   4.189   1.726  13.735 -0.2416  0.3380  0.1740
18464TIP3    H176883   4.192   1.631  13.726 -0.3032  0.3280  0.2594
18464TIP3    H276884   4.208   1.742  13.827 -0.7277  0.3831  0.2685
18465TIP3   OH276885   3.269   2.481  11.156 -0.2530 -0.0633  0.3359
18465TIP3    H176886   3.248   2.471  11.063 -0.6566 -1.0790  0.5280
18465TIP3    H276887   3.280   2.575  11.168 -0.3722  0.0904 -0.7059
18466TIP3   OH276888   3.821   5.015   3.178 -0.1198 -0.5740 -0.0915
18466TIP3    H176889   3.742   4.987   3.224 -0.7818  1.3542  0.0358
18466TIP3    H276890   3.801   5.002   3.086  0.4286 -2.5038  0.0207
18467TIP3   OH276891   6.473   2.224   0.385  0.2351 -1.0664 -0.6057
18467TIP3    H176892   6.561   2.222   0.348  0.7011  1.6747  0.1486
18467TIP3    H276893   6.417   2.191   0.315  1.7778 -2.7358 -1.1523
18468TIP3   OH276894   4.786   4.295  15.477 -0.2954  0.1850  0.1830
18468TIP3    H176895   4.755   4.280  15.566 -0.8437  2.7698  0.5013
18468TIP3    H276896   4.841   4.373  15.483  0.1096  0.0828 -1.6597
18469TIP3   OH276897   1.046   5.699  10.517 -0.6946  0.2275 -0.3883
18469TIP3    H176898   0.978   5.672  10.579 -1.3520  0.8225 -0.8246
18469TIP3    H276899   1.114   5.739  10.572 -1.6404  1.4976 -0.1030
18470TIP3   OH276900   2.916   2.310   3.701 -0.1671 -0.2947 -0.4319
18470TIP3    H176901   2.977   2.283   3.769  0.5209 -0.1677 -0.9856
18470TIP3    H276902   2.929   2.247   3.630 -0.4794 -0.0947 -0.6713
18471TIP3   OH276903   0.237   4.957  14.451 -0.4909 -0.2073  0.0516
18471TIP3    H176904   0.157   4.985  14.408 -1.4829  1.6139  2.8226
18471TIP3    H276905   0.208   4.908  14.528  1.0287  0.3008  0.9972
18472TIP3   OH276906   2.510   1.778   1.111  0.1814  0.0523 -0.1473
18472TIP3    H176907   2.427   1.733   1.095  0.1183  0.2944 -0.5113
18472TIP3    H276908   2.507   1.802   1.204  0.4066 -1.0792  0.1605
18473TIP3   OH276909   4.640   2.542  11.557  0.3659 -0.5357 -0.2982
18473TIP3    H176910   4.570   2.604  11.575 -0.1651 -1.2218  0.0294
18473TIP3    H276911   4.718   2.582  11.595  0.0906  0.0821 -0.3798
18474TIP3   OH276912   2.602   4.238   4.624 -0.0635 -0.0192  0.2819
18474TIP3    H176913   2.554   4.309   4.667  0.3932 -0.2023  1.0988
18474TIP3    H276914   2.612   4.268   4.534  0.0350  0.9084  0.5923
18475TIP3   OH276915   4.170   5.066  16.716 -0.3981  0.3409  0.4036
18475TIP3    H176916   4.105   5.095  16.652  0.8520  0.0792 -1.0296
18475TIP3    H276917   4.161   5.127  16.789 -1.9481  0.5604  0.0614
18476TIP3   OH276918   4.771   1.110   3.767  0.6518 -0.5159 -0.1785
18476TIP3    H176919   4.801   1.093   3.856  1.1079  0.9924 -0.0083
18476TIP3    H276920   4.848   1.149   3.724 -0.4647  1.7683 -0.2574
18477TIP3   OH276921   1.137   4.851  13.045  0.6567 -0.0216 -0.3402
18477TIP3    H176922   1.092   4.924  13.088  0.6904  0.5170 -1.1876
18477TIP3    H276923   1.193   4.814  13.112  1.5289  1.4923 -0.2035
18478TIP3   OH276924   1.007   3.001   2.523  0.0653  0.4550  0.6615
18478TIP3    H176925   1.083   3.052   2.552 -0.2199  1.0667  0.3445
18478TIP3    H276926   0.998   3.022   2.430 -0.8831  0.8907  0.8379
18479TIP3   OH276927   2.978   1.005  12.456 -0.2655 -1.1897  0.1728
18479TIP3    H176928   2.983   1.092  12.416 -1.2729 -0.6738  1.1240
18479TIP3    H276929   3.053   1.001  12.515  0.0442 -1.1513 -0.2128
18480TIP3   OH276930   6.082   0.884  13.190 -0.1873  0.5316 -0.4465
18480TIP3    H176931   6.139   0.821  13.144 -0.0566  1.1146 -1.1042
18480TIP3    H276932   6.019   0.829  13.236 -0.2026 -0.0927 -1.1767
18481TIP3   OH276933   6.743   2.623   5.470 -0.0873  0.0277  0.2142
18481TIP3    H176934   6.816   2.619   5.532  0.1458  1.5724  0.0769
18481TIP3    H276935   6.740   2.536   5.431  0.9458 -0.4071  1.0621
18482TIP3   OH276936   6.411   4.667  15.572 -0.1213 -0.0509  0.2350
18482TIP3    H176937   6.331   4.665  15.520  0.8675 -0.4745 -1.3191
18482TIP3    H276938   6.455   4.584  15.553  0.5230  0.0096  1.3480
18483TIP3   OH276939   1.198   0.593  11.789  0.1276  0.3881  0.3860
18483TIP3    H176940   1.112   0.586  11.748 -1.5328 -0.2330  3.6459
18483TIP3    H276941   1.206   0.686  11.811 -1.3094  0.0254  2.9047
18484TIP3   OH276942   3.821   4.864  12.834 -0.1042  0.1063  0.2730
18484TIP3    H176943   3.771   4.789  12.866  0.7092 -0.5291  0.1172
18484TIP3    H276944   3.861   4.902  12.912 -0.4264  0.3037  0.3397
18485TIP3   OH276945   6.337   0.118  13.409 -0.5686 -0.5219  0.2770
18485TIP3    H176946   6.260   0.174  13.401 -1.9620 -2.2015  1.1375
18485TIP3    H276947   6.411   0.174  13.387 -1.9127  1.5272  0.7649
18486TIP3   OH276948   0.554   1.713   5.755 -0.7280  0.8834 -0.2060
18486TIP3    H176949   0.532   1.790   5.702  0.8640  1.8962  0.5227
18486TIP3    H276950   0.647   1.725   5.777 -0.6786 -0.8145  0.6589
18487TIP3   OH276951   6.538   3.855   3.483  0.0700  0.0580  0.5987
18487TIP3    H176952   6.514   3.942   3.451  1.7345  0.2813 -0.1188
18487TIP3    H276953   6.607   3.872   3.548  1.9730 -0.7858 -1.0899
18488TIP3   OH276954   1.200   1.274   3.181 -0.0590  0.2471 -0.1060
18488TIP3    H176955   1.210   1.294   3.088  0.4291 -1.8051 -0.5551
18488TIP3    H276956   1.126   1.327   3.209  1.1658  2.6323 -1.0660
18489TIP3   OH276957   1.707   6.191  14.417 -0.5734 -0.0222  0.1854
18489TIP3    H176958   1.703   6.171  14.323  1.9108 -0.1759  0.0418
18489TIP3    H276959   1.714   6.106  14.460 -0.2285  0.1042  0.3848
18490TIP3   OH276960   3.952   6.332  12.977 -0.6467 -0.0585 -0.2236
18490TIP3    H176961   3.979   6.393  12.909  0.6704 -0.1480  0.1842
18490TIP3    H276962   3.857   6.333  12.973 -0.6747  1.8145 -0.4213
18491TIP3   OH276963   0.480   2.441   3.126  0.3140  0.6348 -0.2505
18491TIP3    H176964   0.517   2.390   3.198  2.9210  1.8271 -0.6381
18491TIP3    H276965   0.456   2.524   3.166 -1.1223  0.2275 -0.2112
18492TIP3   OH276966   2.449   0.092  14.231 -0.3810 -0.1532  0.5265
18492TIP3    H176967   2.533   0.058  14.199 -0.7201  0.6137 -1.3058
18492TIP3    H276968   2.427   0.035  14.304  0.9697 -1.3842  0.0265
18493TIP3   OH276969   4.564   6.603  15.748 -0.2356 -0.0161  0.2354
18493TIP3    H176970   4.649   6.646  15.737  1.8124 -3.8374 -0.2808
18493TIP3    H276971   4.543   6.616  15.840 -0.6262  3.3184 -0.1788
18494TIP3   OH276972   2.457   3.443   1.355 -0.2804 -0.2417 -0.4264
18494TIP3    H176973   2.393   3.375   1.334 -0.0286 -0.1579 -1.4902
18494TIP3    H276974   2.488   3.474   1.270 -0.8762  1.6747  0.0142
18495TIP3   OH276975   6.215   0.129  11.342 -0.3534  0.3246  0.3150
18495TIP3    H176976   6.151   0.061  11.325 -0.5835  0.5033  0.4545
18495TIP3    H276977   6.214   0.183  11.263 -2.5867  2.0916  1.4127
18496TIP3   OH276978   3.846   5.097   6.718  0.0523 -0.6610  0.0341
18496TIP3    H176979   3.821   5.163   6.783 -0.8790 -0.2522 -0.7100
18496TIP3    H276980   3.904   5.144   6.657  0.4809 -0.8990  0.2512
18497TIP3   OH276981   1.677   0.536   3.741 -0.5128  0.1496  0.4302
18497TIP3    H176982   1.751   0.587   3.772 -0.9546  0.7545  0.4928
18497TIP3    H276983   1.703   0.509   3.652  0.4556 -1.0126  1.0253
18498TIP3   OH276984   3.421   3.291   1.707  0.4424  0.0892  0.6508
18498TIP3    H176985   3.480   3.229   1.750 -0.9086 -0.7195  1.3769
18498TIP3    H276986   3.428   3.270   1.614  0.3633 -0.8426  0.8475
18499TIP3   OH276987   5.554   1.232  14.868 -0.3984  0.2310 -0.8074
18499TIP3    H176988   5.626   1.171  14.885  1.4144  2.7338  1.4416
18499TIP3    H276989   5.536   1.223  14.774  2.5614 -0.8443 -1.3776
18500TIP3   OH276990   0.701   6.020   3.362  0.7303 -0.2461  0.0641
18500TIP3    H176991   0.709   6.106   3.321  1.2363  0.3240  1.2894
18500TIP3    H276992   0.786   5.979   3.351  1.0903  0.1847  1.0795
18501TIP3   OH276993   5.747   4.195  15.893 -0.0383  1.1253 -0.1746
18501TIP3    H176994   5.656   4.172  15.874  0.4513 -0.1564 -1.1307
18501TIP3    H276995   5.775   4.128  15.955  1.0813 -0.3096 -2.1260
18502TIP3   OH276996   5.068   5.333  15.083 -0.5482  0.4964  0.0641
18502TIP3    H176997   5.034   5.249  15.115 -0.6193  0.5441  0.1129
18502TIP3    H276998   5.050   5.395  15.154 -1.3165  0.7473 -0.3402
18503TIP3   OH276999   1.558   5.848  12.753  0.4003 -0.1071  0.1100
18503TIP3    H177000   1.497   5.920  12.736 -0.1990 -0.0317  2.2688
18503TIP3    H277001   1.502   5.772  12.769  0.8478 -0.2203  1.3185
18504TIP3   OH277002   1.771   4.604   4.864 -0.3136 -0.1561 -0.6940
18504TIP3    H177003   1.735   4.515   4.866  0.5684 -0.5310 -0.7681
18504TIP3    H277004   1.804   4.618   4.953 -1.7302  0.6609 -0.2741
18505TIP3   OH277005   1.657   3.258  11.004  0.8195  0.1329  1.1137
18505TIP3    H177006   1.630   3.303  10.924 -0.2142 -1.9691  0.1902
18505TIP3    H277007   1.587   3.277  11.067  0.2624 -0.3408  0.6514
18506TIP3   OH277008   3.556   4.691   3.896  0.2317 -0.2806 -0.1624
18506TIP3    H177009   3.511   4.706   3.813 -0.6990 -0.3144  0.3154
18506TIP3    H277010   3.643   4.662   3.872  0.4557  1.1071 -1.1220
18507TIP3   OH277011   1.497   4.292   0.482  0.1577 -0.1550  0.5896
18507TIP3    H177012   1.487   4.264   0.391  1.9175  0.5813  0.1193
18507TIP3    H277013   1.546   4.221   0.524 -0.0373 -0.1769  0.7806
18508TIP3   OH277014   0.160   5.213  14.644  0.0845 -0.0399  0.2845
18508TIP3    H177015   0.184   5.125  14.615 -1.4695 -0.6494  0.7534
18508TIP3    H277016   0.239   5.248  14.684  0.9862 -0.8702 -0.7157
18509TIP3   OH277017   3.487   5.631   1.113 -0.4042 -0.4805  0.4408
18509TIP3    H177018   3.577   5.648   1.087 -0.9201 -0.1208 -1.2233
18509TIP3    H277019   3.435   5.647   1.034 -2.0704  0.4974  1.6498
18510TIP3   OH277020   5.506   6.719  15.150 -0.3963 -0.1335 -0.2314
18510TIP3    H177021   5.457   6.800  15.158  0.8292  0.4633  4.0738
18510TIP3    H277022   5.577   6.739  15.089 -2.0123  0.8394 -1.8911
18511TIP3   OH277023   1.271   2.419   1.574  0.3704  0.9320  0.0793
18511TIP3    H177024   1.208   2.491   1.576  0.6646  1.1845  1.5110
18511TIP3    H277025   1.217   2.340   1.573  0.0460  1.1515 -1.3667
18512TIP3   OH277026   0.897   4.861  11.675 -0.1528 -0.0629  0.0328
18512TIP3    H177027   0.825   4.924  11.677 -0.6950 -0.6771  0.6770
18512TIP3    H277028   0.965   4.899  11.730  0.7675  1.3486 -1.9703
18513TIP3   OH277029   5.642   1.943  13.608 -0.2923 -0.0902  0.1079
18513TIP3    H177030   5.735   1.956  13.629 -0.6066  1.4151  0.7162
18513TIP3    H277031   5.633   1.976  13.519 -0.5271  1.2856  0.6184
18514TIP3   OH277032   2.068   2.924   3.970  0.7639 -0.2772 -0.0100
18514TIP3    H177033   2.028   2.844   3.936  2.0753 -1.0349  0.1422
18514TIP3    H277034   2.078   2.908   4.064 -1.6420  1.2815  0.5902
18515TIP3   OH277035   3.105   3.963  12.851  0.6101 -0.1260 -0.1881
18515TIP3    H177036   3.098   4.059  12.852 -0.8463 -0.2138  0.5376
18515TIP3    H277037   3.137   3.941  12.938 -1.3668 -0.3938  0.5363
18516TIP3   OH277038   3.597   0.694  15.998 -0.5161 -0.4786 -0.1999
18516TIP3    H177039   3.555   0.651  16.072 -0.8697  0.4930  0.1783
18516TIP3    H277040   3.655   0.628  15.962 -0.5717 -1.0706  0.7594
18517TIP3   OH277041   4.844   2.901  14.640  0.1689 -0.2143  0.1273
18517TIP3    H177042   4.848   2.920  14.734 -1.7771 -0.5713  0.3218
18517TIP3    H277043   4.802   2.977  14.601 -0.6459 -0.8092 -0.1855
18518TIP3   OH277044   2.519   3.427   2.092  0.4699  0.1439  0.3974
18518TIP3    H177045   2.476   3.482   2.158  1.0421 -1.2784  2.0052
18518TIP3    H277046   2.604   3.468   2.079 -0.4321  1.6785 -1.1415
18519TIP3   OH277047   3.013   6.193   3.066  0.7129  0.1222 -0.3304
18519TIP3    H177048   2.995   6.108   3.106 -0.4433  0.4339 -0.1646
18519TIP3    H277049   2.930   6.220   3.028  1.2573  0.8445 -1.0380
18520TIP3   OH277050   6.077   3.337  16.429  0.2146  0.0033  0.1570
18520TIP3    H177051   6.069   3.262  16.488  0.0106  1.8643  2.6399
18520TIP3    H277052   6.160   3.321  16.382  2.0753 -0.1084  3.2081
18521TIP3   OH277053   0.385   0.064   1.683 -0.6219  1.0392 -0.1448
18521TIP3    H177054   0.479   0.053   1.667 -0.3131 -0.7966  2.2989
18521TIP3    H277055   0.346   0.068   1.596  1.6336  1.0174 -1.2246
18522TIP3   OH277056   4.944   1.005  16.290 -0.8161  0.0445  0.0709
18522TIP3    H177057   4.940   1.101  16.281 -2.0893 -0.1244 -1.7349
18522TIP3    H277058   4.891   0.987  16.368 -0.5369  0.8134  0.4543
18523TIP3   OH277059   5.756   1.950  12.567  0.4726  0.3666 -0.2733
18523TIP3    H177060   5.683   1.917  12.515  0.7765  0.6050 -0.8580
18523TIP3    H277061   5.763   1.888  12.640 -0.1088  0.1653 -0.3773
18524TIP3   OH277062   5.453   6.178   1.651 -0.0107  0.2751  0.7796
18524TIP3    H177063   5.536   6.139   1.680 -1.2427 -0.8974  2.9669
18524TIP3    H277064   5.470   6.272   1.652  1.6358  0.0351 -0.0263
18525TIP3   OH277065   1.082   1.203  16.469  0.5295 -0.5583 -0.6716
18525TIP3    H177066   1.007   1.162  16.513  1.1560  0.1185  1.1113
18525TIP3    H277067   1.052   1.292  16.450  1.6012  0.5694  2.3272
18526TIP3   OH277068   1.486   3.289  13.307  0.8317  0.2542  0.1863
18526TIP3    H177069   1.529   3.355  13.253  0.3579  0.1879 -0.2680
18526TIP3    H277070   1.433   3.237  13.246  1.4189 -0.7352  0.4811
18527TIP3   OH277071   4.212   6.648  16.230 -0.7442 -0.5270 -0.6950
18527TIP3    H177072   4.191   6.559  16.203  0.5553 -0.7029 -1.2200
18527TIP3    H277073   4.242   6.691  16.150  2.4046 -0.8125  0.1731
18528TIP3   OH277074   2.834   5.928  15.030  0.1237  0.2748 -0.1087
18528TIP3    H177075   2.891   5.916  14.954 -1.1513  1.0485 -1.2307
18528TIP3    H277076   2.756   5.971  14.995 -1.3622 -1.1461  1.2765
18529TIP3   OH277077   4.325   3.834   4.818 -0.1522  0.0252 -0.0538
18529TIP3    H177078   4.295   3.922   4.841  0.2497  0.3496 -0.7413
18529TIP3    H277079   4.321   3.785   4.900 -0.3300  0.6970  0.3458
18530TIP3   OH277080   5.458   5.540   1.532 -0.6775 -0.4301 -0.5672
18530TIP3    H177081   5.428   5.609   1.592 -2.4415 -0.5930 -1.1892
18530TIP3    H277082   5.553   5.537   1.543 -0.7500  0.9723  0.6708
18531TIP3   OH277083   2.082   0.095   2.966 -0.2774 -0.2481 -0.4580
18531TIP3    H177084   2.173   0.075   2.986 -0.9779 -2.9272  0.4486
18531TIP3    H277085   2.071   0.071   2.874  0.4280  2.2788 -1.2670
18532TIP3   OH277086   5.324   2.658   5.071 -0.6606  0.2767 -0.6769
18532TIP3    H177087   5.349   2.713   4.997 -0.2762  0.3073 -0.5288
18532TIP3    H277088   5.237   2.626   5.049 -1.1357  1.4100 -0.4908
18533TIP3   OH277089   4.001   4.436   4.316  0.1631  0.0410  0.5453
18533TIP3    H177090   4.001   4.514   4.370  1.4960  0.4642 -0.0315
18533TIP3    H277091   3.912   4.431   4.281 -0.1977  0.7633  1.3242
18534TIP3   OH277092   4.692   1.220  12.682 -0.5505 -0.6105  0.5966
18534TIP3    H177093   4.742   1.163  12.740  1.4592  0.0697 -0.3880
18534TIP3    H277094   4.635   1.270  12.741  0.4973 -0.8461  1.8572
18535TIP3   OH277095   2.241   6.049   2.625 -1.0475  0.3765  0.1203
18535TIP3    H177096   2.268   5.960   2.647 -2.8867 -0.0842  0.6867
18535TIP3    H277097   2.322   6.092   2.597  0.5382 -0.5312  2.8476
18536TIP3   OH277098   5.949   6.023  15.373  0.8849  0.7643  0.3524
18536TIP3    H177099   5.955   5.928  15.366  1.6796  0.9110 -1.7057
18536TIP3    H277100   5.891   6.049  15.301  1.5653  1.9127  0.1915
18537TIP3   OH277101   6.272   2.095  12.164  0.0698  0.7090 -0.0491
18537TIP3    H177102   6.228   2.180  12.162 -0.7962  0.3406  1.4107
18537TIP3    H277103   6.337   2.103  12.234  0.8993  0.5727 -0.7850
18538TIP3   OH277104   5.194   0.461   3.195 -0.0674 -0.0646  0.1173
18538TIP3    H177105   5.259   0.459   3.266  0.6817  1.1540 -0.5211
18538TIP3    H277106   5.124   0.517   3.229 -0.6345 -1.0452  0.6381
18539TIP3   OH277107   5.633   3.426  11.196 -0.1154  0.0649 -0.0493
18539TIP3    H177108   5.554   3.473  11.168 -0.5062  1.2143  2.6856
18539TIP3    H277109   5.603   3.336  11.209 -1.3204  0.6927  1.9562
18540TIP3   OH277110   1.467   5.247  13.471 -0.1517 -0.2097  0.7769
18540TIP3    H177111   1.500   5.208  13.552 -1.7283 -1.2791  0.9457
18540TIP3    H277112   1.416   5.323  13.501 -0.4770 -0.4255  0.7802
18541TIP3   OH277113   1.590   0.480   1.821  0.3960  0.3114 -0.4238
18541TIP3    H177114   1.669   0.473   1.768 -0.3068 -2.3781 -1.2583
18541TIP3    H277115   1.590   0.402   1.876  0.2718  2.2121  2.4914
18542TIP3   OH277116   6.210   1.860  17.087 -0.7006 -0.2029 -0.0709
18542TIP3    H177117   6.195   1.937  17.142 -1.9291 -0.2333 -0.3315
18542TIP3    H277118   6.239   1.792  17.148  0.8962  0.5835  0.0892
18543TIP3   OH277119   0.358   2.430  11.034  0.7237  0.6714  0.1663
18543TIP3    H177120   0.365   2.485  10.956 -0.0408  0.7387  0.1314
18543TIP3    H277121   0.277   2.380  11.020  0.6196  0.6319  0.8797
18544TIP3   OH277122   4.368   2.292   5.132  0.4238  0.9090  0.3362
18544TIP3    H177123   4.302   2.359   5.146  0.2168  0.6827  0.4397
18544TIP3    H277124   4.334   2.215   5.176 -0.2517  0.1840 -1.3593
18545TIP3   OH277125   1.287   3.256  11.327 -0.3727  0.1155 -0.3511
18545TIP3    H177126   1.282   3.243  11.233  0.5431  0.1087 -0.4120
18545TIP3    H277127   1.294   3.168  11.364  1.6517  0.1791 -0.4661
18546TIP3   OH277128   5.051   4.588  12.441  0.0598  0.4664  0.2987
18546TIP3    H177129   4.979   4.592  12.504  0.3937  0.5824  0.6726
18546TIP3    H277130   5.130   4.577  12.494  0.0597 -3.4101 -0.1715
18547TIP3   OH277131   1.038   1.450   0.797 -0.2551  0.2130  0.3246
18547TIP3    H177132   1.005   1.444   0.708  2.9274  0.4189 -0.9867
18547TIP3    H277133   1.042   1.544   0.815 -1.1315  0.1664  0.8232
18548TIP3   OH277134   0.500   1.863   1.788  0.4110  0.4211 -0.2686
18548TIP3    H177135   0.593   1.877   1.770  0.3152 -0.6025 -1.7452
18548TIP3    H277136   0.471   1.802   1.720 -1.2159  0.2667  0.5040
18549TIP3   OH277137   5.990   1.513  16.975  0.4375  0.0828  0.1118
18549TIP3    H177138   5.985   1.584  16.911  0.6468 -0.6663 -0.7600
18549TIP3    H277139   6.026   1.439  16.926 -1.3081 -1.1167  0.5574
18550TIP3   OH277140   3.408   5.356   1.799 -0.3391 -0.1816 -0.0893
18550TIP3    H177141   3.471   5.371   1.728 -0.7070 -0.9000 -0.5716
18550TIP3    H277142   3.435   5.273   1.838 -0.2172  0.1419  0.5497
18551TIP3   OH277143   5.865   5.050   5.300 -0.2684  0.1931  0.1477
18551TIP3    H177144   5.779   5.028   5.335 -0.1349  2.0179  1.8487
18551TIP3    H277145   5.927   5.002   5.355 -0.1530 -1.4054 -1.3037
18552TIP3   OH277146   5.622   4.420  15.316 -0.2026 -0.3825 -0.5564
18552TIP3    H177147   5.590   4.380  15.235 -0.8767  0.5253 -0.7497
18552TIP3    H277148   5.681   4.489  15.286  2.2591 -2.1920 -0.2122
18553TIP3   OH277149   1.634   2.041  16.580  0.1322  1.2961  0.1129
18553TIP3    H177150   1.664   2.049  16.489 -1.4331  0.0942 -0.5462
18553TIP3    H277151   1.654   2.126  16.619  0.1183  2.1162 -1.5776
18554TIP3   OH277152   6.621   5.285  14.167 -0.3747 -0.7693  0.2647
18554TIP3    H177153   6.534   5.273  14.130 -0.9612  2.7944  0.1508
18554TIP3    H277154   6.676   5.309  14.093 -0.5201  1.9336  0.9445
18555TIP3   OH277155   6.624   6.449   0.616  0.2011 -0.8089 -0.0412
18555TIP3    H177156   6.684   6.516   0.647 -0.3164 -0.0204 -0.6894
18555TIP3    H277157   6.667   6.412   0.539  1.1869 -2.3138  1.1809
18556TIP3   OH277158   5.487   2.413  14.027 -0.0170 -0.3883 -0.1242
18556TIP3    H177159   5.510   2.397  14.119 -1.5447  0.9479  0.5385
18556TIP3    H277160   5.537   2.491  14.003 -0.6703  0.0809  0.0203
18557TIP3   OH277161   3.578   0.670  11.589  0.0424 -0.2619 -0.1618
18557TIP3    H177162   3.641   0.619  11.537 -0.7132 -2.0361  0.5690
18557TIP3    H277163   3.600   0.649  11.680 -0.5454  0.4201  0.1459
18558TIP3   OH277164   2.968   0.577  14.558  0.1446 -0.3132  0.1572
18558TIP3    H177165   2.919   0.656  14.531 -0.5608 -0.6830  0.3326
18558TIP3    H277166   2.948   0.513  14.490 -0.2428 -0.7101  0.6385
18559TIP3   OH277167   3.151   1.513   5.663 -0.3856 -0.4639  0.2277
18559TIP3    H177168   3.222   1.454   5.687 -0.9170 -0.8873  0.7982
18559TIP3    H277169   3.087   1.504   5.734 -0.3174  1.0776  0.5251
18560TIP3   OH277170   5.672   0.207  15.957 -0.2532 -0.2177 -0.1043
18560TIP3    H177171   5.715   0.205  16.043 -0.8563 -0.7540  0.1956
18560TIP3    H277172   5.586   0.168  15.973 -0.6783  0.4252 -0.7885
18561TIP3   OH277173   0.273   2.223   3.322  0.1031 -0.0277  0.1056
18561TIP3    H177174   0.252   2.145   3.270 -1.4963  1.0967 -1.0302
18561TIP3    H277175   0.219   2.292   3.284 -0.4679  1.0728  2.7215
18562TIP3   OH277176   2.974   4.862   1.236 -0.0961 -0.4228 -0.9408
18562TIP3    H177177   2.920   4.938   1.215 -2.8536 -1.4049  1.8667
18562TIP3    H277178   2.916   4.803   1.284  2.7710 -2.8692 -0.1388
18563TIP3   OH277179   0.191   6.444  16.957  0.2432 -0.3717  0.6099
18563TIP3    H177180   0.180   6.350  16.972 -0.2392 -0.3055  0.6786
18563TIP3    H277181   0.111   6.471  16.913 -0.2980  0.3023  1.9595
18564TIP3   OH277182   5.554   3.760  14.444 -0.6365 -0.3710 -0.0220
18564TIP3    H177183   5.471   3.727  14.409 -1.3402 -0.3159  1.5455
18564TIP3    H277184   5.570   3.708  14.523 -0.2611  1.0343  0.8605
18565TIP3   OH277185   0.398   0.830  14.570  0.1156 -0.1468  0.6249
18565TIP3    H177186   0.463   0.762  14.550  1.4039  1.1254  0.3151
18565TIP3    H277187   0.321   0.781  14.601  0.3803 -1.8501 -1.1687
18566TIP3   OH277188   4.069   4.381   0.575  0.6046 -0.3526  0.7834
18566TIP3    H177189   4.036   4.300   0.615 -1.2294  1.0663  2.4064
18566TIP3    H277190   4.114   4.426   0.647  1.9271 -0.0651 -0.1931
18567TIP3   OH277191   1.479   3.979   6.300 -0.4369 -0.1417  0.2725
18567TIP3    H177192   1.519   3.925   6.232 -0.2619  1.3097 -0.8015
18567TIP3    H277193   1.550   3.999   6.360 -0.5999 -1.4536  0.9567
18568TIP3   OH277194   5.798   5.109   4.341 -0.3666  0.4110 -0.0994
18568TIP3    H177195   5.843   5.048   4.283 -0.5717 -0.1947  0.3634
18568TIP3    H277196   5.866   5.136   4.403 -0.3334  0.4656 -0.1593
18569TIP3   OH277197   2.398   5.380   3.036 -0.1574  0.1441  0.0107
18569TIP3    H177198   2.477   5.331   3.014 -0.3303  0.2223 -0.8299
18569TIP3    H277199   2.353   5.326   3.101  1.1007  0.5976  1.2972
18570TIP3   OH277200   2.073   2.057  12.291  0.2940  0.0442  0.0080
18570TIP3    H177201   2.027   2.019  12.215  0.3305 -1.2368  0.5932
18570TIP3    H277202   2.106   1.981  12.339  1.5867  0.8908  0.5025
18571TIP3   OH277203   5.044   4.656  14.246  0.0445  0.5042 -0.0671
18571TIP3    H177204   5.116   4.712  14.216 -0.2208  1.3186  0.7455
18571TIP3    H277205   5.041   4.671  14.341 -0.7709 -0.0232 -0.0016
18572TIP3   OH277206   3.243   4.877  13.017  0.0152 -0.1420  0.1670
18572TIP3    H177207   3.156   4.841  13.002  0.4281 -0.6838 -1.0602
18572TIP3    H277208   3.265   4.850  13.106 -1.5861  1.1426  1.0024
18573TIP3   OH277209   0.897   5.821  14.492 -0.3442  0.5420 -0.3646
18573TIP3    H177210   0.943   5.902  14.473 -0.5342  0.3228 -1.8755
18573TIP3    H277211   0.960   5.752  14.470 -0.2103  0.2588  0.8363
18574TIP3   OH277212   6.258   3.277   1.302  0.2934  0.3371  0.2420
18574TIP3    H177213   6.287   3.186   1.311  0.6271  0.3463 -0.6085
18574TIP3    H277214   6.248   3.308   1.392  1.2940 -0.1939  0.5576
18575TIP3   OH277215   4.954   0.730   4.631 -0.8866  0.2147 -0.2331
18575TIP3    H177216   4.865   0.735   4.666 -0.7228  2.2012  0.0703
18575TIP3    H277217   4.943   0.733   4.536 -1.2414 -3.1193 -0.3914
18576TIP3   OH277218   6.703   1.411   3.700  0.2730 -0.3592  0.1110
18576TIP3    H177219   6.753   1.333   3.726  1.7391  0.6846  0.5338
18576TIP3    H277220   6.614   1.393   3.729  0.8946 -1.2553  1.5925
18577TIP3   OH277221   4.906   4.460  12.256 -0.3707 -0.5607 -0.4512
18577TIP3    H177222   4.929   4.501  12.340 -1.3063 -2.7880  0.9963
18577TIP3    H277223   4.962   4.383  12.251 -0.0347 -0.2465 -2.1291
18578TIP3   OH277224   5.177   6.519   3.854 -0.4320  0.4833 -0.2220
18578TIP3    H177225   5.130   6.523   3.771  1.4493  1.4908 -1.3053
18578TIP3    H277226   5.232   6.441   3.846 -1.5460 -0.4562  0.8682
18579TIP3   OH277227   3.867   3.289   4.060  0.0291  0.4620 -0.6506
18579TIP3    H177228   3.925   3.225   4.100  1.0316  1.1094 -1.0230
18579TIP3    H277229   3.880   3.278   3.966 -1.1245  0.0233 -0.7742
18580TIP3   OH277230   4.452   0.507  14.509 -0.0311 -0.0257 -0.3468
18580TIP3    H177231   4.534   0.532  14.551 -0.6547  1.8884 -0.1696
18580TIP3    H277232   4.419   0.588  14.470 -1.5107 -0.8843 -0.9758
18581TIP3   OH277233   3.727   6.073  11.778  0.0658 -0.0869  0.6009
18581TIP3    H177234   3.723   6.166  11.800  0.4394 -0.1170  0.7923
18581TIP3    H277235   3.636   6.049  11.763 -0.1478  0.0613  1.5820
18582TIP3   OH277236   2.082   1.089   2.681 -0.2131 -0.5603 -0.0872
18582TIP3    H177237   2.122   1.111   2.597 -0.8956 -1.6403 -0.7105
18582TIP3    H277238   1.999   1.048   2.658  0.4450 -2.6813  1.0076
18583TIP3   OH277239   1.463   6.251  16.629 -0.1693 -0.1468  0.6234
18583TIP3    H177240   1.449   6.163  16.596 -1.6630 -0.8724  2.9399
18583TIP3    H277241   1.556   6.268  16.614 -0.2268 -1.3759 -1.4575
18584TIP3   OH277242   4.498   4.547  14.759  0.0173  0.6531  0.0083
18584TIP3    H177243   4.548   4.471  14.730  1.1831  0.9760  1.1040
18584TIP3    H277244   4.413   4.511  14.786 -1.4554  0.3685 -4.1878
18585TIP3   OH277245   0.647   2.422  10.776  0.0474 -0.1726 -0.1090
18585TIP3    H177246   0.701   2.501  10.782  1.0837 -0.8502 -0.2367
18585TIP3    H277247   0.701   2.353  10.814 -0.7276 -0.8872 -0.2700
18586TIP3   OH277248   1.979   4.196   0.581  0.0297  0.2666 -0.3018
18586TIP3    H177249   1.934   4.127   0.630 -0.1264  2.0781  2.3251
18586TIP3    H277250   1.920   4.271   0.587  1.4517  1.4483 -0.5476
18587TIP3   OH277251   2.278   5.753  16.845 -0.5700 -0.2984  0.0941
18587TIP3    H177252   2.370   5.771  16.865 -0.7275  0.9906 -0.1974
18587TIP3    H277253   2.232   5.775  16.926 -0.7493  0.4833 -0.2058
18588TIP3   OH277254   3.831   2.481   5.111 -0.2768  0.4796  0.0169
18588TIP3    H177255   3.818   2.437   5.027 -1.4594  0.2230  0.3118
18588TIP3    H277256   3.748   2.470   5.157  0.2634  0.8461  1.1199
18589TIP3   OH277257   4.211   3.609   4.591 -0.2694 -0.5029  0.0889
18589TIP3    H177258   4.165   3.662   4.527 -0.2889 -0.2567  0.3039
18589TIP3    H277259   4.242   3.672   4.657  1.1560 -0.5472 -0.5031
18590TIP3   OH277260   2.703   1.173  13.011  0.1299  0.1836 -0.0632
18590TIP3    H177261   2.613   1.192  13.038  0.4929  0.9007  0.6645
18590TIP3    H277262   2.734   1.255  12.972  0.4194 -0.1105 -0.4560
18591TIP3   OH277263   4.083   3.317  16.175  0.2506 -0.3112 -0.0396
18591TIP3    H177264   4.142   3.352  16.242  0.2720  0.3310 -0.3827
18591TIP3    H277265   4.018   3.387  16.163  0.2084 -0.4523 -0.6356
18592TIP3   OH277266   5.594   2.791   0.288  0.1982 -0.1755 -0.5818
18592TIP3    H177267   5.619   2.778   0.196 -1.4908 -1.2705 -0.9295
18592TIP3    H277268   5.609   2.706   0.329  1.5665  0.4835  0.3466
18593TIP3   OH277269   1.078   5.304   3.422  0.6515 -0.5008  0.1157
18593TIP3    H177270   1.031   5.336   3.346  2.0247 -0.3904 -0.7105
18593TIP3    H277271   1.130   5.230   3.389  1.7334 -0.0667  0.8022
18594TIP3   OH277272   3.032   2.316   6.577  0.4012  0.3178  0.3024
18594TIP3    H177273   2.981   2.373   6.635 -1.4344 -0.7399 -0.1906
18594TIP3    H277274   2.999   2.228   6.595  0.5604 -0.1625 -1.5412
18595TIP3   OH277275   2.653   4.097  14.484 -0.2710 -0.5286 -0.7254
18595TIP3    H177276   2.648   4.165  14.417 -0.3949 -0.2259 -0.4110
18595TIP3    H277277   2.596   4.127  14.554  0.4307 -0.4820 -0.1657
18596TIP3   OH277278   6.644   3.917   0.302  0.4540  0.1856 -0.1923
18596TIP3    H177279   6.734   3.914   0.334  0.3464  0.3872  0.1349
18596TIP3    H277280   6.644   3.862   0.224  0.7544 -0.1835  0.0667
18597TIP3   OH277281   0.133   3.040  13.646  0.2090  0.3601  0.0424
18597TIP3    H177282   0.145   2.947  13.663 -2.4857 -0.3205 -1.1730
18597TIP3    H277283   0.129   3.080  13.733 -1.5678 -1.1742  0.7351
18598TIP3   OH277284   2.300   3.390   3.866  0.4746 -0.7679  0.1443
18598TIP3    H177285   2.284   3.297   3.846  2.2880 -1.6652  2.3635
18598TIP3    H277286   2.391   3.404   3.841 -0.0648  0.7533 -1.0961
18599TIP3   OH277287   6.024   1.062   2.512 -0.1402  0.1677  0.3491
18599TIP3    H177288   5.939   1.099   2.534 -0.2806 -0.3722  0.7268
18599TIP3    H277289   6.034   1.078   2.418 -0.8556 -0.1824  0.2093
18600TIP3   OH277290   2.987   5.122   5.996 -0.5897 -0.1377 -0.5719
18600TIP3    H177291   3.058   5.108   5.933 -0.1563  0.2448 -0.1862
18600TIP3    H277292   3.031   5.162   6.071 -1.1642 -0.2280 -0.1875
18601TIP3   OH277293   1.119   3.613  15.247 -0.0168 -0.1727 -0.1827
18601TIP3    H177294   1.027   3.589  15.244 -0.4858  1.4169  0.8002
18601TIP3    H277295   1.138   3.626  15.340  1.1862 -0.4015 -0.3757
18602TIP3   OH277296   1.775   5.477  17.205 -0.2300 -0.1089  0.2967
18602TIP3    H177297   1.837   5.420  17.159 -0.4737  0.1189 -0.3295
18602TIP3    H277298   1.697   5.424  17.216 -1.5341  0.8942 -2.8391
18603TIP3   OH277299   4.809   2.314  14.962  0.1346  0.2630 -0.3817
18603TIP3    H177300   4.881   2.359  14.919  1.4829 -2.7086 -1.4903
18603TIP3    H277301   4.759   2.275  14.890 -0.3721 -0.8066  0.5193
18604TIP3   OH277302   1.249   3.917  13.546  0.6415 -0.0038  0.4217
18604TIP3    H177303   1.182   3.892  13.610  0.3859 -0.1695  0.0918
18604TIP3    H277304   1.287   3.835  13.516 -1.1190 -0.1542 -1.6502
18605TIP3   OH277305   1.371   1.141   3.996  0.2345 -0.1878 -0.0155
18605TIP3    H177306   1.319   1.125   3.917  0.3523 -0.8118  0.0239
18605TIP3    H277307   1.307   1.142   4.067  0.2302 -0.6028 -0.0090
18606TIP3   OH277308   3.391   3.431  14.116 -0.5466  0.3378  0.0236
18606TIP3    H177309   3.358   3.489  14.048 -1.0928 -0.9522 -0.8543
18606TIP3    H277310   3.409   3.348  14.071  2.0630  0.3716  0.8353
18607TIP3   OH277311   0.950   5.919  17.156 -0.5431  0.0829 -0.3430
18607TIP3    H177312   1.006   5.934  17.080 -0.8558  0.4059 -0.5161
18607TIP3    H277313   0.868   5.964  17.134  0.2391  2.5271  1.2581
18608TIP3   OH277314   3.314   3.407   2.600 -0.1353 -0.3471 -0.4717
18608TIP3    H177315   3.367   3.485   2.618  2.2951 -1.8553 -0.7783
18608TIP3    H277316   3.321   3.354   2.679 -3.1107  0.3306  0.3969
18609TIP3   OH277317   5.785   1.114  12.079  0.3231  0.2210  0.3407
18609TIP3    H177318   5.816   1.069  12.157  1.8987  0.7053  0.0287
18609TIP3    H277319   5.822   1.064  12.006 -0.0735  0.5196 -0.0740
18610TIP3   OH277320   2.897   5.796   4.770  0.8413  0.3256 -0.2325
18610TIP3    H177321   2.923   5.873   4.821  0.4444 -0.3331  1.0326
18610TIP3    H277322   2.829   5.827   4.711  0.9298  1.0203  0.0257
18611TIP3   OH277323   0.374   4.954  11.578  1.0215  0.2612 -0.5093
18611TIP3    H177324   0.383   5.048  11.568 -0.7772  0.5847  0.4229
18611TIP3    H277325   0.358   4.941  11.672 -1.6585 -0.6398 -1.0181
18612TIP3   OH277326   4.851   4.165  15.257 -0.3406  0.0068  0.2785
18612TIP3    H177327   4.840   4.181  15.351 -1.3976  0.2190  0.1313
18612TIP3    H277328   4.861   4.252  15.219 -0.9915 -0.0007  0.0762
18613TIP3   OH277329   3.660   3.644   3.889  0.2701 -0.0785  0.1242
18613TIP3    H177330   3.574   3.602   3.888  0.8099 -1.3151  1.3909
18613TIP3    H277331   3.684   3.650   3.797 -0.5300 -1.1403 -0.1848
18614TIP3   OH277332   0.811   1.049  15.548 -0.1384  0.7448  0.7122
18614TIP3    H177333   0.890   1.055  15.495  0.1772  2.3240  1.3141
18614TIP3    H277334   0.744   1.092  15.495 -0.1263  1.1659  1.0337
18615TIP3   OH277335   0.024   5.226  15.636  0.3907 -0.1573 -0.0842
18615TIP3    H177336   0.002   5.310  15.595 -1.2276 -0.4616  0.1067
18615TIP3    H277337  -0.037   5.164  15.598  0.3149 -0.8816  1.1696
18616TIP3   OH277338   0.480   1.569   4.601 -0.5227 -0.4437 -1.2696
18616TIP3    H177339   0.565   1.544   4.565  0.1887  1.5694 -1.1454
18616TIP3    H277340   0.475   1.664   4.585 -0.7974  0.3270  2.5413
18617TIP3   OH277341   1.680   0.298   5.748 -0.1929  0.2877 -0.1149
18617TIP3    H177342   1.595   0.318   5.786  0.1693  1.5331  0.0909
18617TIP3    H277343   1.671   0.324   5.656  0.4284  1.9975  0.2601
18618TIP3   OH277344   6.742   4.443   0.121 -0.2541  0.3079  0.1685
18618TIP3    H177345   6.726   4.349   0.127  1.1374 -0.0639 -1.3724
18618TIP3    H277346   6.678   4.474   0.057  0.5669  0.0588 -0.7783
18619TIP3   OH277347   4.546   0.621  12.652 -0.3057 -0.0986 -0.0523
18619TIP3    H177348   4.611   0.583  12.711  0.7570  0.8155 -0.6151
18619TIP3    H277349   4.560   0.715  12.658 -0.9968  0.0622 -0.8553
18620TIP3   OH277350   3.692   1.231   1.493  0.1125 -0.7572 -0.4152
18620TIP3    H177351   3.636   1.273   1.428  1.4015 -2.0251 -2.4790
18620TIP3    H277352   3.777   1.223   1.449  1.7820  0.4819  2.3226
18621TIP3   OH277353   3.088   2.220  13.546  0.2862  0.1308 -0.1647
18621TIP3    H177354   3.052   2.280  13.481  0.9322  0.7592  0.0379
18621TIP3    H277355   3.149   2.274  13.596 -1.2188  0.0413  1.8829
18622TIP3   OH277356   0.412   0.590  12.052  0.3371  0.2225 -0.2663
18622TIP3    H177357   0.434   0.668  12.103 -0.4279  0.2177  0.0972
18622TIP3    H277358   0.411   0.620  11.961 -1.0516  0.9364 -0.0449
18623TIP3   OH277359   3.842   5.282   0.130 -0.4001 -0.0135 -0.2606
18623TIP3    H177360   3.754   5.320   0.129 -0.5589 -0.3734 -0.8810
18623TIP3    H277361   3.900   5.355   0.107 -0.6903 -0.0979 -1.3251
18624TIP3   OH277362   0.021   6.617   4.771 -0.4167  0.7350  0.0075
18624TIP3    H177363  -0.030   6.538   4.789  1.8522 -1.4543 -2.2618
18624TIP3    H277364  -0.005   6.643   4.683  0.6059  0.9965 -0.2376
18625TIP3   OH277365   5.480   0.816   3.245 -0.2362 -0.1362  0.0570
18625TIP3    H177366   5.431   0.756   3.190  1.1913 -1.0516 -0.2380
18625TIP3    H277367   5.477   0.777   3.333 -1.2920  0.5922  0.3701
18626TIP3   OH277368   1.700   2.857  11.654  0.5865 -0.3590  0.0337
18626TIP3    H177369   1.790   2.825  11.666  0.8638 -0.6633 -2.2425
18626TIP3    H277370   1.663   2.797  11.589  0.0779  2.0629 -2.0642
18627TIP3   OH277371   1.393   2.240   3.874  0.0640 -0.0036  0.0061
18627TIP3    H177372   1.403   2.273   3.785 -0.6920  1.0485  0.2899
18627TIP3    H277373   1.479   2.203   3.896  0.2290 -0.3640 -1.1798
18628TIP3   OH277374   1.028   6.600   3.697 -0.6541  0.1134  0.6550
18628TIP3    H177375   1.069   6.520   3.731  0.4874  0.6239  0.5285
18628TIP3    H277376   0.950   6.612   3.753 -0.7838 -1.0100  0.7441
18629TIP3   OH277377   3.028   5.581   5.390 -0.1016 -0.1931  0.7257
18629TIP3    H177378   2.937   5.559   5.373 -0.4685  0.8262  1.2883
18629TIP3    H277379   3.045   5.547   5.478  0.2727 -0.9692  0.3650
18630TIP3   OH277380   0.668   3.438  12.261  0.2341  0.4386  0.1479
18630TIP3    H177381   0.667   3.370  12.328  0.5101  0.4108  0.1264
18630TIP3    H277382   0.587   3.486  12.274  1.0807  1.5584  1.6734
18631TIP3   OH277383   2.599   6.667   0.070  0.4419  0.4537  0.1071
18631TIP3    H177384   2.648   6.653   0.151  0.3519  0.9846  0.2584
18631TIP3    H277385   2.663   6.705   0.010  0.6079 -0.3026 -0.2013
18632TIP3   OH277386   5.105   6.819   2.125 -0.0277 -0.4734 -0.1907
18632TIP3    H177387   5.086   6.849   2.036 -0.1792  1.1838  0.3666
18632TIP3    H277388   5.183   6.867   2.150 -1.7235  1.4815  1.6709
18633TIP3   OH277389   6.728   2.122  16.855  0.1956 -0.5223  0.1491
18633TIP3    H177390   6.780   2.202  16.869  1.1401 -0.7988 -1.4737
18633TIP3    H277391   6.793   2.052  16.852 -0.4569 -1.1249 -0.0746
18634TIP3   OH277392   6.119   4.891  10.353  0.3068  0.2451 -0.5518
18634TIP3    H177393   6.081   4.915  10.437  0.8322 -2.6359  0.6481
18634TIP3    H277394   6.123   4.795  10.355  2.3957  0.1624 -2.9398
18635TIP3   OH277395   0.983   4.993  13.204 -0.1935 -0.2243  0.0543
18635TIP3    H177396   0.997   5.010  13.297  2.3670  0.6898 -0.4069
18635TIP3    H277397   0.935   5.070  13.173 -1.2404 -0.6295  0.6368
18636TIP3   OH277398   0.879   4.716  13.403  0.1351  0.8642 -0.5057
18636TIP3    H177399   0.831   4.649  13.450  1.1134  0.4098 -0.1174
18636TIP3    H277400   0.963   4.722  13.449  0.0367  2.4140 -0.4855
18637TIP3   OH277401   2.625   0.135   5.781 -0.4948  0.4281 -0.1763
18637TIP3    H177402   2.607   0.156   5.689  0.5848  0.7416 -0.3282
18637TIP3    H277403   2.707   0.181   5.800 -0.5884  0.1759  0.8812
18638TIP3   OH277404   2.106   1.530  15.160  0.5699  0.5927  0.3600
18638TIP3    H177405   2.178   1.531  15.222 -0.7302 -1.0945  1.9907
18638TIP3    H277406   2.104   1.441  15.126 -2.0130 -0.0661  1.9872
18639TIP3   OH277407   4.915   4.888  15.530 -0.9407 -0.1097 -0.5863
18639TIP3    H177408   4.935   4.843  15.449 -0.3121  1.9205 -1.6101
18639TIP3    H277409   4.999   4.894  15.576 -0.2952  2.8175 -1.9757
18640TIP3   OH277410   3.030   3.198   3.630 -0.1796 -0.4602 -0.1883
18640TIP3    H177411   2.935   3.208   3.623 -0.7790 -3.9796  0.8120
18640TIP3    H277412   3.046   3.187   3.723  1.0429 -1.0283 -0.4522
18641TIP3   OH277413   4.218   3.391  16.392  0.0602  0.1473 -0.2438
18641TIP3    H177414   4.149   3.430  16.446 -0.5761 -1.6253  0.2676
18641TIP3    H277415   4.270   3.339  16.454  2.0816  1.6653 -0.5519
18642TIP3   OH277416   4.118   3.438  15.271 -0.3014 -0.2465 -0.3380
18642TIP3    H177417   4.119   3.370  15.338  0.0433 -0.0135 -0.1012
18642TIP3    H277418   4.189   3.415  15.212 -0.6272 -0.4699 -0.6426
18643TIP3   OH277419   5.760   6.508  12.301  0.0798 -0.0219  0.0592
18643TIP3    H177420   5.737   6.570  12.232 -2.5669  0.4930  1.2700
18643TIP3    H277421   5.742   6.422  12.262 -2.1361  0.2941  0.2583
18644TIP3   OH277422   6.803   2.570  14.926  0.1826  0.3540 -0.0035
18644TIP3    H177423   6.750   2.499  14.889  1.9674 -0.9004 -0.3196
18644TIP3    H277424   6.823   2.626  14.852  0.6394 -0.0818 -0.2173
18645TIP3   OH277425   0.531   0.664  12.393 -0.2056  0.2685 -0.2377
18645TIP3    H177426   0.586   0.644  12.469 -0.8056  1.6506  0.5841
18645TIP3    H277427   0.441   0.659  12.426 -0.4654  1.1975 -0.7666
18646TIP3   OH277428   0.050   5.876  12.685  0.2730  0.3401 -0.2261
18646TIP3    H177429   0.057   5.932  12.762 -0.9431  0.6774 -0.3391
18646TIP3    H277430  -0.006   5.925  12.625 -0.6037 -0.8684 -0.4299
18647TIP3   OH277431   3.029   5.177  11.775  0.0367 -0.2522  0.1258
18647TIP3    H177432   3.030   5.129  11.858 -1.9415  0.5135  0.6397
18647TIP3    H277433   3.082   5.122  11.715 -2.4569 -3.3813  0.5282
18648TIP3   OH277434   3.528   1.498  13.567 -0.0541  0.4753 -0.1995
18648TIP3    H177435   3.483   1.534  13.643 -2.2164 -3.2427  0.4878
18648TIP3    H277436   3.483   1.538  13.492 -0.8668  0.8462  0.4727
18649TIP3   OH277437   6.676   4.315   0.465 -0.4474  0.7082 -0.2513
18649TIP3    H177438   6.609   4.368   0.421  1.5807  2.5911 -1.2203
18649TIP3    H277439   6.749   4.375   0.479  2.4594 -1.9907 -2.3725
18650TIP3   OH277440   3.856   1.920   5.815 -0.1105  0.2608 -0.4178
18650TIP3    H177441   3.813   1.838   5.795  0.7621 -0.8161  1.7376
18650TIP3    H277442   3.786   1.985   5.819 -1.1337 -0.8548  0.0773
18651TIP3   OH277443   3.792   0.891   1.784  0.5492 -0.2732  0.2257
18651TIP3    H177444   3.771   0.950   1.856  2.1456 -0.5359  0.9508
18651TIP3    H277445   3.708   0.853   1.759 -0.1088  0.1944  1.6064
18652TIP3   OH277446   2.852   6.124  16.620 -0.0828 -0.6519  0.6216
18652TIP3    H177447   2.866   6.165  16.705  0.3570  0.8611 -0.1543
18652TIP3    H277448   2.770   6.162  16.588 -0.2253 -1.1824  0.3479
18653TIP3   OH277449   6.723   4.746  11.725 -0.4511  0.2727 -0.3892
18653TIP3    H177450   6.644   4.716  11.770 -1.6437 -0.2359 -2.6765
18653TIP3    H277451   6.735   4.836  11.753 -2.0058  0.4345 -0.1768
18654TIP3   OH277452   2.619   6.071  14.376  0.0513  0.0114  0.2935
18654TIP3    H177453   2.546   6.128  14.399 -0.0302 -0.0398  0.1652
18654TIP3    H277454   2.695   6.111  14.418 -0.2564 -0.6598  1.5308
18655TIP3   OH277455   6.206   6.331   5.182  0.0716 -0.0983  0.0786
18655TIP3    H177456   6.115   6.327   5.152  0.2526  1.4377 -0.8223
18655TIP3    H277457   6.202   6.375   5.266 -0.0829 -0.8670  0.4839
18656TIP3   OH277458   1.260   6.132   6.250 -0.5323 -0.2640 -0.7242
18656TIP3    H177459   1.186   6.134   6.310 -0.8820  1.3842 -1.1635
18656TIP3    H277460   1.268   6.040   6.225 -1.7555 -0.6284  0.1401
18657TIP3   OH277461   3.483   4.070   1.234  0.5343  0.0421  0.3102
18657TIP3    H177462   3.568   4.032   1.255  0.8699 -0.1293 -1.2361
18657TIP3    H277463   3.433   3.997   1.197  0.8573  0.8221 -1.7857
18658TIP3   OH277464   3.422   3.384  11.268 -0.2955 -0.4073 -0.4130
18658TIP3    H177465   3.379   3.342  11.194  0.2543 -0.7926 -0.5252
18658TIP3    H277466   3.359   3.377  11.340 -2.0704  2.5777 -1.5313
18659TIP3   OH277467   2.965   4.609  11.851  1.2555 -0.5116  0.2152
18659TIP3    H177468   3.027   4.682  11.843  1.8849 -0.8261  1.8418
18659TIP3    H277469   2.882   4.645  11.820  1.9083  0.3791 -0.5799
18660TIP3   OH277470   6.720   5.799   2.748  0.1096 -0.4228  0.3086
18660TIP3    H177471   6.746   5.713   2.781  0.4770  0.2711  1.8748
18660TIP3    H277472   6.737   5.794   2.654 -0.7363 -2.3559  0.2070
18661TIP3   OH277473   2.483   6.555  16.030  0.2805  0.6265  0.3924
18661TIP3    H177474   2.478   6.487  15.963  1.7391 -0.0944  0.9607
18661TIP3    H277475   2.574   6.585  16.027  0.0451  1.4882  1.1842
18662TIP3   OH277476   3.553   1.253   5.624 -0.1852  0.1467  0.5267
18662TIP3    H177477   3.546   1.290   5.537 -3.3376  0.5507  0.8341
18662TIP3    H277478   3.575   1.327   5.681 -0.6636  0.3934  0.3919
18663TIP3   OH277479   1.526   4.202  16.779  0.2430 -0.0694  0.3519
18663TIP3    H177480   1.598   4.227  16.721 -0.5625 -0.1493 -0.7023
18663TIP3    H277481   1.565   4.140  16.841  1.2853  0.6009  0.3819
18664TIP3   OH277482   5.876   1.968   1.580 -0.2339 -0.0735  0.4593
18664TIP3    H177483   5.815   1.894   1.584 -0.5440  0.1428 -0.2165
18664TIP3    H277484   5.961   1.929   1.600 -0.5382 -0.4335  1.1025
18665TIP3   OH277485   0.842   1.492  11.743  0.0574  0.4781  1.2646
18665TIP3    H177486   0.892   1.529  11.816 -0.9175  0.4662  1.9608
18665TIP3    H277487   0.773   1.556  11.726 -2.3640 -1.3764  3.2304
18666TIP3   OH277488   5.732   0.325   1.185  0.0285 -0.4534  0.1584
18666TIP3    H177489   5.700   0.415   1.196  2.0638  0.1626  1.5594
18666TIP3    H277490   5.658   0.270   1.211 -1.5226  0.7460 -1.4462
18667TIP3   OH277491   4.428   6.505  13.195  0.5968  0.5923 -0.1257
18667TIP3    H177492   4.516   6.540  13.205  0.1187  1.7425  0.2128
18667TIP3    H277493   4.420   6.486  13.101  1.7087 -0.9906  0.0483
18668TIP3   OH277494   2.962   1.851  11.055  0.0727  0.2851  0.5546
18668TIP3    H177495   2.947   1.782  10.990  0.3122  0.8147 -0.0661
18668TIP3    H277496   2.952   1.806  11.140  0.9874 -0.6729  0.1682
18669TIP3   OH277497   1.236   4.799   5.290 -0.5118  0.2647 -0.3867
18669TIP3    H177498   1.142   4.799   5.273 -0.2959 -1.1624 -1.9026
18669TIP3    H277499   1.258   4.891   5.304 -2.0932  0.6363 -0.1633
18670TIP3   OH277500   2.021   2.942  11.060  0.4081  0.5169 -0.3229
18670TIP3    H177501   1.950   2.945  10.997 -0.6010 -1.2226  0.6748
18670TIP3    H277502   1.981   2.966  11.144  1.3279  0.9820  0.0063
18671TIP3   OH277503   4.798   4.631  13.053  0.2013 -1.1452 -0.1464
18671TIP3    H177504   4.728   4.679  13.096  0.7887  0.4909 -0.9459
18671TIP3    H277505   4.868   4.627  13.117  0.9001  0.8750 -0.7153
18672TIP3   OH277506   2.454   3.995   0.538 -0.1035  0.0682 -0.2769
18672TIP3    H177507   2.494   4.004   0.451 -0.5377 -0.2522 -0.5162
18672TIP3    H277508   2.361   3.981   0.520 -0.2276  0.1876  0.2502
18673TIP3   OH277509   5.670   4.011  10.474  0.1413  0.2171  0.4007
18673TIP3    H177510   5.602   4.078  10.486  1.4878  1.9675 -1.0968
18673TIP3    H277511   5.750   4.052  10.507  1.4366  0.2925 -2.5040
18674TIP3   OH277512   2.456   2.686   3.549 -0.1871 -0.3891  0.0836
18674TIP3    H177513   2.378   2.740   3.566 -0.3688 -0.8640  0.8219
18674TIP3    H277514   2.469   2.637   3.630  0.7896 -0.4416 -0.0926
18675TIP3   OH277515   0.126   3.740  17.001  0.4621 -0.1102  0.3139
18675TIP3    H177516   0.176   3.669  16.962  2.1937  0.7419  0.9115
18675TIP3    H277517   0.178   3.770  17.075 -1.1476  0.5245  1.2617
18676TIP3   OH277518   4.402   2.470   1.203  0.4369  0.6864 -0.1734
18676TIP3    H177519   4.325   2.424   1.171 -0.0659  0.1038  1.7599
18676TIP3    H277520   4.390   2.475   1.298  2.2335  1.6013  0.0548
18677TIP3   OH277521   2.560   2.683  15.330 -0.8352  0.4350 -0.0531
18677TIP3    H177522   2.589   2.659  15.418  1.6504  0.0405 -0.8999
18677TIP3    H277523   2.574   2.777  15.325 -0.4020  0.3651 -0.2063
18678TIP3   OH277524   5.839   5.760   5.361  0.0390  0.4859 -0.0912
18678TIP3    H177525   5.848   5.740   5.268  0.0582  1.1668 -0.2367
18678TIP3    H277526   5.788   5.687   5.396  0.0180  0.2367 -0.6392
18679TIP3   OH277527   6.628   2.989   0.328 -0.5201 -0.4789  0.0763
18679TIP3    H177528   6.560   2.941   0.280  0.3084 -1.4148 -0.1860
18679TIP3    H277529   6.609   2.970   0.420 -1.6345  0.6758  0.1155
18680TIP3   OH277530   0.733   6.737   2.424  0.1570 -0.5167 -0.6355
18680TIP3    H177531   0.773   6.670   2.370  0.0502 -0.4990 -0.7360
18680TIP3    H277532   0.695   6.799   2.362 -3.1117 -2.2965 -0.6267
18681TIP3   OH277533   1.958   2.988   5.947  0.1867 -0.0172 -0.4000
18681TIP3    H177534   2.005   2.982   5.864  1.1283 -0.0741  0.1273
18681TIP3    H277535   1.867   3.005   5.921  0.4403 -0.1418 -1.4403
18682TIP3   OH277536   6.316   5.139   3.699  0.1796 -0.0878 -0.0751
18682TIP3    H177537   6.273   5.211   3.745 -2.5979 -1.3554 -0.4550
18682TIP3    H277538   6.323   5.070   3.765 -0.6322 -0.7156 -0.6240
18683TIP3   OH277539   0.880   3.932   1.896  0.3165  0.2118  0.3880
18683TIP3    H177540   0.908   3.940   1.805  0.3705  0.3575  0.4175
18683TIP3    H277541   0.918   4.008   1.940 -0.3497  0.5662  0.3726
18684TIP3   OH277542   5.504   2.897   3.423  0.2718 -0.0646  0.1567
18684TIP3    H177543   5.447   2.827   3.457 -1.5032 -0.1529 -2.6425
18684TIP3    H277544   5.580   2.851   3.389  0.7022 -0.2383  1.2840
18685TIP3   OH277545   4.517   5.026  12.783  0.2452 -0.4174  0.3739
18685TIP3    H177546   4.580   4.967  12.743  0.6074 -0.7478  1.3900
18685TIP3    H277547   4.434   5.006  12.739  0.7512 -0.2960 -0.6536
18686TIP3   OH277548   6.292   4.345  15.586  0.0677 -0.1094  0.1449
18686TIP3    H177549   6.335   4.268  15.621  0.5774 -0.1307 -0.4942
18686TIP3    H277550   6.225   4.310  15.526 -1.0027 -0.0809  1.2898
18687TIP3   OH277551   5.238   2.708   2.407 -0.2655 -0.3487 -0.1699
18687TIP3    H177552   5.173   2.754   2.354  0.3365 -0.0642 -0.6640
18687TIP3    H277553   5.321   2.752   2.388 -0.3336  1.1820  2.5994
18688TIP3   OH277554   0.345   1.310   1.595  0.2353  0.5208  0.1369
18688TIP3    H177555   0.251   1.300   1.613  0.1627 -1.2505 -0.9658
18688TIP3    H277556   0.386   1.308   1.681 -0.6115 -0.6501  0.5457
18689TIP3   OH277557   2.809   0.329   4.153  0.5118 -0.2055 -0.1199
18689TIP3    H177558   2.755   0.408   4.164 -0.0879 -0.3218 -1.9067
18689TIP3    H277559   2.746   0.257   4.161  0.7041 -0.4194 -0.5591
18690TIP3   OH277560   1.104   4.858   2.218  0.2743 -0.5305  0.1084
18690TIP3    H177561   1.024   4.827   2.260  0.9529 -1.5594  0.6924
18690TIP3    H277562   1.137   4.927   2.276 -0.3791  0.1716 -0.3380
18691TIP3   OH277563   6.215   1.868   6.102  0.2772 -0.4126 -0.4411
18691TIP3    H177564   6.289   1.823   6.143 -0.7160 -0.9420  0.7975
18691TIP3    H277565   6.228   1.960   6.124  0.4695 -0.5273 -0.0739
18692TIP3   OH277566   3.995   3.038   2.897  0.1573 -0.3017  0.4903
18692TIP3    H177567   3.980   2.949   2.930 -0.6544 -0.0769  0.7578
18692TIP3    H277568   3.955   3.037   2.810 -2.5777  0.6024  1.6117
18693TIP3   OH277569   2.174   6.370  13.343 -0.3346  0.1259  0.0488
18693TIP3    H177570   2.228   6.298  13.309 -0.4103  1.1866 -2.5887
18693TIP3    H277571   2.175   6.358  13.437 -0.4856 -3.4071 -0.2744
18694TIP3   OH277572   4.333   0.314  16.177 -0.3520  0.3019 -0.2280
18694TIP3    H177573   4.305   0.278  16.093 -1.6243 -0.7706  0.6058
18694TIP3    H277574   4.398   0.251  16.209  0.4874  0.9604 -0.5993
18695TIP3   OH277575   4.623   4.161  12.791 -0.0140  0.3467 -0.3619
18695TIP3    H177576   4.661   4.243  12.824  0.0697 -0.2424  1.0923
18695TIP3    H277577   4.545   4.148  12.845  0.0987 -0.6430 -0.4278
18696TIP3   OH277578   0.581   3.631   4.872 -0.4900  0.1855 -0.4208
18696TIP3    H177579   0.610   3.713   4.833  1.4475 -0.4447 -0.4146
18696TIP3    H277580   0.507   3.604   4.819 -1.3642  2.0654 -0.2463
18697TIP3   OH277581   5.278   4.335  15.777 -0.1437 -0.3833 -0.9210
18697TIP3    H177582   5.292   4.425  15.805  2.4656 -1.1802  0.6778
18697TIP3    H277583   5.221   4.342  15.700  1.2026  2.7162 -1.7810
18698TIP3   OH277584   0.566   3.098   4.649  0.3019 -0.1275 -0.4938
18698TIP3    H177585   0.483   3.135   4.680  0.1964 -0.5302 -0.2820
18698TIP3    H277586   0.558   3.004   4.668  0.9485 -0.1163 -0.1409
18699TIP3   OH277587   2.679   5.417   5.519 -0.5826  0.1047 -0.8392
18699TIP3    H177588   2.659   5.350   5.454  3.6008 -0.2355 -2.1251
18699TIP3    H277589   2.757   5.384   5.563 -1.5972  1.6971  2.4299
18700TIP3   OH277590   4.668   3.663  17.077  0.5314  0.0413  0.6352
18700TIP3    H177591   4.660   3.570  17.098  1.0969 -0.1968 -0.1728
18700TIP3    H277592   4.724   3.698  17.146 -0.8075  0.0974  1.7524
18701TIP3   OH277593   2.191   2.416  11.067 -0.4094 -0.2088 -0.2370
18701TIP3    H177594   2.121   2.453  11.120 -1.4560 -1.1025 -0.9512
18701TIP3    H277595   2.264   2.405  11.128 -1.6045 -1.2600  1.0766
18702TIP3   OH277596   4.207   0.268  12.458 -0.5144 -0.7325  0.0904
18702TIP3    H177597   4.295   0.296  12.484 -0.4713 -1.1550  0.4277
18702TIP3    H277598   4.171   0.341  12.408 -0.7543  0.2764  1.6954
18703TIP3   OH277599   3.558   3.074   4.727  0.0188  0.0332 -0.2655
18703TIP3    H177600   3.484   3.029   4.687 -1.1235 -0.7095  2.4108
18703TIP3    H277601   3.621   3.086   4.657 -1.9474 -0.8075 -2.2829
18704TIP3   OH277602   6.186   2.197   2.783 -0.0407  0.2784 -0.0724
18704TIP3    H177603   6.150   2.263   2.842 -0.1228  0.9628 -0.8640
18704TIP3    H277604   6.263   2.239   2.745  1.2690 -0.9232  1.1094
18705TIP3   OH277605   4.341   0.267  11.414 -0.1840  0.2143 -0.1454
18705TIP3    H177606   4.267   0.254  11.355 -0.1935  0.6370 -0.2272
18705TIP3    H277607   4.414   0.222  11.372 -0.3179  0.0692 -0.2227
18706TIP3   OH277608   6.196   5.172   5.699 -0.5061 -0.1163  0.3095
18706TIP3    H177609   6.193   5.263   5.669 -1.7445  0.4170  1.9299
18706TIP3    H277610   6.286   5.144   5.682 -0.1006  1.4193 -0.1732
18707TIP3   OH277611   2.256   0.721  16.134  0.3074  0.0713  0.0235
18707TIP3    H177612   2.298   0.645  16.095 -1.0215  0.3444 -2.0880
18707TIP3    H277613   2.194   0.752  16.067 -3.1208 -0.1643  2.7718
18708TIP3   OH277614   2.130   5.292  11.732 -0.1194  0.4586 -0.1380
18708TIP3    H177615   2.179   5.212  11.750 -0.0834  0.7024  0.9411
18708TIP3    H277616   2.122   5.334  11.818  2.3928  3.1039 -1.0506
18709TIP3   OH277617   6.334   0.905   2.336 -0.7875  0.4403 -0.2039
18709TIP3    H177618   6.324   0.944   2.423  2.1371  1.3000 -0.1349
18709TIP3    H277619   6.304   0.815   2.347 -3.2314  1.3055  0.8762
18710TIP3   OH277620   0.406   0.383   0.516  0.3224  0.1444  0.0587
18710TIP3    H177621   0.488   0.339   0.493 -0.6086 -0.8797 -1.5194
18710TIP3    H277622   0.431   0.449   0.580  2.4192  0.0059 -0.5452
18711TIP3   OH277623   0.369   0.112  12.104 -0.6415 -0.5372 -0.3230
18711TIP3    H177624   0.452   0.064  12.105 -1.7416 -2.5335  0.2753
18711TIP3    H277625   0.333   0.100  12.192 -1.4481  0.5656 -0.4741
18712TIP3   OH277626   0.751   2.564   5.333 -0.6155  0.5706 -0.4662
18712TIP3    H177627   0.701   2.501   5.386  0.2211  0.3689  0.1026
18712TIP3    H277628   0.812   2.604   5.395  1.0198 -0.3227 -1.4246
18713TIP3   OH277629   1.245   3.961  15.760  0.1831 -0.1984 -0.1862
18713TIP3    H177630   1.266   3.869  15.747  0.1836 -0.2772  0.3711
18713TIP3    H277631   1.244   3.998  15.672  0.0373 -0.7617 -0.4225
18714TIP3   OH277632   0.137   3.240  16.899 -0.0217 -0.2111 -0.2363
18714TIP3    H177633   0.075   3.181  16.941 -1.2269  0.4673 -1.0252
18714TIP3    H277634   0.196   3.266  16.970 -0.5974 -0.9024  0.5197
18715TIP3   OH277635   4.634   6.377  12.984  0.4516  0.4245  0.1189
18715TIP3    H177636   4.624   6.314  12.912  0.2784 -0.9886  1.3458
18715TIP3    H277637   4.683   6.449  12.945  1.4678 -0.8629 -1.0952
18716TIP3   OH277638   3.184   3.739  10.903  0.1705  0.0143 -0.1448
18716TIP3    H177639   3.144   3.784  10.828  2.0504  0.1709 -1.1193
18716TIP3    H277640   3.237   3.807  10.945  0.5180 -0.5156  0.2785
18717TIP3   OH277641   6.067   2.689  16.243 -0.7922 -0.0442 -0.2839
18717TIP3    H177642   6.082   2.597  16.267 -1.9821 -0.3125 -0.4911
18717TIP3    H277643   5.994   2.686  16.181 -1.1139  1.0721  0.0104
18718TIP3   OH277644   0.232   1.920  10.649  0.5803  0.2811 -0.3499
18718TIP3    H177645   0.209   1.862  10.576 -0.5814 -0.6066  0.6889
18718TIP3    H277646   0.181   1.999  10.634  0.2839  0.0707 -0.4513
18719TIP3   OH277647   1.108   2.787   6.681  0.0640  0.3946  0.6982
18719TIP3    H177648   1.024   2.805   6.638 -0.0737  1.9591  1.5644
18719TIP3    H277649   1.092   2.707   6.732 -0.6494  0.2343  0.2408
18720TIP3   OH277650   1.936   2.023   1.840 -0.1590 -0.7991  0.0838
18720TIP3    H177651   1.879   2.002   1.914 -0.7060  1.4127  0.3508
18720TIP3    H277652   1.877   2.049   1.770  0.4410 -0.9324 -0.4902
18721TIP3   OH277653   2.100   6.445  13.623  0.4260  0.6161 -0.0619
18721TIP3    H177654   2.135   6.365  13.663  2.1243  2.0359  1.4900
18721TIP3    H277655   2.014   6.455  13.663  0.6130  0.0982  0.4996
18722TIP3   OH277656   6.212   6.667  11.214 -0.4536  0.0087  0.5028
18722TIP3    H177657   6.229   6.757  11.185 -1.7800  0.3521  0.7463
18722TIP3    H277658   6.183   6.675  11.304  0.5135 -0.7846  0.9065
18723TIP3   OH277659   6.797   4.923   0.241  0.6093 -0.0744 -0.0336
18723TIP3    H177660   6.882   4.964   0.253  0.5802  0.1263 -0.5011
18723TIP3    H277661   6.773   4.892   0.328  1.8259 -1.4402 -0.1402
18724TIP3   OH277662   0.561   1.581  16.110  0.2604  0.3497 -0.5776
18724TIP3    H177663   0.623   1.626  16.167 -1.3475 -0.0095  1.6065
18724TIP3    H277664   0.498   1.649  16.085 -0.2624  0.0537 -0.0889
18725TIP3   OH277665   4.435   1.285  13.945 -0.0136 -0.1151 -0.5151
18725TIP3    H177666   4.525   1.273  13.917 -0.0559  0.4099 -0.8907
18725TIP3    H277667   4.437   1.272  14.040  0.7215  1.2711 -0.3163
18726TIP3   OH277668   0.521   0.801  15.430 -0.0107  0.1984 -0.0924
18726TIP3    H177669   0.594   0.783  15.489  0.2617 -2.1063 -1.0261
18726TIP3    H277670   0.553   0.775  15.344 -2.5581 -3.1613 -0.2391
18727TIP3   OH277671   5.726   6.323  16.982 -0.1410 -0.0636  0.4431
18727TIP3    H177672   5.636   6.348  17.003  0.1341  1.9287 -0.5109
18727TIP3    H277673   5.761   6.398  16.934  1.0123 -2.0894 -2.1174
18728TIP3   OH277674   4.820   3.469  13.448  0.6448 -0.3625  0.0585
18728TIP3    H177675   4.905   3.512  13.441  0.6503 -0.5060 -0.8019
18728TIP3    H277676   4.758   3.541  13.457  0.8055 -0.2335  0.1398
18729TIP3   OH277677   2.167   0.961  12.521  0.3714  0.1617  0.7962
18729TIP3    H177678   2.232   1.015  12.478 -1.4004  0.3856 -1.8365
18729TIP3    H277679   2.086   1.012  12.517 -0.4343 -0.9394  2.0687
18730TIP3   OH277680   5.717   4.045  15.065 -0.4258 -0.5589  0.3391
18730TIP3    H177681   5.773   4.043  15.142  1.1703 -0.3607 -0.7579
18730TIP3    H277682   5.692   4.137  15.056  0.7757 -0.2766 -0.3014
18731TIP3   OH277683   5.757   0.986   1.207 -0.0461 -0.5751 -0.4258
18731TIP3    H177684   5.687   1.041   1.171 -0.3177 -1.2800 -1.0138
18731TIP3    H277685   5.834   1.042   1.207 -0.6315  0.2671  0.3663
18732TIP3   OH277686   1.768   5.878   0.984 -0.4401 -0.4308 -0.1740
18732TIP3    H177687   1.819   5.838   1.054 -1.8741 -1.0530  0.5663
18732TIP3    H277688   1.682   5.895   1.024 -0.5780  1.3170 -1.1336
18733TIP3   OH277689   0.497   1.079   0.378 -0.5094 -0.6316  0.0309
18733TIP3    H177690   0.434   1.055   0.446  0.0454 -0.2360  0.7054
18733TIP3    H277691   0.583   1.060   0.417 -0.1150  0.9577  0.0244
18734TIP3   OH277692   0.200   2.052   5.098 -0.0244  0.3440  0.3134
18734TIP3    H177693   0.250   2.061   5.017 -1.4454  0.7914 -0.5601
18734TIP3    H277694   0.120   2.006   5.071  0.6218 -1.9575  1.9876
18735TIP3   OH277695   6.778   2.136  14.630  0.2780 -0.1114  0.2263
18735TIP3    H177696   6.808   2.109  14.717  0.7357  0.0566  0.1264
18735TIP3    H277697   6.762   2.055  14.583 -0.7377 -0.2146  0.7150
18736TIP3   OH277698   4.669   4.019   4.728 -0.0507  0.3996 -0.5414
18736TIP3    H177699   4.613   4.068   4.788  0.1557  1.2374 -1.0155
18736TIP3    H277700   4.679   4.077   4.652  0.1580 -0.4000 -1.1415
18737TIP3   OH277701   6.223   3.186  15.252 -0.4050  0.2740 -0.0052
18737TIP3    H177702   6.311   3.195  15.289 -0.9263  0.1441  1.3144
18737TIP3    H277703   6.164   3.202  15.325 -1.4899 -0.1558 -0.7526
18738TIP3   OH277704   5.556   0.851  11.716  0.0636 -0.0934 -0.3988
18738TIP3    H177705   5.566   0.928  11.773  1.5516 -0.5770  0.0438
18738TIP3    H277706   5.600   0.876  11.635  0.1941 -0.3351 -0.4019
18739TIP3   OH277707   0.063   3.345   2.226  0.6715  0.0619  0.7172
18739TIP3    H177708   0.071   3.418   2.288 -0.5258  0.3124  0.6036
18739TIP3    H277709   0.149   3.339   2.185  0.4028  2.3566 -0.3198
18740TIP3   OH277710   3.062   6.023  11.645 -0.3135  0.5899  0.0609
18740TIP3    H177711   3.053   5.929  11.662  2.1599 -0.2482 -2.4618
18740TIP3    H277712   3.047   6.031  11.551 -0.3800  2.7376  0.2130
18741TIP3   OH277713   2.779   4.943   3.565 -0.1501 -0.2209 -0.4058
18741TIP3    H177714   2.818   4.856   3.556 -1.3814 -0.8566  0.1224
18741TIP3    H277715   2.734   4.957   3.481  0.6104  0.2123 -0.7501
18742TIP3   OH277716   0.941   3.307  13.609 -0.6869 -0.0434  0.1996
18742TIP3    H177717   0.952   3.338  13.699 -1.5031  0.0829  0.2577
18742TIP3    H277718   1.001   3.362  13.558 -1.4419  1.0194  0.4312
18743TIP3   OH277719   5.692   2.728   0.043  0.5139  0.0025 -0.4665
18743TIP3    H177720   5.724   2.640   0.023 -0.0421 -0.9561  2.2892
18743TIP3    H277721   5.629   2.747  -0.027  0.1616 -2.1015 -0.8080
18744TIP3   OH277722   5.424   2.471   4.822 -0.2627  0.1884 -0.0819
18744TIP3    H177723   5.354   2.408   4.836  0.1324 -0.0407  1.0223
18744TIP3    H277724   5.448   2.500   4.911 -1.2062  2.7612 -0.5756
18745TIP3   OH277725   0.924   5.583   2.149  0.3471  0.0233 -0.0004
18745TIP3    H177726   0.943   5.631   2.229 -1.6544 -0.2229  0.6826
18745TIP3    H277727   1.010   5.554   2.117  1.2482  0.7987  1.6086
18746TIP3   OH277728   5.971   2.502  12.558  0.2167 -0.2697  0.0941
18746TIP3    H177729   5.875   2.503  12.556  0.0792 -1.3851  2.5545
18746TIP3    H277730   5.996   2.477  12.469 -1.8044 -1.0389 -0.3188
18747TIP3   OH277731   2.493   4.121  10.536  0.3199 -0.0129 -0.0942
18747TIP3    H177732   2.416   4.117  10.479  0.1049  0.7855  0.1230
18747TIP3    H277733   2.506   4.215  10.551  1.0989 -0.1614  0.1941
18748TIP3   OH277734   4.282   4.864   3.382  0.1287  0.2386 -0.0487
18748TIP3    H177735   4.243   4.849   3.296  1.2584  0.4227 -0.6173
18748TIP3    H277736   4.207   4.872   3.441 -0.7089 -3.4154 -0.3451
18749TIP3   OH277737   3.432   3.324  13.148 -0.1102 -0.0328  0.8265
18749TIP3    H177738   3.453   3.411  13.184 -0.3913  0.4569 -0.1592
18749TIP3    H277739   3.504   3.305  13.088 -1.9351  1.3381 -2.0310
18750TIP3   OH277740   1.769   6.473  14.480  0.4815 -0.0546 -0.7693
18750TIP3    H177741   1.789   6.427  14.399 -0.0814 -0.4609 -0.6832
18750TIP3    H277742   1.831   6.546  14.482  0.6017 -0.1287 -1.4871
18751TIP3   OH277743   1.986   6.567  13.381 -0.2620  0.0084 -0.4990
18751TIP3    H177744   1.975   6.501  13.312  1.2187 -1.0437  0.2253
18751TIP3    H277745   2.007   6.516  13.459 -0.4090  1.2741  0.3808
18752TIP3   OH277746   3.200   3.540  14.307  0.1544  0.4602  0.0948
18752TIP3    H177747   3.282   3.554  14.354  0.5830 -0.2056 -0.4357
18752TIP3    H277748   3.226   3.500  14.225 -0.9012 -2.4925  1.0804
18753TIP3   OH277749   2.273   5.682   0.682 -0.1414  0.0069 -0.2898
18753TIP3    H177750   2.365   5.668   0.704 -0.0227  0.0979 -0.7115
18753TIP3    H277751   2.231   5.705   0.764 -0.0673 -1.4361  0.1933
18754TIP3   OH277752   4.684   5.709   0.705  0.2122  0.3901  0.0394
18754TIP3    H177753   4.732   5.737   0.626 -0.7697  0.1001 -0.6851
18754TIP3    H277754   4.664   5.617   0.689 -2.6404  1.0501 -0.8322
18755TIP3   OH277755   6.297   2.956   5.800  0.7113  0.1039  0.0359
18755TIP3    H177756   6.356   3.016   5.754 -0.4907  1.4248  0.1713
18755TIP3    H277757   6.264   3.006   5.874 -0.3904 -0.6923  0.1099
18756TIP3   OH277758   3.761   3.566  11.995  0.7042 -0.8704  0.2924
18756TIP3    H177759   3.777   3.592  12.086  1.9678 -0.3511 -0.0469
18756TIP3    H277760   3.724   3.644  11.954 -0.7758 -1.4034  0.5660
18757TIP3   OH277761   5.793   2.100   2.390 -0.0628 -0.2948 -0.1398
18757TIP3    H177762   5.725   2.162   2.418  0.7900  1.3353 -1.4500
18757TIP3    H277763   5.833   2.070   2.472  1.1361  2.8835  0.6128
18758TIP3   OH277764   6.060   5.631   2.144 -0.1408 -0.1324  0.6203
18758TIP3    H177765   6.072   5.708   2.199 -4.1646 -0.3801  2.2565
18758TIP3    H277766   5.985   5.652   2.088 -0.2636 -2.1979 -0.1006
18759TIP3   OH277767   2.289   0.721   2.138 -0.2194 -0.2311 -0.0062
18759TIP3    H177768   2.264   0.787   2.072 -0.7337  0.1094  0.5177
18759TIP3    H277769   2.381   0.702   2.119 -0.2747  0.0885 -0.6338
18760TIP3   OH277770   2.026   1.123   1.055  0.1783 -0.2977 -0.5811
18760TIP3    H177771   2.061   1.130   0.966 -0.2074  1.7760 -0.6143
18760TIP3    H277772   1.934   1.099   1.043  0.3238 -0.8062 -0.6999
18761TIP3   OH277773   4.197   0.635   2.890 -0.1461  0.1544 -0.3561
18761TIP3    H177774   4.173   0.727   2.887  3.7389  1.3709 -0.6044
18761TIP3    H277775   4.193   0.612   2.983  0.2019  1.0433 -0.1086
18762TIP3   OH277776   4.245   0.743  15.083 -0.3304  0.0394  0.2763
18762TIP3    H177777   4.156   0.759  15.053 -0.3170 -0.8560 -0.2528
18762TIP3    H277778   4.237   0.674  15.149  0.1422 -1.3216 -1.0392
18763TIP3   OH277779   5.171   6.123  15.927  0.7443  0.2358  0.4807
18763TIP3    H177780   5.234   6.068  15.882  1.0463  0.5612  0.5046
18763TIP3    H277781   5.207   6.211  15.921 -0.0229  0.5306 -0.0820
18764TIP3   OH277782   3.763   4.186  11.123 -0.0466 -0.1208 -0.1620
18764TIP3    H177783   3.716   4.265  11.097 -0.1518  0.1441  0.7649
18764TIP3    H277784   3.840   4.218  11.171  0.7258 -0.5631 -1.0793
18765TIP3   OH277785   1.271   5.252   4.374  0.6402 -0.6524 -0.0321
18765TIP3    H177786   1.233   5.278   4.458 -1.1143  1.7540 -1.4306
18765TIP3    H277787   1.206   5.191   4.337  0.1224  0.2774 -0.6870
18766TIP3   OH277788   1.528   3.590   5.528 -0.6972 -0.0462 -0.1591
18766TIP3    H177789   1.570   3.626   5.606 -2.9676  1.5505  0.4138
18766TIP3    H277790   1.552   3.650   5.458  1.9150 -1.8572 -0.9532
18767TIP3   OH277791   3.805   0.259   5.574 -0.3371 -0.2759  0.3831
18767TIP3    H177792   3.778   0.351   5.568  0.3030 -0.0821  0.3010
18767TIP3    H277793   3.789   0.224   5.486 -0.9093 -0.3401  0.5106
18768TIP3   OH277794   1.792   2.392   2.475  0.6754 -0.0017 -0.2434
18768TIP3    H177795   1.795   2.300   2.450  0.2949  0.6607 -3.0663
18768TIP3    H277796   1.823   2.439   2.398 -0.3228  2.3031  0.6654
18769TIP3   OH277797   1.745   1.463  12.450  0.1167 -0.6120  0.0444
18769TIP3    H177798   1.671   1.419  12.491 -1.9154  1.3034 -1.3049
18769TIP3    H277799   1.745   1.551  12.488  0.4176  0.0508 -1.4134
18770TIP3   OH277800   0.406   0.112   0.103  0.1894 -0.5838 -0.4048
18770TIP3    H177801   0.370   0.167   0.034 -0.3516  1.0698  1.1058
18770TIP3    H277802   0.360   0.140   0.182  2.6261 -0.5253  1.0856
18771TIP3   OH277803   0.677   3.234   3.484  0.7407 -0.4058  0.2961
18771TIP3    H177804   0.741   3.187   3.536 -0.6377 -1.1234  1.4026
18771TIP3    H277805   0.594   3.190   3.502  0.0892 -0.2422 -1.9753
18772TIP3   OH277806   5.335   4.204  12.422  0.2099  0.3418 -0.5620
18772TIP3    H177807   5.345   4.168  12.510  0.8488  0.2079 -0.6847
18772TIP3    H277808   5.413   4.174  12.374  0.1201  0.8249 -1.0288
18773TIP3   OH277809   2.231   4.384  16.245 -0.2300 -0.2266  0.0960
18773TIP3    H177810   2.254   4.429  16.164 -2.0534 -1.6418 -1.3165
18773TIP3    H277811   2.272   4.298  16.238  0.6200  0.0513  1.2944
18774TIP3   OH277812   3.052   3.768  15.907 -0.2854 -0.3437 -0.1193
18774TIP3    H177813   3.003   3.689  15.930 -0.4505  0.1425  1.3302
18774TIP3    H277814   3.025   3.833  15.973 -0.8093  1.1976 -1.7612
18775TIP3   OH277815   2.184   3.996   0.169  0.0714  0.6582 -0.2519
18775TIP3    H177816   2.214   4.086   0.178 -1.1912  1.1589 -0.8792
18775TIP3    H277817   2.193   3.977   0.076  3.7909 -1.1619  0.2788
18776TIP3   OH277818   1.962   0.349   4.114  0.6416  0.3642 -0.3510
18776TIP3    H177819   2.056   0.366   4.123  0.7804  0.5068 -1.8694
18776TIP3    H277820   1.921   0.433   4.136  0.5340 -0.5526  4.0092
18777TIP3   OH277821   5.738   2.534  14.899 -0.1836 -0.2615  0.6779
18777TIP3    H177822   5.675   2.545  14.971  1.6101 -1.8495  2.6148
18777TIP3    H277823   5.779   2.620  14.889 -0.0532 -0.1507  1.9935
18778TIP3   OH277824   6.346   5.642   3.634  0.0027  0.9482  0.8024
18778TIP3    H177825   6.258   5.611   3.615  0.3053 -0.1050  1.0441
18778TIP3    H277826   6.379   5.675   3.551 -0.3037  0.5120  0.5025
18779TIP3   OH277827   1.992   2.607  15.278  0.0966 -0.0214  0.7077
18779TIP3    H177828   1.942   2.545  15.331  2.2664 -1.3757  1.3096
18779TIP3    H277829   2.053   2.648  15.341  1.0349  0.1615 -0.2920
18780TIP3   OH277830   0.592   4.221  11.165 -0.2335  0.0664 -0.3604
18780TIP3    H177831   0.520   4.174  11.207  0.4225 -1.5619 -0.9864
18780TIP3    H277832   0.550   4.280  11.103 -1.0763  0.4268  0.5156
18781TIP3   OH277833   5.215   0.221   4.487 -0.4422  0.4670  0.0147
18781TIP3    H177834   5.138   0.277   4.475  0.7323  1.9845 -0.8852
18781TIP3    H277835   5.191   0.162   4.558 -2.6754  0.4356 -0.6899
18782TIP3   OH277836   2.574   6.345  13.827  0.2488  0.3049 -0.5016
18782TIP3    H177837   2.564   6.297  13.909  0.2648 -0.2141 -0.8028
18782TIP3    H277838   2.522   6.424  13.840  1.4744  0.9874  0.5909
18783TIP3   OH277839   5.538   6.499   0.008 -0.0529 -0.2572 -0.3121
18783TIP3    H177840   5.495   6.436  -0.049 -0.4827 -0.0513 -0.2174
18783TIP3    H277841   5.471   6.566   0.025 -0.2572 -0.8288  1.2561
18784TIP3   OH277842   6.145   6.471   5.405 -0.0450  0.1859 -0.3097
18784TIP3    H177843   6.177   6.433   5.487  0.8357 -0.3655 -0.8920
18784TIP3    H277844   6.146   6.566   5.420  2.8481  0.2815 -0.6065
18785TIP3   OH277845   2.291   4.699  13.787 -0.1133  0.5327 -0.2453
18785TIP3    H177846   2.309   4.605  13.794  2.2696  1.0247  1.5014
18785TIP3    H277847   2.220   4.705  13.723 -0.3565 -2.4361 -0.3996
18786TIP3   OH277848   2.117   5.589  13.175  0.4172  0.2311  0.1176
18786TIP3    H177849   2.055   5.566  13.105 -1.8264 -0.0648  2.0862
18786TIP3    H277850   2.151   5.505  13.205  0.6017  0.2926  0.0830
18787TIP3   OH277851   2.802   6.688   5.472 -0.3714 -0.2468  0.4244
18787TIP3    H177852   2.756   6.605   5.483  0.2702 -0.3444  2.9835
18787TIP3    H277853   2.866   6.690   5.543  1.7663  1.0880 -1.4246
18788TIP3   OH277854   2.288   6.408   0.464  0.3283 -0.3962 -0.5988
18788TIP3    H177855   2.223   6.374   0.525  0.3066  0.3250 -0.2068
18788TIP3    H277856   2.310   6.334   0.408 -0.9897 -0.5829 -0.8822
18789TIP3   OH277857   3.169   3.344   4.847  0.1731  0.4678 -0.1982
18789TIP3    H177858   3.118   3.334   4.927  1.7034  0.4129  0.8201
18789TIP3    H277859   3.252   3.299   4.866  0.1071 -0.6756 -2.2823
18790TIP3   OH277860   6.605   5.239   6.073 -0.0050 -0.5960  0.1971
18790TIP3    H177861   6.585   5.325   6.035 -0.3102 -0.5673  0.4191
18790TIP3    H277862   6.561   5.240   6.159  0.2871 -0.8378  0.3508
18791TIP3   OH277863   2.279   2.541   0.656  0.2537 -0.6077  0.5109
18791TIP3    H177864   2.325   2.577   0.580  0.9565  1.5068  1.8467
18791TIP3    H277865   2.342   2.550   0.728 -1.6180  0.9282  2.0727
18792TIP3   OH277866   0.113   4.774  13.657 -0.2347  0.2638 -0.3041
18792TIP3    H177867   0.140   4.720  13.583  1.6981 -0.3404  0.7781
18792TIP3    H277868   0.052   4.837  13.619  1.7247  0.8910 -2.7228
18793TIP3   OH277869   1.535   1.915   0.271  0.4102 -0.5425  0.3094
18793TIP3    H177870   1.442   1.902   0.285  0.1323 -0.9557 -1.6918
18793TIP3    H277871   1.552   2.004   0.303 -0.6002 -0.5641  0.9260
18794TIP3   OH277872   0.154   5.748   1.025 -0.3933  0.1077  0.1522
18794TIP3    H177873   0.160   5.671   0.968 -0.8395 -0.4338  0.8017
18794TIP3    H277874   0.073   5.791   0.999  0.1493  0.6843 -0.5965
18795TIP3   OH277875   5.438   2.117  13.302  0.5019 -0.2099 -0.3539
18795TIP3    H177876   5.423   2.037  13.250 -0.8509  0.1096 -0.5136
18795TIP3    H277877   5.442   2.187  13.237 -2.1315  0.3195 -0.0723
18796TIP3   OH277878   4.186   0.386  15.612  0.5068 -0.2204 -0.1957
18796TIP3    H177879   4.110   0.351  15.659  0.5645  1.4477  1.2872
18796TIP3    H277880   4.158   0.389  15.520 -1.7087  1.3909  0.4349
18797TIP3   OH277881   1.196   3.119  15.188  0.0255 -0.7108 -0.4024
18797TIP3    H177882   1.150   3.085  15.265 -1.4271  0.9142 -0.4810
18797TIP3    H277883   1.133   3.178  15.147  0.9819 -1.0868 -2.5346
18798TIP3   OH277884   1.773   6.278  16.075  0.7985  0.1397 -0.0158
18798TIP3    H177885   1.847   6.222  16.049 -0.1009 -0.6584 -0.9200
18798TIP3    H277886   1.697   6.237  16.036 -0.0362  1.4187  0.2145
18799TIP3   OH277887   4.517   6.451   3.647  0.0991 -0.0627  0.1512
18799TIP3    H177888   4.431   6.487   3.669  0.8941  1.6042  0.6641
18799TIP3    H277889   4.569   6.465   3.726  1.5546  1.3127 -1.0003
18800TIP3   OH277890   0.837   0.171  15.989  0.0044 -0.2349  0.2476
18800TIP3    H177891   0.915   0.116  15.975 -1.2942 -1.8920 -0.8341
18800TIP3    H277892   0.797   0.178  15.903 -0.9209  0.8137  0.7420
18801TIP3   OH277893   5.747   6.657   1.323 -0.0106 -0.2338  0.2047
18801TIP3    H177894   5.815   6.591   1.315  0.3990  0.3908 -2.4354
18801TIP3    H277895   5.675   6.613   1.369  0.0763 -2.7147 -1.8231
18802TIP3   OH277896   3.440   2.286   3.066 -0.2505 -0.1234  0.3262
18802TIP3    H177897   3.353   2.304   3.032  0.3145  0.3615 -0.9592
18802TIP3    H277898   3.460   2.197   3.037  0.6469  0.6609 -1.6465
18803TIP3   OH277899   1.453   1.140   2.376 -0.0207  0.0190  0.4720
18803TIP3    H177900   1.448   1.230   2.406  0.0555  0.5750 -1.0851
18803TIP3    H277901   1.454   1.088   2.456 -0.5664  1.3653  1.3919
18804TIP3   OH277902   2.646   3.167   0.443  0.5589 -0.5136 -0.7495
18804TIP3    H177903   2.580   3.170   0.513  1.0310 -0.2050 -0.3104
18804TIP3    H277904   2.718   3.117   0.480  0.7768 -0.4231 -1.0530
18805TIP3   OH277905   0.508   0.346  15.640 -0.0603  0.1995  0.3257
18805TIP3    H177906   0.467   0.414  15.694 -1.2414 -1.2414  1.3190
18805TIP3    H277907   0.435   0.297  15.603  0.7667 -0.3579 -0.6223
18806TIP3   OH277908   0.327   6.436  12.876  0.1122  0.5258  0.3277
18806TIP3    H177909   0.289   6.348  12.871  2.6525 -0.6196 -0.5774
18806TIP3    H277910   0.268   6.484  12.934 -2.8151 -0.9452 -1.2232
18807TIP3   OH277911   4.815   6.057  14.133 -0.8313  0.1558  0.1711
18807TIP3    H177912   4.844   6.115  14.204 -0.3974  1.3573 -0.9373
18807TIP3    H277913   4.852   5.972  14.155  0.4655  0.8241  0.6947
18808TIP3   OH277914   6.618   2.373  14.822  0.3937 -0.3979  0.1586
18808TIP3    H177915   6.534   2.364  14.866  1.2035  0.5965  1.9738
18808TIP3    H277916   6.669   2.297  14.851  0.0389 -1.2051 -1.2298
18809TIP3   OH277917   2.678   5.219  17.053 -0.2794  0.1166  0.6754
18809TIP3    H177918   2.715   5.208  16.965 -0.2687 -1.3225  0.8359
18809TIP3    H277919   2.706   5.306  17.080  0.1385  0.3843 -0.5498
18810TIP3   OH277920   1.293   2.627   5.106  0.6228 -0.3717  0.6381
18810TIP3    H177921   1.302   2.581   5.189 -0.6497  0.6810  1.3905
18810TIP3    H277922   1.339   2.571   5.043  0.4450 -1.8729  1.7789
18811TIP3   OH277923   0.060   1.654   4.939  0.4982 -0.0229  0.3608
18811TIP3    H177924   0.155   1.645   4.951  0.4102 -1.4616  0.1659
18811TIP3    H277925   0.041   1.608   4.857 -0.4998 -0.8138  0.9954
18812TIP3   OH277926   4.631   3.993   4.099  0.6296 -0.1901 -0.3756
18812TIP3    H177927   4.680   3.968   4.020  0.8478 -1.0866  0.0354
18812TIP3    H277928   4.540   3.974   4.077  0.4494  1.3211 -1.0785
18813TIP3   OH277929   3.958   2.280  13.601  0.4535 -0.1168 -0.0961
18813TIP3    H177930   3.937   2.213  13.536  1.7552  0.8061 -1.5376
18813TIP3    H277931   4.046   2.258  13.630  0.1155 -0.1644  0.9164
18814TIP3   OH277932   4.637   5.431   3.829  0.5105  0.1465 -0.6485
18814TIP3    H177933   4.673   5.391   3.907 -2.0809  0.7798  1.0194
18814TIP3    H277934   4.620   5.522   3.854  0.5930  0.6646 -2.3190
18815TIP3   OH277935   1.839   4.270  13.760  0.9722  0.3455 -0.4591
18815TIP3    H177936   1.927   4.302  13.781  0.7140  0.3984  0.6267
18815TIP3    H277937   1.828   4.193  13.816  2.1542 -2.7259 -4.0490
18816TIP3   OH277938   0.268   0.105  15.291  0.0348  0.2045 -0.4477
18816TIP3    H177939   0.331   0.165  15.252  2.0898 -1.0090  0.7945
18816TIP3    H277940   0.243   0.046  15.220  2.2673 -0.8081 -0.4957
18817TIP3   OH277941   6.369   2.586   1.799 -0.1154 -0.5322  0.2441
18817TIP3    H177942   6.410   2.519   1.744 -0.7591 -1.3464  0.7329
18817TIP3    H277943   6.436   2.654   1.807  0.1772 -0.6255 -1.1079
18818TIP3   OH277944   3.837   0.133  14.418  0.8399 -0.2753  0.2106
18818TIP3    H177945   3.776   0.059  14.415  0.4389  0.0701 -0.5080
18818TIP3    H277946   3.878   0.132  14.332 -0.8641  1.7123 -0.7144
18819TIP3   OH277947   6.350   3.721   3.964  0.3665 -0.1982  0.2405
18819TIP3    H177948   6.417   3.699   4.029 -0.1761 -1.9100  0.2761
18819TIP3    H277949   6.305   3.638   3.948 -0.3167  0.4624 -1.4118
18820TIP3   OH277950   4.141   0.048   1.197 -0.3500  0.0990  0.1689
18820TIP3    H177951   4.145  -0.045   1.177  3.5967 -0.4281  2.3713
18820TIP3    H277952   4.125   0.052   1.291  3.0287  1.2635  0.8694
18821TIP3   OH277953   4.706   4.692   3.143 -0.1125 -0.5151 -0.5314
18821TIP3    H177954   4.617   4.726   3.152  0.0646  0.2147 -1.3718
18821TIP3    H277955   4.722   4.690   3.049  1.1896  0.5700 -0.3746
18822TIP3   OH277956   4.536   5.779  16.601 -0.0218 -0.0558 -0.0484
18822TIP3    H177957   4.470   5.845  16.621 -1.9040 -2.0148  0.6288
18822TIP3    H277958   4.548   5.730  16.682  2.8300  0.6064  0.0449
18823TIP3   OH277959   4.931   1.376  11.664  0.6472 -0.2825  0.5716
18823TIP3    H177960   4.920   1.284  11.637  0.1519  0.1478 -0.7546
18823TIP3    H277961   5.021   1.397  11.641  0.5132 -0.2000  0.1117
18824TIP3   OH277962   6.469   5.677  13.990  0.1707 -0.0168  0.4936
18824TIP3    H177963   6.528   5.674  13.915 -0.1612  2.5449  0.0247
18824TIP3    H277964   6.387   5.710  13.954 -0.4624 -0.2032  1.7252
18825TIP3   OH277965   5.654   0.231  12.016  0.1503  0.0139 -0.0503
18825TIP3    H177966   5.642   0.273  12.101  0.7763 -2.7127  1.4852
18825TIP3    H277967   5.604   0.150  12.021  0.5488 -0.4206 -2.1360
18826TIP3   OH277968   0.424   2.789  12.204  0.4359 -0.2705  0.0684
18826TIP3    H177969   0.330   2.774  12.205  0.4658 -0.5008  1.5760
18826TIP3    H277970   0.435   2.867  12.150 -0.6415 -0.1106  0.0548
18827TIP3   OH277971   0.072   4.022  11.502 -0.6387  0.3597 -0.9737
18827TIP3    H177972   0.049   4.109  11.534 -0.2762  0.2987 -0.5394
18827TIP3    H277973   0.039   3.961  11.568  2.3138  0.3455  0.6808
18828TIP3   OH277974   2.627   2.031  10.564 -0.2063  0.0390  0.3838
18828TIP3    H177975   2.665   2.026  10.476  0.0946  0.7274  0.4674
18828TIP3    H277976   2.545   2.080  10.553  0.2373  0.8534  0.6025
18829TIP3   OH277977   0.443   0.306  12.847 -0.0792 -0.5966  0.4941
18829TIP3    H177978   0.427   0.312  12.942  0.9529  3.7123  0.5963
18829TIP3    H277979   0.361   0.273  12.811 -1.9990  1.5235  2.6057
18830TIP3   OH277980   1.528   6.608  12.285  0.2491  0.8980  0.3127
18830TIP3    H177981   1.508   6.516  12.300 -0.0777  0.7010 -1.2139
18830TIP3    H277982   1.445   6.646  12.256  0.2799  1.7759  1.3062
18831TIP3   OH277983   6.319   4.894  11.473 -0.4992 -0.2845  0.1913
18831TIP3    H177984   6.282   4.867  11.557 -2.3928 -0.0418 -0.5090
18831TIP3    H277985   6.243   4.918  11.420  0.7145  0.5984 -1.2422
18832TIP3   OH277986   3.021   1.685  14.625  0.1296  0.3188  0.4350
18832TIP3    H177987   2.993   1.771  14.657  1.1766  1.0622 -0.5488
18832TIP3    H277988   3.006   1.689  14.531  0.4756 -0.4727  0.3428
18833TIP3   OH277989   5.292   0.655   2.693  0.3057 -0.0304  0.0549
18833TIP3    H177990   5.212   0.695   2.728  1.0916  1.3313  0.3598
18833TIP3    H277991   5.353   0.727   2.685  1.2964 -0.9384 -0.8364
18834TIP3   OH277992   3.823   5.279  12.616  0.0242  0.0322 -0.2574
18834TIP3    H177993   3.817   5.321  12.530 -3.8543 -0.0606 -0.2371
18834TIP3    H277994   3.806   5.186  12.598  0.3453 -0.1678  0.4793
18835TIP3   OH277995   3.011   1.744   6.011 -0.2095  0.5165 -0.1398
18835TIP3    H177996   2.922   1.723   5.985 -0.6386  1.1759  0.7373
18835TIP3    H277997   3.034   1.679   6.077  0.5843 -0.6621 -1.5182
18836TIP3   OH277998   3.765   6.732   3.987  0.0950  0.2551 -0.4092
18836TIP3    H177999   3.787   6.720   4.079 -2.6202  0.5981  0.3713
18836TIP3    H278000   3.752   6.644   3.953 -1.2262  0.1967  0.2057
18837TIP3   OH278001   5.726   6.596   2.890 -0.2234 -0.3984  0.1313
18837TIP3    H178002   5.736   6.691   2.896  3.4599 -0.7484  1.9162
18837TIP3    H278003   5.676   6.583   2.809  0.5573  2.9725 -1.0716
18838TIP3   OH278004   0.696   3.998  14.545 -0.0786  0.1197  0.7051
18838TIP3    H178005   0.779   3.997  14.592 -0.0735  0.3531  0.7010
18838TIP3    H278006   0.664   3.908  14.552  0.5953 -0.1927 -0.0327
18839TIP3   OH278007   5.261   3.333   2.883 -0.2774 -0.1685  0.4815
18839TIP3    H178008   5.292   3.245   2.905  2.0016  0.8135  1.4951
18839TIP3    H278009   5.338   3.388   2.892 -1.6475  1.9505 -0.1828
18840TIP3   OH278010   5.580   4.738  10.882  0.4857  0.0594 -0.2845
18840TIP3    H178011   5.653   4.743  10.820  0.7215  1.8202  0.0940
18840TIP3    H278012   5.592   4.813  10.940 -1.3212  0.0810  0.1314
18841TIP3   OH278013   3.715   5.257  15.680  0.7813 -0.0924 -0.3007
18841TIP3    H178014   3.725   5.260  15.585  0.0430  2.3107 -0.3684
18841TIP3    H278015   3.620   5.252  15.694  0.8980 -0.6779  0.3045
18842TIP3   OH278016   4.332   3.696   4.310 -0.5186  0.0677  0.2016
18842TIP3    H178017   4.397   3.703   4.240  0.0890  2.0758  0.8807
18842TIP3    H278018   4.300   3.606   4.305  3.3293 -1.5270  0.7408
18843TIP3   OH278019   5.274   0.536  13.015 -0.0876  0.2488  0.1990
18843TIP3    H178020   5.239   0.501  12.933 -3.8370  1.8761  0.8736
18843TIP3    H278021   5.329   0.466  13.050  0.5783 -0.9896 -3.0054
18844TIP3   OH278022   5.539   5.014   0.438  0.1929  0.1866  0.1589
18844TIP3    H178023   5.591   5.000   0.517  0.7182 -0.2508 -0.2611
18844TIP3    H278024   5.571   4.950   0.376  0.2712  0.9954 -0.6574
18845TIP3   OH278025   3.444   0.402   5.756  0.0420 -0.9047 -0.1636
18845TIP3    H178026   3.391   0.341   5.706 -0.1223 -1.5407  0.7564
18845TIP3    H278027   3.518   0.350   5.786 -0.5819 -0.9189  1.4309
18846TIP3   OH278028   0.276   3.884   3.396  0.7422  0.2138 -0.3222
18846TIP3    H178029   0.276   3.810   3.335 -1.0397 -0.6908  0.7200
18846TIP3    H278030   0.321   3.851   3.474 -0.5227  0.0312  0.3457
18847TIP3   OH278031   2.754   2.613  11.228 -0.0657 -0.2371  0.0338
18847TIP3    H178032   2.745   2.650  11.315 -0.7557  0.0790 -0.1654
18847TIP3    H278033   2.847   2.588  11.222  0.2000  0.5954  0.5071
18848TIP3   OH278034   1.129   3.723  15.494  0.0682 -0.6477 -0.0418
18848TIP3    H178035   1.185   3.796  15.467 -1.5323  0.9297  0.6109
18848TIP3    H278036   1.132   3.725  15.590 -1.1994 -0.3702  0.0226
18849TIP3   OH278037   0.337   4.983   1.980 -0.1387  0.4403 -0.0735
18849TIP3    H178038   0.417   5.012   2.025 -0.7434  1.6305  0.2749
18849TIP3    H278039   0.363   4.975   1.888 -0.2583  3.7748 -0.5349
18850TIP3   OH278040   1.262   5.331   4.647 -0.3358  0.1751  0.7914
18850TIP3    H178041   1.232   5.391   4.716 -0.6102  1.3911 -0.3405
18850TIP3    H278042   1.346   5.367   4.619 -0.2378 -0.2991  0.4621
18851TIP3   OH278043   5.882   3.196   1.750  0.1147  0.1275  0.3364
18851TIP3    H178044   5.903   3.165   1.662 -1.1688 -1.5241  0.5578
18851TIP3    H278045   5.965   3.193   1.797  0.3614 -1.5511 -0.1261
18852TIP3   OH278046   5.470   2.818   2.297  0.4750 -0.3572  0.0145
18852TIP3    H178047   5.512   2.761   2.361  2.6452 -0.8017 -1.6696
18852TIP3    H278048   5.517   2.900   2.302  0.4689 -0.2931 -0.7773
18853TIP3   OH278049   0.382   1.513   2.855 -0.2575  0.3139 -0.2757
18853TIP3    H178050   0.353   1.543   2.941  1.2238 -0.6895  0.6228
18853TIP3    H278051   0.409   1.593   2.810  0.7028  0.6915  0.9075
18854TIP3   OH278052   2.576   6.165   0.762  0.0753 -0.4030  0.1611
18854TIP3    H178053   2.514   6.239   0.759  0.4872  0.0997  2.2106
18854TIP3    H278054   2.662   6.205   0.750  0.1752 -0.8082 -0.5168
18855TIP3   OH278055   4.299   1.188   4.600  0.3397  0.4467 -0.6468
18855TIP3    H178056   4.385   1.221   4.626 -0.2514  1.1836  0.4444
18855TIP3    H278057   4.273   1.242   4.525 -0.4718  2.3260  0.9088
18856TIP3   OH278058   4.508   0.198   5.952  0.1425 -0.3947  0.0288
18856TIP3    H178059   4.555   0.187   5.869  0.7563  1.2589  0.1116
18856TIP3    H278060   4.530   0.287   5.980 -1.6859 -0.1898  0.9556
18857TIP3   OH278061   2.833   0.781   2.962  0.0383  0.1041 -0.3300
18857TIP3    H178062   2.901   0.714   2.957  0.5522  0.4032  1.8402
18857TIP3    H278063   2.775   0.761   2.888  1.8735 -0.7964 -1.6107
18858TIP3   OH278064   0.032   6.198  11.864  0.0250  0.1254  0.1370
18858TIP3    H178065   0.067   6.286  11.872  0.0484  0.0872  0.4611
18858TIP3    H278066  -0.062   6.208  11.881 -0.3824  0.4461 -2.0754
18859TIP3   OH278067   6.132   1.006   4.612  0.0647  0.1436  0.0134
18859TIP3    H178068   6.212   1.010   4.559  1.2672  0.2160  1.7777
18859TIP3    H278069   6.156   0.954   4.688 -1.6057  0.1281  0.5662
18860TIP3   OH278070   2.300   6.672   1.138 -0.3965 -1.2958 -0.7189
18860TIP3    H178071   2.373   6.715   1.093 -0.9133 -0.6644 -0.9565
18860TIP3    H278072   2.343   6.614   1.201  0.3706  1.7648  1.8141
18861TIP3   OH278073   0.201   4.258  16.511 -0.0294  0.7897  0.2417
18861TIP3    H178074   0.129   4.275  16.573 -0.0862 -0.7355  0.6339
18861TIP3    H278075   0.169   4.292  16.428 -1.7335 -0.8635  0.1546
18862TIP3   OH278076   2.337   6.754   1.477  0.2145 -0.0272  0.2293
18862TIP3    H178077   2.384   6.691   1.532 -0.2439 -0.5379  0.0468
18862TIP3    H278078   2.302   6.819   1.538  1.6216  0.6804  0.3204
18863TIP3   OH278079   3.590   4.570   4.781  0.3604  0.0953 -0.1837
18863TIP3    H178080   3.625   4.642   4.834 -0.0009 -0.4573  0.8259
18863TIP3    H278081   3.501   4.598   4.758 -0.3238 -0.6066  1.4261
18864TIP3   OH278082   3.289   3.375   5.249  0.4483 -0.3525  0.0911
18864TIP3    H178083   3.325   3.320   5.179  2.4073  0.3491  0.4828
18864TIP3    H278084   3.302   3.324   5.329  0.7664 -0.0164  0.2577
18865TIP3   OH278085   3.420   3.298   3.948 -0.4352  0.0418 -0.6532
18865TIP3    H178086   3.447   3.295   3.856 -2.4461 -0.6283 -1.2610
18865TIP3    H278087   3.340   3.350   3.948 -1.4693 -1.4864  0.4454
18866TIP3   OH278088   1.187   1.654  10.373  0.0828 -0.0325 -0.6177
18866TIP3    H178089   1.129   1.679  10.301 -2.1700 -0.7298  0.8758
18866TIP3    H278090   1.219   1.738  10.407  1.2207  0.3108 -2.3811
18867TIP3   OH278091   0.363   0.605   2.932  0.1532 -0.1730 -0.3969
18867TIP3    H178092   0.409   0.556   3.001 -0.1941 -1.5384 -1.0904
18867TIP3    H278093   0.410   0.688   2.925  0.9244 -0.4999  0.6503
18868TIP3   OH278094   0.216   0.204  11.899  0.3512 -0.0268  0.4869
18868TIP3    H178095   0.275   0.171  11.967 -0.0593 -1.5066  0.1730
18868TIP3    H278096   0.135   0.153  11.911 -0.5321  1.2815  0.3048
18869TIP3   OH278097   5.445   3.530   1.958  0.1225  0.1629 -0.4335
18869TIP3    H178098   5.382   3.584   1.910 -0.2627  0.8366  0.7835
18869TIP3    H278099   5.416   3.440   1.943 -0.3969  0.4001 -0.8967
18870TIP3   OH278100   2.316   5.837   1.458  0.2174  0.2520 -0.3955
18870TIP3    H178101   2.284   5.755   1.496  0.7998  0.2795  0.1592
18870TIP3    H278102   2.404   5.848   1.494  0.1359  1.1321 -0.4497
18871TIP3   OH278103   4.518   5.682  16.889  0.0027 -0.3051  0.1576
18871TIP3    H178104   4.573   5.759  16.905  2.1477 -1.2456 -2.0416
18871TIP3    H278105   4.550   5.617  16.951  0.8093 -0.5527 -0.4906
18872TIP3   OH278106   4.404   0.380  14.973  0.4492 -0.6082 -0.0528
18872TIP3    H178107   4.372   0.298  14.935 -1.3591 -0.2769  0.6029
18872TIP3    H278108   4.408   0.362  15.067 -0.0915  0.0823  0.1105
18873TIP3   OH278109   0.628   0.032  12.169  0.3049 -0.6208 -0.1568
18873TIP3    H178110   0.697  -0.034  12.173  0.6252 -0.3140 -0.6027
18873TIP3    H278111   0.668   0.112  12.204  0.8534  0.1253 -2.3591
18874TIP3   OH278112   0.583   4.144   0.014 -0.0570  0.1011  0.5743
18874TIP3    H178113   0.548   4.062  -0.020  1.0873 -0.8191  1.5140
18874TIP3    H278114   0.505   4.197   0.034 -0.8103  0.4604 -2.7033
18875TIP3   OH278115   3.730   4.482  10.701 -0.3858  0.4089  0.4160
18875TIP3    H178116   3.684   4.437  10.631  2.5835 -1.7047 -0.3631
18875TIP3    H278117   3.762   4.413  10.758  1.3132  1.7419  1.1888
18876TIP3   OH278118   1.408   5.304  12.910 -0.0515  0.0379 -0.6780
18876TIP3    H178119   1.483   5.262  12.951 -0.6589 -0.4390 -0.0488
18876TIP3    H278120   1.403   5.264  12.823 -0.3261 -0.8315 -0.2643
18877TIP3   OH278121   4.540   2.478   2.749 -0.0443  0.2648 -0.8188
18877TIP3    H178122   4.509   2.387   2.755 -1.0857  0.5317 -1.8059
18877TIP3    H278123   4.563   2.489   2.657  1.2844  0.6412 -0.4551
18878TIP3   OH278124   5.544   5.847   2.981  0.3670  1.1365  0.6071
18878TIP3    H178125   5.549   5.913   3.050  2.5107  1.5487  0.1522
18878TIP3    H278126   5.580   5.767   3.021  0.3739  1.0072  0.3472
18879TIP3   OH278127   5.741   3.507   2.564 -0.8123 -0.6978 -0.0344
18879TIP3    H178128   5.774   3.449   2.632 -1.7093 -0.5595  0.5346
18879TIP3    H278129   5.802   3.581   2.564 -0.3014 -1.1079 -0.0051
18880TIP3   OH278130   1.115   1.939  15.217  0.7306  0.7720  0.6806
18880TIP3    H178131   1.115   2.018  15.272 -1.9834  1.8975 -0.7316
18880TIP3    H278132   1.024   1.930  15.189  1.5833 -1.0182 -1.8555
18881TIP3   OH278133   6.507   0.487  15.390  0.2607  0.2188 -0.0475
18881TIP3    H178134   6.416   0.482  15.418  0.2957 -1.7624 -0.1327
18881TIP3    H278135   6.541   0.567  15.431 -1.0692  0.1244  1.3100
18882TIP3   OH278136   4.130   3.699  16.827  0.4786  0.7153 -0.3767
18882TIP3    H178137   4.202   3.739  16.876  0.3242  0.8937 -0.2937
18882TIP3    H278138   4.135   3.740  16.741 -0.7969  2.2877  0.2460
18883TIP3   OH278139   1.109   4.075  12.813  0.2435  0.0252  0.1866
18883TIP3    H178140   1.109   4.035  12.900  0.2318  0.6416  0.4782
18883TIP3    H278141   1.199   4.063  12.781 -0.4377 -2.8883 -1.0162
18884TIP3   OH278142   0.685   5.077   0.018 -0.0180 -0.3924  0.5257
18884TIP3    H178143   0.750   5.008   0.006  0.3295 -0.2077  1.2745
18884TIP3    H278144   0.670   5.112  -0.070  0.0398 -1.2022  0.1894
18885TIP3   OH278145   1.241   6.023   3.157  0.9598 -0.3210  0.1266
18885TIP3    H178146   1.168   6.084   3.154  1.2664  0.0139 -0.8779
18885TIP3    H278147   1.225   5.963   3.084  2.0237  0.1776 -0.5496
18886TIP3   OH278148   6.041   0.447  10.656 -0.1273  0.3496  0.6669
18886TIP3    H178149   6.098   0.432  10.581 -0.8969  1.0694 -0.0690
18886TIP3    H278150   6.026   0.541  10.657  0.4282  0.4459  2.1436
18887TIP3   OH278151   2.469   5.343  15.920 -0.1378  0.4506 -0.4225
18887TIP3    H178152   2.458   5.364  16.013 -1.6073  0.2237 -0.5211
18887TIP3    H278153   2.393   5.289  15.898  0.7297 -0.3858 -1.5119
18888TIP3   OH278154   4.836   1.738  14.120  0.3886  0.2412  0.0874
18888TIP3    H178155   4.815   1.796  14.047 -0.8306  1.5229  1.3693
18888TIP3    H278156   4.756   1.686  14.133  1.3340 -1.5165 -0.7937
18889TIP3   OH278157   0.765   1.526   5.226 -0.4546 -0.3554  0.1776
18889TIP3    H178158   0.715   1.450   5.198 -0.1798 -0.8978  1.1077
18889TIP3    H278159   0.736   1.542   5.316 -0.9974  1.0533 -0.2248
18890TIP3   OH278160   0.452   0.234  11.262 -0.8087  0.0661 -0.3728
18890TIP3    H178161   0.442   0.143  11.289  1.4659  0.2174  1.2316
18890TIP3    H278162   0.437   0.286  11.341 -1.9752  1.1325 -1.2346
18891TIP3   OH278163   2.210   0.308  16.986  0.2500  0.0777  0.3256
18891TIP3    H178164   2.250   0.357  17.057  0.4308 -0.2115  0.4265
18891TIP3    H278165   2.240   0.353  16.906  2.1171 -1.0822  0.3198
18892TIP3   OH278166   2.698   1.556   0.897  0.1956 -0.1933 -0.2937
18892TIP3    H178167   2.673   1.634   0.946  4.4794  0.4630  1.2951
18892TIP3    H278168   2.681   1.483   0.957 -0.1191 -0.0625 -0.2202
18893TIP3   OH278169   0.704   4.451  16.901 -0.6645  0.2553 -0.3813
18893TIP3    H178170   0.728   4.495  16.819  2.3213  2.4268  1.4751
18893TIP3    H278171   0.632   4.504  16.935 -1.0501  0.1166 -0.9594
18894TIP3   OH278172   5.604   3.201  16.608 -0.3962 -0.2901 -0.4339
18894TIP3    H178173   5.581   3.109  16.617 -0.6804 -0.1635  0.1974
18894TIP3    H278174   5.691   3.209  16.647 -0.9405 -0.0481  0.7780
18895TIP3   OH278175   1.980   0.974   4.165 -0.1774 -0.0618  0.1943
18895TIP3    H178176   1.977   1.069   4.153  2.3227  0.3262  1.8408
18895TIP3    H278177   2.031   0.942   4.091 -0.5204 -0.0529 -0.0470
18896TIP3   OH278178   0.022   5.839   5.333  0.0415  0.0061  0.2900
18896TIP3    H178179   0.066   5.922   5.316 -0.3113  0.0377 -0.4933
18896TIP3    H278180   0.053   5.780   5.265  0.3667 -0.5463  0.9002
18897TIP3   OH278181   6.543   0.865   0.372 -0.1933 -0.1367  0.1438
18897TIP3    H178182   6.451   0.891   0.376 -0.0429  0.5025 -0.3639
18897TIP3    H278183   6.564   0.864   0.279  0.0758 -1.1670  0.2091
18898TIP3   OH278184   3.453   5.423   4.367  0.4979  0.7371 -0.0453
18898TIP3    H178185   3.532   5.372   4.347  0.5812  1.3757 -1.4096
18898TIP3    H278186   3.486   5.504   4.405  0.4580  0.7545 -0.0477
18899TIP3   OH278187   3.824   4.123   1.885  0.1537 -0.0997  0.1481
18899TIP3    H178188   3.776   4.059   1.937  1.9545 -0.3052  1.6603
18899TIP3    H278189   3.760   4.192   1.865 -1.4627 -1.6797 -0.3555
18900TIP3   OH278190   6.764   4.901  13.999  0.4328 -0.1850 -0.3910
18900TIP3    H178191   6.707   4.828  13.977 -0.0762  0.3447 -0.8785
18900TIP3    H278192   6.814   4.871  14.075 -1.4051 -0.1905  0.8822
18901TIP3   OH278193   0.454   0.342  13.804  0.3772 -0.2829  0.3131
18901TIP3    H178194   0.383   0.357  13.742  0.8611  1.2352  0.0801
18901TIP3    H278195   0.529   0.319  13.750  0.0982 -1.9805  0.5637
18902TIP3   OH278196   5.322   3.622   2.968 -0.3256  0.0856  0.0947
18902TIP3    H178197   5.367   3.699   2.933  0.7398 -0.9421 -0.8252
18902TIP3    H278198   5.243   3.658   3.010  1.3203  1.9302  1.8241
18903TIP3   OH278199   5.720   3.590   1.777 -0.1126  0.2408 -0.0076
18903TIP3    H178200   5.664   3.513   1.765 -0.3268  0.5766 -1.3535
18903TIP3    H278201   5.688   3.631   1.857 -0.8678 -0.3556  0.0039
18904TIP3   OH278202   6.211   2.824  15.346  0.3469  0.6855 -0.0715
18904TIP3    H178203   6.212   2.732  15.373  0.8262  0.1068 -1.8992
18904TIP3    H278204   6.124   2.836  15.308  1.0599  0.2917 -1.9173
18905TIP3   OH278205   3.079   4.585  13.233  0.6537 -0.2294  0.0124
18905TIP3    H178206   3.143   4.534  13.282  0.7023 -1.2790 -1.1027
18905TIP3    H278207   2.995   4.544  13.255  0.4644  0.5289  0.7186
18906TIP3   OH278208   1.979   2.045   0.982  0.4123 -0.1996 -0.5551
18906TIP3    H178209   1.901   2.037   1.037  0.8177 -0.3452 -0.0018
18906TIP3    H278210   1.988   1.959   0.941  1.5857 -0.9457  1.1467
18907TIP3   OH278211   5.433   2.543   1.450  0.5217 -0.1619 -0.1985
18907TIP3    H178212   5.459   2.457   1.418  1.8221 -0.3978  1.3611
18907TIP3    H278213   5.395   2.526   1.537 -1.9649  0.5512 -1.0663
18908TIP3   OH278214   5.731   4.849   4.815 -0.1423 -0.0971 -0.1881
18908TIP3    H178215   5.814   4.853   4.768 -0.6779 -0.3277 -1.1772
18908TIP3    H278216   5.747   4.898   4.896  1.0255 -0.3512 -0.2457
18909TIP3   OH278217   1.408   5.371   4.945  0.1752 -0.3421  0.0170
18909TIP3    H178218   1.327   5.319   4.940  1.4948 -2.4090 -1.3544
18909TIP3    H278219   1.384   5.456   4.908 -1.9125 -0.0934  1.7646
18910TIP3   OH278220   2.408   1.257  16.503  0.2062  0.3897 -0.2490
18910TIP3    H178221   2.430   1.171  16.468  0.1781  0.5140 -0.5725
18910TIP3    H278222   2.359   1.238  16.583 -2.9133  0.0145 -2.0815
18911TIP3   OH278223   2.048   1.731  16.331  0.2333  0.3679 -0.5787
18911TIP3    H178224   2.027   1.737  16.424  0.8180 -1.9072 -0.2546
18911TIP3    H278225   2.000   1.805  16.291 -1.6663  0.2081  1.2204
18912TIP3   OH278226   6.595   3.911   4.267 -0.0299  0.9379  0.0259
18912TIP3    H178227   6.502   3.908   4.293  0.0521  1.9829  0.5081
18912TIP3    H278228   6.614   3.823   4.235 -0.9765  0.4784  0.6753
18913TIP3   OH278229   1.971   5.972   1.556  0.4315  0.3612 -0.3450
18913TIP3    H178230   1.963   5.880   1.534 -1.3848  0.9106 -2.2892
18913TIP3    H278231   1.885   5.997   1.590  0.9665  1.3233  0.3787
18914TIP3   OH278232   5.855   6.251   3.088 -0.4847  0.0854  0.2605
18914TIP3    H178233   5.898   6.185   3.033 -1.4724 -0.5833  0.2654
18914TIP3    H278234   5.823   6.316   3.026 -0.5242 -0.0425  0.1442
18915TIP3   OH278235   5.165   3.807   2.688 -0.0519 -0.1855 -0.0351
18915TIP3    H178236   5.201   3.757   2.615 -0.3482  0.0040 -0.3151
18915TIP3    H278237   5.103   3.867   2.647  2.2673  2.3803 -0.1034
18916TIP3   OH278238   5.895   2.007   5.334  0.1634 -0.1778  0.6930
18916TIP3    H178239   5.886   2.096   5.299  0.2988  0.7435  2.8374
18916TIP3    H278240   5.827   1.957   5.289 -0.5089  1.2297  0.0778
18917TIP3   OH278241   3.708   1.353  11.011  0.4001 -0.0119 -0.4972
18917TIP3    H178242   3.766   1.402  11.069 -0.0380 -0.5755  0.4422
18917TIP3    H278243   3.646   1.418  10.979  1.4253  0.5540 -1.3595
18918TIP3   OH278244   0.314   3.811   0.542  0.6748 -0.2537  0.2387
18918TIP3    H178245   0.266   3.731   0.523  0.0663  0.5122 -1.6200
18918TIP3    H278246   0.406   3.784   0.539  0.4630 -1.0800  0.7157
18919TIP3   OH278247   2.666   6.283   2.036 -0.2592  0.4816 -0.1464
18919TIP3    H178248   2.659   6.367   1.991  1.1804  0.4599 -0.4547
18919TIP3    H278249   2.716   6.228   1.977 -0.7661 -0.4535  0.2738
18920TIP3   OH278250   1.025   5.302   0.408  0.2013  0.2216  0.5152
18920TIP3    H178251   1.081   5.380   0.402 -0.7747  0.8567 -0.8667
18920TIP3    H278252   0.940   5.331   0.374 -0.2413 -1.3951  0.1726
18921TIP3   OH278253   6.574   0.626  16.156 -0.5426  0.3208 -0.1655
18921TIP3    H178254   6.589   0.720  16.170  0.7914  0.0044  0.8433
18921TIP3    H278255   6.529   0.621  16.072  0.2096  1.8183 -0.7070
18922TIP3   OH278256   5.707   0.208   3.299 -0.4906  0.5770  0.6578
18922TIP3    H178257   5.710   0.114   3.286  0.7130  0.8481 -1.3309
18922TIP3    H278258   5.613   0.230   3.295 -0.6843 -0.3628 -0.2590
18923TIP3   OH278259   4.259   1.100  12.747 -0.0274  0.4293  0.0412
18923TIP3    H178260   4.307   1.036  12.799 -0.5703 -0.6781 -0.7849
18923TIP3    H278261   4.219   1.158  12.811 -0.8761 -1.0415  0.8903
18924TIP3   OH278262   1.478   5.184  11.812  0.3071  0.2758  0.1762
18924TIP3    H178263   1.449   5.093  11.812 -0.3153  0.4585 -0.7991
18924TIP3    H278264   1.440   5.221  11.733  1.6018  1.0608 -0.1058
18925TIP3   OH278265   2.073   0.738  15.930 -0.3429  0.5313 -0.4058
18925TIP3    H178266   2.040   0.649  15.921  0.2639  0.2943 -0.3538
18925TIP3    H278267   2.026   0.789  15.864  0.6978 -0.2257 -1.7576
18926TIP3   OH278268   3.862   0.113   5.798  0.6081 -0.2916  0.5312
18926TIP3    H178269   3.948   0.071   5.786 -0.4488 -1.9393 -2.0616
18926TIP3    H278270   3.855   0.174   5.725 -0.3225  0.0381  0.8845
18927TIP3   OH278271   3.799   3.836   0.672  0.0321 -0.4253  0.1135
18927TIP3    H178272   3.878   3.850   0.725  1.0711  0.4593 -1.6031
18927TIP3    H278273   3.763   3.753   0.704  0.5003  0.1565  2.2976
18928TIP3   OH278274   2.861   0.046  13.327 -0.2806 -0.5600 -0.4482
18928TIP3    H178275   2.887   0.124  13.376 -0.5593  0.1895 -1.4615
18928TIP3    H278276   2.771   0.030  13.354  0.2550 -1.4597  0.9095
18929TIP3   OH278277   2.894   5.654  16.873  0.1913  0.4700  0.1341
18929TIP3    H178278   2.944   5.628  16.796 -0.8464  1.5749 -0.9728
18929TIP3    H278279   2.897   5.750  16.873 -1.6439  0.5751  0.1694
18930TIP3   OH278280   2.640   5.631  16.662  0.4083 -0.0985 -0.1189
18930TIP3    H178281   2.667   5.722  16.653  1.4926 -0.4916 -1.1108
18930TIP3    H278282   2.722   5.581  16.658 -0.1514 -1.1131  0.5311
18931TIP3   OH278283   4.897   1.103   6.192 -0.1005  0.2313 -0.4264
18931TIP3    H178284   4.854   1.166   6.250  0.0379  0.0613 -0.1389
18931TIP3    H278285   4.846   1.023   6.204 -0.6555  0.4488 -1.2511
18932TIP3   OH278286   2.148   1.161   6.670  0.8807  0.0679 -0.0260
18932TIP3    H178287   2.189   1.085   6.629  2.4078  1.0750 -0.4625
18932TIP3    H278288   2.084   1.124   6.730 -0.1902 -1.4977 -2.0177
18933TIP3   OH278289   4.876   6.210  13.614 -0.1460 -0.3283 -0.6771
18933TIP3    H178290   4.885   6.123  13.574  0.7980 -0.6725  0.2100
18933TIP3    H278291   4.843   6.191  13.702  1.0714  0.1072 -0.1080
18934TIP3   OH278292   1.170   1.099   3.800  0.0210 -0.4343  0.4684
18934TIP3    H178293   1.120   1.174   3.834  0.5080 -0.1044  0.4726
18934TIP3    H278294   1.197   1.127   3.713 -0.0245 -0.7153  0.3660
18935TIP3   OH278295   0.564   0.841  10.744  0.5944  0.5983  0.5113
18935TIP3    H178296   0.635   0.866  10.802  0.4096 -0.6351  1.2979
18935TIP3    H278297   0.586   0.752  10.715 -0.3967  0.3566  0.4417
18936TIP3   OH278298   6.464   4.849  12.823  0.0493 -0.2359  0.1580
18936TIP3    H178299   6.388   4.902  12.798  0.5361  0.4632  0.1224
18936TIP3    H278300   6.488   4.801  12.744  0.6708  0.8353 -0.3263
18937TIP3   OH278301   0.010   5.550  14.003  0.2534 -0.0337 -0.2293
18937TIP3    H178302  -0.038   5.619  13.957 -0.6953 -0.9558 -0.6399
18937TIP3    H278303   0.095   5.590  14.023 -0.6474  1.6190  0.4764
18938TIP3   OH278304   6.526   2.859  14.980 -0.2062  0.5587  0.5632
18938TIP3    H178305   6.431   2.859  14.969 -0.1845 -0.3891  0.3391
18938TIP3    H278306   6.539   2.832  15.071 -0.1222 -0.9942  0.1211
18939TIP3   OH278307   0.712   6.821   3.714 -0.3537  0.1963 -0.4634
18939TIP3    H178308   0.737   6.747   3.769  0.8296  0.2795 -0.8657
18939TIP3    H278309   0.794   6.851   3.675 -0.8695  1.4663 -0.6294
18940TIP3   OH278310   1.182   2.367  12.550 -0.4514  0.3108 -0.2520
18940TIP3    H178311   1.154   2.422  12.477  0.1837 -0.5150 -1.1527
18940TIP3    H278312   1.137   2.284  12.536 -0.3155  0.1411  0.2840
18941TIP3   OH278313   4.548   2.098  15.186  0.2497  0.2030  0.4637
18941TIP3    H178314   4.521   2.184  15.218  0.6938 -0.1356  1.8473
18941TIP3    H278315   4.583   2.054  15.264  1.0502 -0.8234 -0.4495
18942TIP3   OH278316   0.717   1.291  12.379 -0.1659 -0.2808 -0.5428
18942TIP3    H178317   0.774   1.279  12.303 -0.6572  1.0904 -1.1772
18942TIP3    H278318   0.772   1.271  12.454  0.7038 -0.4645 -1.2127
18943TIP3   OH278319   1.761   0.140   5.971  0.0749 -0.0675 -0.3822
18943TIP3    H178320   1.802   0.219   6.006  3.6113 -1.3059 -1.3650
18943TIP3    H278321   1.748   0.158   5.878  0.3809 -0.4235 -0.4977
18944TIP3   OH278322   0.957   5.227  12.335 -0.1269 -0.0012 -0.0007
18944TIP3    H178323   0.957   5.140  12.293 -2.2759 -0.0087 -0.0696
18944TIP3    H278324   0.869   5.237  12.370  0.9684  0.8706  2.7958
18945TIP3   OH278325   3.990   3.275   0.436 -0.4865 -0.1227 -0.3162
18945TIP3    H178326   4.040   3.261   0.517  1.7722  0.5268 -1.5157
18945TIP3    H278327   3.953   3.190   0.415 -1.6831 -0.1585  1.7351
18946TIP3   OH278328   5.002   0.971  15.794  0.4919 -0.3807  0.9380
18946TIP3    H178329   5.018   1.053  15.841  0.8998 -0.0094  0.1902
18946TIP3    H278330   5.000   0.998  15.702  0.4058 -1.1820  0.7054
18947TIP3   OH278331   1.460   4.524  10.845 -0.3452  0.3893 -0.5048
18947TIP3    H178332   1.425   4.480  10.767  1.9671  3.1570 -3.4073
18947TIP3    H278333   1.415   4.609  10.845  0.5932  0.8998  0.4506
18948TIP3   OH278334   4.931   3.298   2.434 -0.1622 -0.4523  0.1707
18948TIP3    H178335   4.987   3.324   2.508 -0.9456  2.7870 -0.1963
18948TIP3    H278336   4.842   3.304   2.469 -0.4939  0.0510 -0.7274
18949TIP3   OH278337   0.649   5.941  17.148  0.2986  0.5506 -0.5078
18949TIP3    H178338   0.631   6.032  17.172  0.7528  0.6683 -0.6179
18949TIP3    H278339   0.580   5.892  17.193  0.1342  0.9333 -0.3287
18950TIP3   OH278340   2.121   3.886   2.426 -0.1633  0.2748  0.3175
18950TIP3    H178341   2.208   3.911   2.395  0.9348 -1.7752  1.5543
18950TIP3    H278342   2.062   3.949   2.384  1.8922  1.7808 -0.5024
18951TIP3   OH278343   1.765   5.173   3.855  0.3601  0.1095 -0.2710
18951TIP3    H178344   1.741   5.101   3.913 -1.7904  1.3587  0.4847
18951TIP3    H278345   1.777   5.249   3.912 -1.3755  1.2673 -1.3526
18952TIP3   OH278346   5.637   5.130  16.497  0.0271 -0.2820  0.2141
18952TIP3    H178347   5.618   5.140  16.591 -0.1243  1.4421  0.0352
18952TIP3    H278348   5.604   5.044  16.475 -0.2790 -0.5704  1.6710
18953TIP3   OH278349   4.030   4.136  10.905  0.3055 -0.6057  0.3385
18953TIP3    H178350   3.991   4.141  10.992 -1.0830 -0.7379 -0.2533
18953TIP3    H278351   4.086   4.213  10.900 -1.9996  1.1687  0.2534
18954TIP3   OH278352   1.932   6.278  12.944 -0.3028  0.3606 -0.0124
18954TIP3    H178353   1.849   6.298  12.902  0.4798  1.9597 -0.8708
18954TIP3    H278354   1.989   6.250  12.872 -0.0091 -0.5238  0.5398
18955TIP3   OH278355   0.565   1.429   5.780  0.1333  0.3004  0.7957
18955TIP3    H178356   0.630   1.421   5.850 -1.7365 -2.0891  2.4315
18955TIP3    H278357   0.535   1.519   5.784  2.0392  0.9592  1.1811
18956TIP3   OH278358   3.113   6.780  13.507  0.1436  0.1415 -0.0097
18956TIP3    H178359   3.174   6.719  13.549 -0.7802 -1.4741 -0.8947
18956TIP3    H278360   3.063   6.817  13.580  1.1662  0.3737  0.5998
18957TIP3   OH278361   0.776   5.755  12.559  0.4166 -0.0479  0.3138
18957TIP3    H178362   0.723   5.727  12.633  1.9588  0.1361  1.5542
18957TIP3    H278363   0.784   5.678  12.503  0.3386 -0.5887  1.0393
18958TIP3   OH278364   2.617   4.465   1.967  0.3059  0.0063 -0.0725
18958TIP3    H178365   2.566   4.385   1.960 -0.4922  0.5931 -1.4372
18958TIP3    H278366   2.705   4.436   1.990 -0.4376 -1.0826  1.5835
18959TIP3   OH278367   1.468   4.534   5.582  0.5498  0.2886 -0.1563
18959TIP3    H178368   1.441   4.553   5.492  0.8860  0.7126 -0.1735
18959TIP3    H278369   1.406   4.582   5.636 -0.4330 -0.9699 -0.1166
18960TIP3   OH278370   0.882   2.282  16.027  0.3053  0.5724 -0.0033
18960TIP3    H178371   0.815   2.307  15.964 -0.2351  0.2066  0.4215
18960TIP3    H278372   0.856   2.325  16.109  0.1034 -0.2694  0.3845
18961TIP3   OH278373   5.562   2.919  13.423 -0.4172  0.2458 -0.1000
18961TIP3    H178374   5.623   2.976  13.375  2.5951 -1.3393  1.4869
18961TIP3    H278375   5.536   2.970  13.500  0.2140  0.4143  0.0075
18962TIP3   OH278376   5.753   0.241  16.480  0.5666  0.4800  0.2886
18962TIP3    H178377   5.771   0.149  16.500  0.4012  0.2517 -0.5717
18962TIP3    H278378   5.825   0.269  16.424  0.0455  0.5458 -0.3649
18963TIP3   OH278379   3.539   2.544  12.505  0.1850 -0.3249  0.0400
18963TIP3    H178380   3.570   2.558  12.595  0.9398  0.4028 -0.3205
18963TIP3    H278381   3.508   2.630  12.477 -1.0684 -0.7851 -0.0342
18964TIP3   OH278382   5.207   0.876   5.023 -0.1728  0.3694  0.2448
18964TIP3    H178383   5.163   0.938   4.964 -1.5626 -0.8676 -0.0831
18964TIP3    H278384   5.278   0.926   5.062  0.9747  1.2096 -2.6678
18965TIP3   OH278385   5.046   4.844   5.901 -0.0826  0.1440 -0.0309
18965TIP3    H178386   5.094   4.924   5.884 -2.4474  1.4681 -0.8606
18965TIP3    H278387   5.113   4.775   5.897  1.6027  1.7593 -1.9049
18966TIP3   OH278388   3.324   5.102   1.355  0.1952  0.2728  0.2730
18966TIP3    H178389   3.355   5.077   1.442  2.6740 -1.0218 -0.8752
18966TIP3    H278390   3.314   5.019   1.308  0.0617  0.9879 -1.0159
18967TIP3   OH278391   3.604   4.526   5.774 -0.5627  0.1128 -0.6680
18967TIP3    H178392   3.646   4.568   5.698 -1.9488  0.7181 -1.1264
18967TIP3    H278393   3.542   4.464   5.736  0.2637 -1.1897  0.0102
18968TIP3   OH278394   1.084   2.863   5.921  0.0882  0.3140  0.2238
18968TIP3    H178395   1.143   2.819   5.982 -0.0142 -0.0077  0.0996
18968TIP3    H278396   1.118   2.838   5.834  0.4230  1.0246  0.1463
18969TIP3   OH278397   4.182   2.035   2.675 -0.2356  0.7047  0.2349
18969TIP3    H178398   4.211   1.953   2.715 -1.7258  0.2638  0.5074
18969TIP3    H278399   4.252   2.059   2.615  1.5184  0.7492  2.1996
18970TIP3   OH278400   6.249   3.917   4.229 -0.5560 -0.1263  0.2017
18970TIP3    H178401   6.296   3.954   4.154 -2.0906 -1.3078 -1.4245
18970TIP3    H278402   6.157   3.937   4.211 -0.8797  1.0180  2.6537
18971TIP3   OH278403   6.333   5.719  11.312 -0.0349 -0.0952  0.8591
18971TIP3    H178404   6.391   5.709  11.237 -1.0153  0.2189  0.0452
18971TIP3    H278405   6.389   5.699  11.388  1.3311  0.9477  0.1649
18972TIP3   OH278406   2.388   2.856  15.495  0.0333 -0.7243 -0.0381
18972TIP3    H178407   2.430   2.941  15.501 -1.3758 -0.1013  2.0674
18972TIP3    H278408   2.333   2.862  15.418  1.1937 -0.3547 -0.8672
18973TIP3   OH278409   0.411   5.988   1.896  0.3000  0.3335 -0.4968
18973TIP3    H178410   0.320   6.015   1.899 -0.2479 -1.4823  0.6137
18973TIP3    H278411   0.452   6.029   1.972  0.5770  1.5542 -1.2679
18974TIP3   OH278412   5.349   4.728   3.632 -0.2020  0.1735  0.3333
18974TIP3    H178413   5.393   4.811   3.614  1.1230 -0.7759 -1.0827
18974TIP3    H278414   5.334   4.729   3.727 -0.4412  2.0991  0.3255
18975TIP3   OH278415   1.757   3.373  12.901 -0.0638 -0.2304 -0.2370
18975TIP3    H178416   1.843   3.331  12.900 -0.4439 -1.0217 -0.7931
18975TIP3    H278417   1.726   3.367  12.811 -1.1027 -0.8345  0.1318
18976TIP3   OH278418   6.756   5.637   0.691 -0.2380  0.1707 -0.4455
18976TIP3    H178419   6.802   5.666   0.770  1.4367  0.9215 -1.6412
18976TIP3    H278420   6.670   5.678   0.699 -0.4824 -0.5817  1.4465
18977TIP3   OH278421   2.799   5.444  16.190 -0.4599  0.4184 -0.0023
18977TIP3    H178422   2.734   5.465  16.258 -2.1875 -0.4203 -1.3193
18977TIP3    H278423   2.782   5.508  16.121  1.6361  1.5972  0.5009
18978TIP3   OH278424   1.365   4.374  13.758  0.2391 -0.0419 -0.0276
18978TIP3    H178425   1.375   4.285  13.727  1.4452 -0.9172  2.6107
18978TIP3    H278426   1.312   4.366  13.837  0.1480  1.6166  0.1188
18979TIP3   OH278427   3.038   6.027  11.361 -0.0805 -0.1650 -0.0115
18979TIP3    H178428   3.055   6.075  11.280  0.1568  0.5898  0.4734
18979TIP3    H278429   3.073   5.940  11.344  1.9884  0.5840  0.0146
18980TIP3   OH278430   6.755   2.245   3.219 -0.3122 -0.3801  0.5323
18980TIP3    H178431   6.720   2.172   3.168 -0.5802  0.7068 -0.8950
18980TIP3    H278432   6.686   2.263   3.283  0.5211 -2.5201  2.1688
18981TIP3   OH278433   1.340   5.073   2.145 -0.1382  0.4216  0.2106
18981TIP3    H178434   1.376   4.987   2.165 -0.1509  0.2020 -0.6628
18981TIP3    H278435   1.268   5.084   2.207 -0.3649 -0.3502  0.0991
18982TIP3   OH278436   1.273   2.799   2.539  0.0171  0.0185  0.2597
18982TIP3    H178437   1.182   2.827   2.531 -0.1947 -0.9413 -1.2243
18982TIP3    H278438   1.323   2.880   2.547 -0.9067  0.6001  0.3193
18983TIP3   OH278439   4.799   3.010   2.107 -0.5453 -0.5816  0.5848
18983TIP3    H178440   4.886   3.023   2.144 -0.4587 -0.6314  0.4016
18983TIP3    H278441   4.745   3.079   2.146 -0.7662 -1.4053  1.7983
18984TIP3   OH278442   3.543   3.314  12.669 -0.1944 -0.5267  0.5241
18984TIP3    H178443   3.615   3.363  12.709 -0.2577 -0.2555  0.3132
18984TIP3    H278444   3.573   3.295  12.580 -1.2168  1.5181 -0.3521
18985TIP3   OH278445   3.216   2.487   3.739  0.0476  0.1345 -0.2547
18985TIP3    H178446   3.275   2.561   3.755  0.0526  0.0183  0.3060
18985TIP3    H278447   3.168   2.478   3.822 -1.6120  0.9883 -1.0668
18986TIP3   OH278448   2.410   6.574   0.701 -0.3349  0.2217 -0.0480
18986TIP3    H178449   2.375   6.535   0.620 -0.1142 -1.8680  0.7886
18986TIP3    H278450   2.332   6.592   0.754 -0.3875 -1.9947  0.7549
18987TIP3   OH278451   2.371   0.150  11.500  0.3270  0.2083  0.1566
18987TIP3    H178452   2.463   0.166  11.523  0.2873 -0.8466  1.1370
18987TIP3    H278453   2.368   0.056  11.481 -0.5693  0.2245  0.2059
18988TIP3   OH278454   5.153   5.169   2.406  0.5269  0.0413  0.3630
18988TIP3    H178455   5.230   5.112   2.409 -0.0319 -0.7682 -0.1315
18988TIP3    H278456   5.089   5.127   2.464 -0.1441 -0.2492 -0.5455
18989TIP3   OH278457   5.935   0.982   4.402  0.6063 -0.3298 -0.4674
18989TIP3    H178458   5.978   0.979   4.487 -2.3768  0.2865  1.2199
18989TIP3    H278459   5.888   1.065   4.402 -1.8026 -1.5788 -1.3780
18990TIP3   OH278460   5.633   5.147  16.029  0.2456 -0.0518  0.8587
18990TIP3    H178461   5.647   5.154  15.935  0.1148  1.2456  0.9050
18990TIP3    H278462   5.633   5.238  16.059  0.0565 -0.4385  2.0761
18991TIP3   OH278463   0.583   2.836  15.835  0.8695  0.5645 -0.7693
18991TIP3    H178464   0.661   2.780  15.836  0.9236  0.6532 -0.2098
18991TIP3    H278465   0.600   2.904  15.900  0.0366  0.2001 -0.1568
18992TIP3   OH278466   1.339   3.303  13.943  0.4011 -0.1852 -0.1406
18992TIP3    H178467   1.377   3.381  13.902 -0.9562  0.8111  0.4184
18992TIP3    H278468   1.377   3.303  14.031  0.1308  0.0584 -0.0221
18993TIP3   OH278469   6.347   4.549   5.136 -0.3212 -0.5825  0.1932
18993TIP3    H178470   6.419   4.506   5.182  0.3396  0.4357  0.1662
18993TIP3    H278471   6.275   4.487   5.140  1.3050 -2.8272 -2.0819
18994TIP3   OH278472   5.346   3.964   4.027  0.2909  0.9505 -0.1083
18994TIP3    H178473   5.388   4.023   3.963  0.7704  2.4311  1.4859
18994TIP3    H278474   5.395   3.882   4.019  0.1928  1.0198 -1.7708
18995TIP3   OH278475   2.689   2.106  14.192 -0.2015 -0.3611 -0.0069
18995TIP3    H178476   2.600   2.121  14.224  0.5568 -0.5723  2.3819
18995TIP3    H278477   2.736   2.071  14.267  2.1534  0.5495 -0.9582
18996TIP3   OH278478   5.682   0.024  14.311 -0.2244 -0.1074  0.6258
18996TIP3    H178479   5.660  -0.059  14.268 -0.5832  0.3438 -0.0882
18996TIP3    H278480   5.685   0.003  14.404  0.2188 -1.0384  0.4137
18997TIP3   OH278481   2.686   0.966   0.183 -0.0570  0.1267  0.3946
18997TIP3    H178482   2.733   1.047   0.162  0.2541 -0.0617  0.3507
18997TIP3    H278483   2.725   0.900   0.124  1.7593 -0.7106  2.4086
18998TIP3   OH278484   0.082   1.902  16.789  0.1940  0.1069  0.2920
18998TIP3    H178485   0.167   1.859  16.803  1.0360  1.9840  1.2947
18998TIP3    H278486   0.094   1.953  16.710 -0.7011 -1.1755 -0.7106
18999TIP3   OH278487   2.172   5.670  14.032 -0.0917  0.1761 -0.3853
18999TIP3    H178488   2.236   5.616  13.985 -0.4913 -0.0321 -0.7011
18999TIP3    H278489   2.198   5.663  14.124  0.8329  0.7693 -0.5843
19000TIP3   OH278490   1.611   1.921  15.647 -0.2670 -0.0013  0.5087
19000TIP3    H178491   1.558   1.999  15.656  1.3259  1.2362 -0.1824
19000TIP3    H278492   1.656   1.912  15.731 -0.4500 -0.1718  0.5885
19001TIP3   OH278493   3.460   1.801   3.610  0.2982 -0.0275  0.0513
19001TIP3    H178494   3.399   1.739   3.651  0.8030 -2.3688 -2.4756
19001TIP3    H278495   3.404   1.855   3.554  0.0766  0.7022  0.9477
19002TIP3   OH278496   2.440   3.886  14.606  0.1110  0.3264  0.1754
19002TIP3    H178497   2.411   3.923  14.522 -0.1555 -0.2165  0.0240
19002TIP3    H278498   2.513   3.829  14.583  0.2904  0.4763  0.3647
19003TIP3   OH278499   6.301   3.646  16.234 -0.1027 -0.3700 -0.0381
19003TIP3    H178500   6.259   3.717  16.185  0.0998 -0.8542 -0.9322
19003TIP3    H278501   6.246   3.570  16.216  0.3634 -0.7006 -0.0629
19004TIP3   OH278502   2.440   0.326   4.390  0.6754 -0.2790 -0.0281
19004TIP3    H178503   2.436   0.411   4.434  0.5284 -0.4126  0.2125
19004TIP3    H278504   2.530   0.297   4.404  0.7837 -0.0727 -0.2804
19005TIP3   OH278505   2.740   3.520   4.630 -0.1572  0.2867  0.5416
19005TIP3    H178506   2.725   3.426   4.634  0.5574  0.1652  0.5354
19005TIP3    H278507   2.835   3.529   4.627 -0.2280  0.9387 -1.0254
19006TIP3   OH278508   2.827   3.734  10.928  0.0390 -0.4187 -0.0669
19006TIP3    H178509   2.861   3.724  11.017 -1.0965  0.4837  0.4892
19006TIP3    H278510   2.821   3.645  10.894  1.7169 -0.7038  0.2563
19007TIP3   OH278511   6.474   2.532  10.955  0.0719  0.0387 -0.3543
19007TIP3    H178512   6.397   2.588  10.962 -0.2116 -0.2459 -1.0236
19007TIP3    H278513   6.527   2.552  11.032  0.0206  1.2849 -0.6364
19008TIP3   OH278514   0.038   0.770  15.073  0.0167 -0.2803 -0.2160
19008TIP3    H178515   0.004   0.682  15.055  0.4806 -0.1379 -1.9197
19008TIP3    H278516   0.127   0.754  15.105 -0.5565 -0.4929  1.3906
19009TIP3   OH278517   5.489   2.041   4.967 -0.4184 -0.1871  0.1834
19009TIP3    H178518   5.515   1.951   4.987 -2.9024 -1.4258 -1.5991
19009TIP3    H278519   5.514   2.053   4.875  0.3982  1.2009  0.5544
19010TIP3   OH278520   6.643   5.351   2.592 -0.5321  0.5483 -0.4219
19010TIP3    H178521   6.653   5.256   2.585  0.7375  0.7737 -2.1524
19010TIP3    H278522   6.732   5.384   2.603 -1.0029  1.5372  0.6918
19011TIP3   OH278523   6.145   0.390   5.180 -0.2932  0.6844 -0.2239
19011TIP3    H178524   6.212   0.414   5.243  0.7339 -1.7624 -0.2793
19011TIP3    H278525   6.074   0.355   5.233  0.6265 -1.5016 -0.3385
19012TIP3   OH278526   5.199   4.388   1.477  0.1411  0.1476  0.4531
19012TIP3    H178527   5.118   4.439   1.474  0.5801  0.8505 -2.2538
19012TIP3    H278528   5.269   4.452   1.470  0.7724 -0.6446 -1.0321
19013TIP3   OH278529   3.916   1.995  11.988 -0.2961 -0.1328  0.0044
19013TIP3    H178530   3.909   2.061  12.057 -0.5052  0.1370 -0.2721
19013TIP3    H278531   3.826   1.965  11.974 -0.1188 -0.9823  0.6118
19014TIP3   OH278532   1.419   3.404   5.975  0.2466  0.0170 -0.1473
19014TIP3    H178533   1.445   3.495   5.970 -1.4185  0.5877  0.8383
19014TIP3    H278534   1.493   3.360   6.017  0.5221  1.1462  0.5829
19015TIP3   OH278535   1.323   4.775  10.799 -0.5899 -0.3205  0.3475
19015TIP3    H178536   1.406   4.820  10.814 -1.1855  0.2031  2.5480
19015TIP3    H278537   1.276   4.831  10.737 -0.0894  0.4464  0.6475
19016TIP3   OH278538   6.665   1.001   2.775  0.5932  0.3366  0.0099
19016TIP3    H178539   6.735   1.051   2.816  1.5313 -0.5002 -0.5220
19016TIP3    H278540   6.700   0.976   2.689 -0.1771 -0.4880 -0.0868
19017TIP3   OH278541   6.122   1.603  12.728 -0.3312  0.0562 -0.5715
19017TIP3    H178542   6.172   1.590  12.648  1.7196 -0.9226  0.7499
19017TIP3    H278543   6.163   1.679  12.770 -0.3076 -0.3963  0.2654
19018TIP3   OH278544   0.141   4.670  15.006 -0.2970 -0.3821 -0.4094
19018TIP3    H178545   0.047   4.681  15.019 -0.4420 -0.3705 -1.4355
19018TIP3    H278546   0.149   4.587  14.960  0.1719 -0.1886 -0.6747
19019TIP3   OH278547   2.127   5.836  12.784  0.1782  0.0546  0.8347
19019TIP3    H178548   2.038   5.803  12.768  0.8107 -0.4283 -2.3989
19019TIP3    H278549   2.115   5.908  12.846 -2.2391 -0.9723  1.6910
19020TIP3   OH278550   2.433   6.683   6.174 -0.0214 -0.0185 -0.7396
19020TIP3    H178551   2.503   6.748   6.185  0.8979 -0.8653 -1.4314
19020TIP3    H278552   2.403   6.696   6.084 -1.8076  1.3286 -0.0073
19021TIP3   OH278553   4.585   1.118   0.207  0.0898  0.0861 -0.3494
19021TIP3    H178554   4.521   1.049   0.187 -0.6247  0.2126  1.3626
19021TIP3    H278555   4.593   1.116   0.302  0.2826  2.1722 -0.2878
19022TIP3   OH278556   5.319   2.371  13.787  0.3305 -0.3312 -0.2100
19022TIP3    H178557   5.407   2.387  13.820 -0.5919 -0.2700  2.4999
19022TIP3    H278558   5.327   2.292  13.733  2.3812  0.9630 -1.9234
19023TIP3   OH278559   4.677   2.545   3.027 -0.6782 -0.7382 -0.4002
19023TIP3    H178560   4.758   2.596   3.025 -1.6834  0.9017 -1.0965
19023TIP3    H278561   4.691   2.480   3.096  1.1244 -0.3196 -0.3415
19024TIP3   OH278562   3.135   6.454   4.795  0.0055  0.2143 -0.2986
19024TIP3    H178563   3.155   6.527   4.736  0.0478  0.4642  0.0194
19024TIP3    H278564   3.054   6.482   4.839  0.6655  0.6078  0.6957
19025TIP3   OH278565   3.418   6.184  13.049 -0.2564 -0.0657 -0.2398
19025TIP3    H178566   3.415   6.088  13.044 -0.4580 -0.0212 -1.0482
19025TIP3    H278567   3.462   6.211  12.968  3.1664  0.3640  1.5440
19026TIP3   OH278568   2.815   0.592   5.158  0.1530 -0.7425 -0.5367
19026TIP3    H178569   2.745   0.656   5.155  0.0397 -0.8830 -1.2440
19026TIP3    H278570   2.869   0.612   5.081  1.6488  0.2012  0.6976
19027TIP3   OH278571   5.522   4.497   0.783  0.1540  0.1868  0.2039
19027TIP3    H178572   5.459   4.485   0.712  0.4388  0.5789 -0.1253
19027TIP3    H278573   5.589   4.554   0.745  1.5333 -1.4768  0.0102
19028TIP3   OH278574   0.342   1.292   5.476 -0.3249  0.6351  0.2880
19028TIP3    H178575   0.368   1.379   5.447  0.0381  0.7116  0.8129
19028TIP3    H278576   0.324   1.303   5.570  2.0320 -0.3178  0.9228
19029TIP3   OH278577   5.408   4.703  14.373 -0.0342 -0.2480  0.3691
19029TIP3    H178578   5.332   4.761  14.371  1.6007  2.0581 -1.7047
19029TIP3    H278579   5.476   4.756  14.415  1.5471 -0.5599 -1.6725
19030TIP3   OH278580   0.383   0.765   0.684 -0.3474  1.0514  0.6152
19030TIP3    H178581   0.451   0.729   0.741 -1.6079 -0.3798  1.2729
19030TIP3    H278582   0.371   0.855   0.716  0.9289  1.2095  0.7257
19031TIP3   OH278583   5.850   0.728   5.336  0.0464  0.3569 -0.2010
19031TIP3    H178584   5.840   0.641   5.374  0.5953  0.0820 -0.6659
19031TIP3    H278585   5.769   0.774   5.358  0.9955  0.7989  2.8283
19032TIP3   OH278586   5.226   3.901  11.958  0.2792 -0.3604  0.0881
19032TIP3    H178587   5.296   3.935  11.904  1.9995 -1.2368  1.6280
19032TIP3    H278588   5.242   3.938  12.045 -1.5423 -0.1102  0.3610
19033TIP3   OH278589   4.438   3.924   0.776 -0.0246  0.1604  0.3327
19033TIP3    H178590   4.440   3.970   0.692  1.0278  2.5382  1.5386
19033TIP3    H278591   4.518   3.872   0.777 -1.3245 -2.0061 -1.1345
19034TIP3   OH278592   3.432   0.107   2.475 -0.4134 -0.0960 -0.0138
19034TIP3    H178593   3.475   0.024   2.495 -1.2551 -0.7474 -0.7969
19034TIP3    H278594   3.427   0.153   2.559  1.9271  0.0960  0.0628
19035TIP3   OH278595   2.329   1.558   4.874 -0.3327 -0.4732  0.2707
19035TIP3    H178596   2.246   1.511   4.879 -0.6687 -0.0216 -0.7169
19035TIP3    H278597   2.395   1.492   4.894 -0.9743 -0.5741  2.2107
19036TIP3   OH278598   6.344   6.066  17.110  0.0316  0.0979  0.1556
19036TIP3    H178599   6.370   5.978  17.136 -0.9617 -0.5919 -1.1234
19036TIP3    H278600   6.279   6.054  17.041  0.0263  1.8333 -0.2055
19037TIP3   OH278601   2.618   4.667   2.955 -0.1797  0.1785  0.2713
19037TIP3    H178602   2.537   4.679   2.905 -0.9029 -2.8168  0.5255
19037TIP3    H278603   2.589   4.649   3.044  0.6783 -1.3995  0.2693
19038TIP3   OH278604   4.225   3.855   3.677  0.2738  0.0511 -0.2254
19038TIP3    H178605   4.162   3.858   3.606  0.9952 -1.2298 -0.9558
19038TIP3    H278606   4.174   3.833   3.755 -0.2931 -0.1634 -0.6584
19039TIP3   OH278607   0.124   2.547   2.281  0.0559 -0.0545 -0.0561
19039TIP3    H178608   0.087   2.635   2.284  0.0489 -0.0443 -0.3772
19039TIP3    H278609   0.113   2.513   2.369 -1.6073 -0.4083 -0.3758
19040TIP3   OH278610   0.845   0.436  12.024 -0.3261 -0.0480 -0.1394
19040TIP3    H178611   0.774   0.428  12.087 -0.4117 -0.6035 -0.2974
19040TIP3    H278612   0.885   0.349  12.021  2.0842  0.8937  1.9109
19041TIP3   OH278613   0.139   0.806   2.845  0.5870  0.5454 -0.0909
19041TIP3    H178614   0.145   0.793   2.940 -1.1744  2.0163  0.2864
19041TIP3    H278615   0.114   0.720   2.810  0.7159  0.1184  0.8382
19042TIP3   OH278616   0.211   4.493   0.142  0.5726  0.3572 -0.3673
19042TIP3    H178617   0.258   4.575   0.152 -0.6644  1.0994 -0.3813
19042TIP3    H278618   0.121   4.519   0.120  0.1125 -0.9881 -0.2009
19043TIP3   OH278619   6.153   5.901   3.153 -0.3972  0.0938  0.1495
19043TIP3    H178620   6.208   5.827   3.127 -0.7269  0.0844 -0.5504
19043TIP3    H278621   6.170   5.967   3.086 -0.1932  0.6142  0.7053
19044TIP3   OH278622   1.843   3.542  10.730  0.6056 -0.0707  0.2340
19044TIP3    H178623   1.841   3.635  10.750 -0.2485 -0.0555  0.1084
19044TIP3    H278624   1.853   3.538  10.634 -0.6328 -0.0888  0.0966
19045TIP3   OH278625   1.193   6.516  14.092 -0.0471 -0.2405  0.2929
19045TIP3    H178626   1.238   6.574  14.154 -0.5353 -0.1036  0.5297
19045TIP3    H278627   1.189   6.566  14.011  0.3810 -0.3224  0.2233
19046TIP3   OH278628   4.488   3.001   0.346  0.0656  0.0770 -0.1626
19046TIP3    H178629   4.473   2.925   0.289  2.7109 -0.5331 -0.2061
19046TIP3    H278630   4.494   3.075   0.286 -0.4576 -0.0316 -0.3479
19047TIP3   OH278631   2.244   1.498  17.216  0.3371 -0.2831  0.2527
19047TIP3    H178632   2.164   1.447  17.203  1.3399 -1.4554 -1.7401
19047TIP3    H278633   2.232   1.540  17.302 -1.7053 -1.6984  0.7273
19048TIP3   OH278634   5.922   0.715  11.894 -0.1443  0.2559 -0.0472
19048TIP3    H178635   5.978   0.701  11.817  0.8691  0.3996  0.6397
19048TIP3    H278636   5.849   0.655  11.882  0.6273 -0.6121 -0.5222
19049TIP3   OH278637   4.261   6.208  12.774 -0.3301  0.1842 -0.2953
19049TIP3    H178638   4.200   6.282  12.780  0.0213  0.4613 -0.0893
19049TIP3    H278639   4.327   6.236  12.711 -0.9709 -0.5272 -1.3177
19050TIP3   OH278640   0.846   4.825  12.955  0.5707 -0.3023 -0.5981
19050TIP3    H178641   0.937   4.799  12.965  1.4037  2.3770 -0.3215
19050TIP3    H278642   0.845   4.880  12.876 -0.3104  1.4315  0.5496
19051TIP3   OH278643   6.603   0.169  14.440  0.6691 -0.1406 -0.3178
19051TIP3    H178644   6.537   0.147  14.506  1.8873 -1.1969  0.5958
19051TIP3    H278645   6.657   0.236  14.482 -0.0573  1.0648 -1.2374
19052TIP3   OH278646   6.780   0.523  13.982  0.1501 -0.3982 -0.2169
19052TIP3    H178647   6.769   0.435  13.946  2.8310 -0.7797 -0.2874
19052TIP3    H278648   6.807   0.509  14.072 -1.0961  0.4433  0.3169
19053TIP3   OH278649   1.721   2.493  16.242 -0.2223  0.0884  0.6133
19053TIP3    H178650   1.726   2.449  16.327 -1.6654 -2.6238 -0.5434
19053TIP3    H278651   1.792   2.455  16.191 -0.0766  0.8253  0.2567
19054TIP3   OH278652   5.682   5.224   4.104  0.3477  0.2415 -0.1884
19054TIP3    H178653   5.706   5.314   4.085 -0.9220  0.3573 -1.4368
19054TIP3    H278654   5.723   5.205   4.189  0.3796  2.0828  0.2501
19055TIP3   OH278655   3.234   0.756   5.982 -0.2017  0.0305  0.3980
19055TIP3    H178656   3.204   0.671   6.015  0.3818  0.0818  1.0734
19055TIP3    H278657   3.156   0.812   5.984 -1.1458 -1.0251 -2.0223
19056TIP3   OH278658   5.772   1.682   1.174 -0.1631 -0.5733 -0.6435
19056TIP3    H178659   5.678   1.671   1.189 -0.3407 -1.9281 -2.3951
19056TIP3    H278660   5.813   1.621   1.235 -0.4778 -0.7327 -0.5864
19057TIP3   OH278661   2.877   1.272   5.034 -0.1170  0.1935  0.2373
19057TIP3    H178662   2.872   1.368   5.037  0.8299  0.2654  0.0863
19057TIP3    H278663   2.794   1.242   5.069 -0.8433  1.0792 -0.6800
19058TIP3   OH278664   6.120   1.791  15.790  0.6788 -0.0756  0.1609
19058TIP3    H178665   6.036   1.833  15.768  1.3869  0.8235 -0.8997
19058TIP3    H278666   6.095   1.719  15.848 -0.8264  0.2209 -0.0567
19059TIP3   OH278667   2.418   4.455  10.991 -0.0731  0.1751 -0.6095
19059TIP3    H178668   2.429   4.549  11.005 -0.7988  0.3755 -1.3418
19059TIP3    H278669   2.362   4.448  10.914 -2.0913 -0.8360  0.8711
19060TIP3   OH278670   0.665   6.277  16.846  0.4575  0.0502  0.1600
19060TIP3    H178671   0.738   6.245  16.899  1.0540 -0.6648 -1.0514
19060TIP3    H278672   0.695   6.362  16.812  0.2071  0.3529  0.6857
19061TIP3   OH278673   1.193   0.529  14.160  0.0846 -0.3715 -0.7738
19061TIP3    H178674   1.129   0.459  14.156 -1.1736  0.7489 -1.0906
19061TIP3    H278675   1.162   0.587  14.229  0.6684  0.2698 -1.0258
19062TIP3   OH278676   2.012   5.094  14.970  1.1060 -0.2036 -0.2621
19062TIP3    H178677   2.062   5.013  14.978 -0.0163 -0.8063  1.0463
19062TIP3    H278678   1.928   5.074  15.011  0.1991  1.1267 -1.3806
19063TIP3   OH278679   4.551   3.059  13.093 -0.5161 -0.0640 -0.0547
19063TIP3    H178680   4.576   3.006  13.018 -1.0077 -1.1631  0.5386
19063TIP3    H278681   4.612   3.034  13.162 -0.7861  0.0902  0.2454
19064TIP3   OH278682   2.350   1.482   1.961  0.1148  0.6449  0.0761
19064TIP3    H178683   2.350   1.468   2.056  0.7267 -1.4654 -0.1954
19064TIP3    H278684   2.271   1.439   1.930  1.6940 -1.9075 -0.7143
19065TIP3   OH278685   1.846   2.743  12.720 -0.1937  0.0017  0.0313
19065TIP3    H178686   1.845   2.648  12.711  0.3010  0.0777 -1.0072
19065TIP3    H278687   1.928   2.770  12.678  0.4659  0.7650  1.7105
19066TIP3   OH278688   1.525   0.757  12.470  0.3637  0.0275  0.0433
19066TIP3    H178689   1.593   0.792  12.412  0.0741  1.5641  0.5767
19066TIP3    H278690   1.567   0.684  12.514  0.5276 -1.3314 -2.2202
19067TIP3   OH278691   5.446   5.258  15.797  0.0930 -0.4369  0.3313
19067TIP3    H178692   5.497   5.331  15.764 -0.4841  0.3731  1.1669
19067TIP3    H278693   5.385   5.236  15.726  1.6856 -1.5557 -0.7584
19068TIP3   OH278694   4.288   5.153   0.935 -0.1305 -0.2302 -0.4279
19068TIP3    H178695   4.241   5.141   0.853 -0.9524 -0.1016  0.0117
19068TIP3    H278696   4.239   5.222   0.981  0.8963  0.4076 -0.2523
19069TIP3   OH278697   5.619   4.478   4.326  0.5522 -0.1011 -0.3678
19069TIP3    H178698   5.645   4.452   4.414 -0.2953  0.1398 -0.0412
19069TIP3    H278699   5.699   4.469   4.274  0.8506 -1.0409  0.2397
19070TIP3   OH278700   1.873   3.493   3.191  0.0865 -0.5000  0.0141
19070TIP3    H178701   1.872   3.532   3.278  0.3349  0.6728 -0.4895
19070TIP3    H278702   1.817   3.550   3.138  0.9264 -0.4618 -0.8789
19071TIP3   OH278703   5.258   5.140  12.317  0.1940  0.4510  0.2185
19071TIP3    H178704   5.350   5.154  12.294  0.5882 -1.1309  0.7324
19071TIP3    H278705   5.255   5.150  12.412 -0.4642  1.8936  0.0768
19072TIP3   OH278706   1.372   3.648  11.944  0.2525 -0.5832  0.4168
19072TIP3    H178707   1.343   3.683  12.028 -1.0884 -2.6668  0.9008
19072TIP3    H278708   1.352   3.554  11.948  1.4127 -0.9976 -1.7085
19073TIP3   OH278709   3.079   2.121   2.411  0.1847  0.0611 -0.0769
19073TIP3    H178710   3.111   2.159   2.492 -1.1244 -1.3616  1.1782
19073TIP3    H278711   2.990   2.091   2.432  0.3703 -1.7419 -1.5519
19074TIP3   OH278712   3.070   3.177   3.910 -0.7181  0.1913  0.2984
19074TIP3    H178713   3.129   3.102   3.907 -1.7805 -0.7408  1.5825
19074TIP3    H278714   3.117   3.244   3.959 -0.0822  0.0850 -0.1552
19075TIP3   OH278715   2.346   1.228   1.540 -0.1432  0.4064 -0.4123
19075TIP3    H178716   2.333   1.224   1.445  1.9036  0.4408 -0.7270
19075TIP3    H278717   2.263   1.262   1.573 -1.1983 -0.4015 -2.0937
19076TIP3   OH278718   5.463   2.263   1.874 -0.0497 -0.9039  0.1715
19076TIP3    H178719   5.481   2.201   1.945 -1.4382 -2.5240 -0.8116
19076TIP3    H278720   5.500   2.222   1.796  0.6043  0.3945 -0.2195
19077TIP3   OH278721   3.117   5.852   7.028 -0.1754 -0.0141 -0.3389
19077TIP3    H178722   3.180   5.924   7.025 -1.6671  1.3427 -0.7130
19077TIP3    H278723   3.038   5.891   7.066 -0.4788 -1.9401  1.1851
19078TIP3   OH278724   1.285   6.821   5.319 -0.4983 -0.1016  0.0684
19078TIP3    H178725   1.354   6.854   5.377 -0.4126  0.1206 -0.1564
19078TIP3    H278726   1.240   6.900   5.289 -0.4522 -0.2087 -0.2815
19079TIP3   OH278727   5.276   1.575  11.868  0.3521  0.6357  0.1707
19079TIP3    H178728   5.358   1.575  11.819  0.6716 -0.5693  0.6609
19079TIP3    H278729   5.211   1.610  11.807  1.0625  0.7961 -0.5078
19080TIP3   OH278730   6.349   0.941  14.415 -0.2721 -0.4432  1.0007
19080TIP3    H178731   6.369   0.852  14.442 -0.4460 -0.0973  2.3550
19080TIP3    H278732   6.408   0.996  14.466  1.4926  0.1755 -1.4751
19081TIP3   OH278733   2.241   1.811  15.428  0.0488 -0.3704 -0.2313
19081TIP3    H178734   2.285   1.890  15.460 -1.2685  0.3663 -0.1745
19081TIP3    H278735   2.160   1.807  15.478 -0.9917 -0.4711 -1.8722
19082TIP3   OH278736   0.804   0.640   2.999 -0.2644 -0.1385 -0.3988
19082TIP3    H178737   0.751   0.566   2.970 -0.1402  0.3348 -1.9447
19082TIP3    H278738   0.894   0.607   2.999 -0.3872 -0.4827  0.6422
19083TIP3   OH278739   6.482   0.427  16.332 -0.3720  0.2701 -0.3912
19083TIP3    H178740   6.502   0.483  16.257  1.7420 -0.8158 -0.7359
19083TIP3    H278741   6.568   0.394  16.361 -1.4471 -2.6160 -0.1007
19084TIP3   OH278742   3.377   3.267  16.388 -0.4343  0.4450 -0.1798
19084TIP3    H178743   3.344   3.354  16.366  0.9290  1.3442  1.1283
19084TIP3    H278744   3.337   3.208  16.323  0.0192  2.2832 -2.2373
19085TIP3   OH278745   0.031   0.756  11.951  0.1332  0.3274 -0.1411
19085TIP3    H178746  -0.012   0.842  11.954 -0.4761  0.0055  0.8898
19085TIP3    H278747  -0.031   0.700  11.905 -0.6645 -0.1705  1.4675
19086TIP3   OH278748   6.701   6.151  16.035  0.0900  0.1518  0.2625
19086TIP3    H178749   6.682   6.178  15.945  0.0519  0.9139  0.4963
19086TIP3    H278750   6.793   6.171  16.048  0.6315 -1.7781 -0.2378
19087TIP3   OH278751   6.507   6.302   5.500  0.1303 -0.0659  0.5324
19087TIP3    H178752   6.471   6.376   5.548  2.3332  0.3895  1.6164
19087TIP3    H278753   6.579   6.339   5.449 -0.8736 -0.9045 -1.6275
19088TIP3   OH278754   0.932   3.012   1.931  0.1991 -0.1208 -0.1181
19088TIP3    H178755   0.978   3.074   1.875  2.0005 -0.9975  0.3321
19088TIP3    H278756   0.990   2.936   1.937 -1.4805 -1.4438  0.1847
19089TIP3   OH278757   5.828   2.762   1.536 -0.3351 -0.0501  0.4812
19089TIP3    H178758   5.823   2.782   1.629  1.6083 -1.2271  0.9007
19089TIP3    H278759   5.788   2.675   1.528  0.6859 -0.5325  0.4674
19090TIP3   OH278760   3.673   2.035   2.148 -0.3554  0.5451 -0.5808
19090TIP3    H178761   3.746   1.975   2.159 -1.1567 -0.5780 -1.2704
19090TIP3    H278762   3.596   1.979   2.144 -1.1314  1.6240 -1.1964
19091TIP3   OH278763   1.416   2.423   3.178 -0.4164  0.5120 -0.2329
19091TIP3    H178764   1.487   2.415   3.113  0.4962 -0.1497  0.8029
19091TIP3    H278765   1.430   2.509   3.218  0.0544  0.2250  0.2346
19092TIP3   OH278766   5.876   0.511   3.819 -0.7758  0.1044  0.2828
19092TIP3    H178767   5.889   0.447   3.889 -1.2945 -2.3268 -1.6886
19092TIP3    H278768   5.792   0.486   3.780 -1.0062  2.0476 -0.5440
19093TIP3   OH278769   5.900   3.541  13.943  0.1402 -0.2773  0.0046
19093TIP3    H178770   5.887   3.483  13.868  0.8330  0.2846 -0.5725
19093TIP3    H278771   5.919   3.482  14.016  0.3648 -0.7991 -0.4632
19094TIP3   OH278772   0.822   5.399   3.899 -0.1005 -0.4752  0.1215
19094TIP3    H178773   0.737   5.357   3.892  0.1804 -1.2863  1.1996
19094TIP3    H278774   0.871   5.368   3.823 -0.8673  0.3067 -0.7207
19095TIP3   OH278775   5.087   3.637  14.454 -0.2590  0.4463 -0.2877
19095TIP3    H178776   5.088   3.640  14.550 -1.3390 -0.8734 -0.2115
19095TIP3    H278777   5.010   3.689  14.429  0.0588  0.8443 -0.4581
19096TIP3   OH278778   3.448   6.630   2.176  0.0529  0.4031 -0.5434
19096TIP3    H178779   3.532   6.584   2.171 -0.2647 -0.1764 -0.6606
19096TIP3    H278780   3.463   6.699   2.241 -0.2215 -1.5656  1.7655
19097TIP3   OH278781   4.871   6.328   3.160  0.6810  0.2777 -0.0529
19097TIP3    H178782   4.836   6.273   3.230 -1.9219 -0.3863 -1.7531
19097TIP3    H278783   4.832   6.414   3.175 -0.5577 -0.0788 -1.1150
19098TIP3   OH278784   0.280   1.046   2.917  0.3692 -0.3530  0.0067
19098TIP3    H178785   0.373   1.041   2.894  0.4527 -0.1562  0.3048
19098TIP3    H278786   0.241   0.970   2.874  0.6501 -0.3781 -0.2045
19099TIP3   OH278787   6.696   3.642  10.672  0.2114 -0.1112  0.4594
19099TIP3    H178788   6.646   3.723  10.683 -1.4926 -1.2483  1.4636
19099TIP3    H278789   6.678   3.592  10.752  0.2297 -1.9986 -0.6747
19100TIP3   OH278790   3.558   4.307   0.287  0.4625 -0.3013 -0.2718
19100TIP3    H178791   3.547   4.306   0.192  3.1194 -0.7157 -0.6375
19100TIP3    H278792   3.544   4.399   0.312 -0.0242 -0.1478 -1.0926
19101TIP3   OH278793   0.177   2.193  16.902 -0.1648  0.0813 -0.4009
19101TIP3    H178794   0.249   2.160  16.849 -1.1401 -2.5533 -0.2417
19101TIP3    H278795   0.219   2.230  16.980  1.0651 -0.2020 -0.9050
19102TIP3   OH278796   4.288   4.473   4.835  0.3770  0.3101 -0.0733
19102TIP3    H178797   4.241   4.399   4.875  0.7883  0.6077  0.9963
19102TIP3    H278798   4.360   4.432   4.786  2.3126  0.0378  2.7632
19103TIP3   OH278799   6.499   2.513  14.334 -0.3866 -0.6041 -0.1772
19103TIP3    H178800   6.472   2.603  14.349 -0.6261 -0.5477 -0.9051
19103TIP3    H278801   6.545   2.488  14.414  2.3611  1.1651 -1.0503
19104TIP3   OH278802   0.563   2.508   6.425  0.1427  0.4058  0.0144
19104TIP3    H178803   0.482   2.490   6.473  0.4935  3.6925  2.1311
19104TIP3    H278804   0.618   2.431   6.440 -0.8701  0.0733  2.5459
19105TIP3   OH278805   4.994   0.069   1.899  0.4773 -0.6973  0.2530
19105TIP3    H178806   5.000   0.073   1.803 -0.7211 -1.9872  0.0812
19105TIP3    H278807   4.927   0.133   1.922 -0.3181 -1.4305  0.0518
19106TIP3   OH278808   4.022   5.819  16.215 -0.1673 -0.0169  0.2081
19106TIP3    H178809   4.003   5.905  16.179  0.7151 -0.1688 -0.6579
19106TIP3    H278810   4.075   5.776  16.148 -0.3407 -1.1221  0.7607
19107TIP3   OH278811   0.399   0.476   5.498 -0.2344 -0.2257 -0.0288
19107TIP3    H178812   0.375   0.448   5.586  0.9383 -0.8564  0.1049
19107TIP3    H278813   0.396   0.571   5.501  0.6017 -0.2179  0.9388
19108TIP3   OH278814   1.303   2.249  15.926  0.3267 -0.1944 -0.0291
19108TIP3    H178815   1.274   2.294  16.006 -1.8305 -2.1012  0.3654
19108TIP3    H278816   1.251   2.288  15.856  0.9812  0.2763 -0.2722
19109TIP3   OH278817   5.408   1.770  16.696  0.3014 -0.4547 -0.0505
19109TIP3    H178818   5.367   1.724  16.623 -2.7268 -1.7452  2.2451
19109TIP3    H278819   5.336   1.792  16.755  2.6101 -0.3496  3.0174
19110TIP3   OH278820   4.080   1.539  14.954 -0.1750  0.3757  0.3984
19110TIP3    H178821   4.048   1.498  14.873  0.2565 -0.0710  0.4548
19110TIP3    H278822   4.163   1.579  14.928 -1.2647  2.5124 -0.0341
19111TIP3   OH278823   1.499   6.794   2.792  0.3470  0.0322  0.0917
19111TIP3    H178824   1.432   6.859   2.813 -2.0249 -1.9708 -0.7608
19111TIP3    H278825   1.540   6.827   2.712 -0.6827  0.5927 -0.2222
19112TIP3   OH278826   5.172   1.516  16.214  0.1635  0.3587 -0.0727
19112TIP3    H178827   5.196   1.494  16.124 -1.8571  0.1444 -0.6209
19112TIP3    H278828   5.151   1.610  16.210  1.9046  0.8221  0.6519
19113TIP3   OH278829   4.047   2.553   1.158  0.6041 -0.4324  0.6642
19113TIP3    H178830   4.054   2.579   1.249 -1.4600 -1.5545  1.2144
19113TIP3    H278831   4.069   2.459   1.158 -2.0351 -1.1403  0.5653
19114TIP3   OH278832   2.394   5.835  12.899  0.1500 -0.6828 -0.2108
19114TIP3    H178833   2.387   5.797  12.987  1.0045 -0.4227 -0.0191
19114TIP3    H278834   2.304   5.856  12.875 -0.0134  0.1571  1.0134
19115TIP3   OH278835   5.735   5.410  11.482 -0.3053  1.0652 -0.0248
19115TIP3    H178836   5.789   5.364  11.418 -0.8566  2.1197 -1.2793
19115TIP3    H278837   5.784   5.401  11.564 -0.9086 -2.6902  0.1045
19116TIP3   OH278838   3.987   2.039  14.232 -0.0667  0.1392 -0.2654
19116TIP3    H178839   4.063   2.085  14.194  0.1198 -0.1371 -0.2343
19116TIP3    H278840   4.019   2.005  14.315  0.4666 -1.8596 -1.2107
19117TIP3   OH278841   5.730   4.079   2.507 -0.9034  0.3299 -0.3547
19117TIP3    H178842   5.735   4.146   2.438 -2.8969 -0.0933 -0.9685
19117TIP3    H278843   5.637   4.072   2.527 -0.8129 -2.5193 -0.5816
19118TIP3   OH278844   5.222   6.730  13.979  0.0545 -0.4113 -0.4206
19118TIP3    H178845   5.284   6.800  13.998 -1.0749  0.6052 -0.3334
19118TIP3    H278846   5.250   6.657  14.035  0.0294  0.6914  1.0992
19119TIP3   OH278847   6.013   0.760  16.993  0.2975  0.3474  0.6571
19119TIP3    H178848   6.022   0.776  16.899  0.5645 -1.8366  0.2626
19119TIP3    H278849   5.922   0.783  17.013 -0.1047 -0.2609 -0.3966
19120TIP3   OH278850   1.964   5.556   4.180 -0.3602  0.3980 -0.0940
19120TIP3    H178851   1.901   5.484   4.173  0.9703 -0.8176 -0.2255
19120TIP3    H278852   1.995   5.570   4.091  0.3690  0.1786  0.1124
19121TIP3   OH278853   1.722   6.331  12.537  0.8123 -0.1793  0.6447
19121TIP3    H178854   1.702   6.369  12.622 -1.9243  0.7512 -0.3344
19121TIP3    H278855   1.775   6.254  12.558 -1.4173 -1.1367  3.3725
19122TIP3   OH278856   4.920   5.279   5.289  0.3459 -0.1970  0.3097
19122TIP3    H178857   4.976   5.203   5.272 -0.1382 -0.0505 -2.4085
19122TIP3    H278858   4.855   5.277   5.218 -1.1312  1.4449  1.5197
19123TIP3   OH278859   1.735   6.213   1.421 -0.4632 -0.7593 -0.8596
19123TIP3    H178860   1.735   6.122   1.451 -0.8931 -0.3636  0.4050
19123TIP3    H278861   1.777   6.262   1.492  1.9403 -0.2453 -2.5066
19124TIP3   OH278862   6.004   5.850   4.148  0.1613 -0.3561 -0.3098
19124TIP3    H178863   5.936   5.795   4.187  0.8010  0.4087  2.0762
19124TIP3    H278864   5.962   5.935   4.134  0.5349  0.0542  0.9662
19125TIP3   OH278865   6.613   1.389   4.978  0.2055  0.0015  0.1938
19125TIP3    H178866   6.581   1.408   5.066 -1.6198  1.2341 -0.6771
19125TIP3    H278867   6.534   1.369   4.927  1.3408 -2.1129 -0.8641
19126TIP3   OH278868   4.691   3.386  11.037  0.0701  0.0859  0.1583
19126TIP3    H178869   4.685   3.476  11.005 -3.2471 -0.6780 -1.9402
19126TIP3    H278870   4.781   3.360  11.019  0.9440  2.7332  0.2003
19127TIP3   OH278871   0.414   5.868  14.750  0.1944 -0.3059  0.0827
19127TIP3    H178872   0.357   5.809  14.700 -0.4567 -0.0189  0.4734
19127TIP3    H278873   0.353   5.924  14.799  0.7841  1.1390 -0.7873
19128TIP3   OH278874   5.228   1.011  14.595  0.4493 -0.4593  0.6473
19128TIP3    H178875   5.316   0.989  14.625  0.8719 -0.1399 -0.3518
19128TIP3    H278876   5.212   1.098  14.630  0.8051 -0.2329  0.2545
19129TIP3   OH278877   2.632   3.759  11.294 -0.2193  0.2057 -0.3471
19129TIP3    H178878   2.716   3.716  11.276  0.1459  0.5091  0.5508
19129TIP3    H278879   2.576   3.688  11.325 -0.5182 -0.1210 -1.5907
19130TIP3   OH278880   0.330   1.891   2.423 -0.0096  0.6892  0.3194
19130TIP3    H178881   0.235   1.882   2.428  0.0246  0.6900  1.1639
19130TIP3    H278882   0.358   1.900   2.515  0.8712 -0.0128  0.1340
19131TIP3   OH278883   5.099   1.900  11.079 -0.0118 -0.0834  0.1572
19131TIP3    H178884   5.068   1.989  11.092  0.3630  0.1522 -0.5249
19131TIP3    H278885   5.097   1.887  10.985 -0.1053 -0.8130  0.2551
19132TIP3   OH278886   3.826   1.452   0.937  0.0292 -0.4916  0.2821
19132TIP3    H178887   3.908   1.500   0.922 -0.5314  0.5951  0.5763
19132TIP3    H278888   3.795   1.484   1.021  0.5514 -2.7533  1.4137
19133TIP3   OH278889   3.728   0.169   4.275  0.0618  0.4678 -0.1009
19133TIP3    H178890   3.660   0.107   4.249 -1.2725  1.2649  1.3478
19133TIP3    H278891   3.740   0.225   4.198  0.6296 -0.9485 -1.0997
19134TIP3   OH278892   3.781   4.338   3.306  0.5174  0.0409  0.2279
19134TIP3    H178893   3.771   4.254   3.350  0.8902  0.5252  1.2698
19134TIP3    H278894   3.784   4.316   3.213 -1.2297 -0.9313  0.3526
19135TIP3   OH278895   2.986   1.936   3.882 -0.2130  0.1570  0.2849
19135TIP3    H178896   3.052   1.989   3.836 -0.6570 -0.0044 -0.5543
19135TIP3    H278897   3.021   1.847   3.878  0.1592  0.2687  1.0137
19136TIP3   OH278898   5.296   2.651  13.909  0.2627 -0.1429 -0.4088
19136TIP3    H178899   5.290   2.558  13.884 -0.8269  0.6630 -3.6233
19136TIP3    H278900   5.205   2.676  13.929  0.4456  0.4241 -0.2716
19137TIP3   OH278901   3.571   0.931   0.680 -0.4387  0.1764 -0.0655
19137TIP3    H178902   3.646   0.977   0.717 -0.0861 -1.4380  1.3523
19137TIP3    H278903   3.605   0.845   0.657 -1.8124 -0.5546  0.4974
19138TIP3   OH278904   6.033   2.442   0.008  0.3676  0.7061 -0.4547
19138TIP3    H178905   6.016   2.464   0.099 -0.3088 -1.3083 -0.0543
19138TIP3    H278906   6.127   2.427   0.003  0.0527 -2.2867  0.7200
19139TIP3   OH278907   6.686   4.991   0.737  0.0562 -0.4080 -0.3458
19139TIP3    H178908   6.657   5.026   0.652 -0.1454  1.5947  0.4857
19139TIP3    H278909   6.605   4.975   0.785  0.1026  2.8095  1.0594
19140TIP3   OH278910   6.653   3.608  15.143  0.7099 -0.1909  0.5489
19140TIP3    H178911   6.733   3.562  15.171  0.3421 -2.4223 -1.6987
19140TIP3    H278912   6.588   3.539  15.133 -1.8530  1.6485  3.0201
19141TIP3   OH278913   6.108   5.777  12.311 -0.2476  0.1962  1.0487
19141TIP3    H178914   6.135   5.731  12.390  0.4155  1.2686  1.4762
19141TIP3    H278915   6.137   5.867  12.325  0.5837  0.2537 -0.7547
19142TIP3   OH278916   6.679   5.243   3.006  0.2252 -0.0438  0.2547
19142TIP3    H178917   6.749   5.195   2.963  0.4166 -0.2099  0.7396
19142TIP3    H278918   6.670   5.324   2.957  0.9998  0.1347  0.4031
19143TIP3   OH278919   1.955   4.464  16.320  0.0438  0.3990  0.1859
19143TIP3    H178920   1.959   4.386  16.376 -1.2528 -0.2807 -0.6381
19143TIP3    H278921   2.030   4.455  16.261 -1.5480 -1.6394 -1.6589
19144TIP3   OH278922   1.139   1.566   3.152 -0.8870  0.0273 -0.1332
19144TIP3    H178923   1.063   1.509   3.161 -1.9510  0.8027 -3.1040
19144TIP3    H278924   1.103   1.655   3.156  0.2268  0.4649  0.7615
19145TIP3   OH278925   5.237   5.594   5.471 -0.3137 -0.0908 -0.0666
19145TIP3    H178926   5.207   5.504   5.475 -0.2060 -0.0789  1.5858
19145TIP3    H278927   5.332   5.588   5.462 -0.2425 -0.1420  0.7307
19146TIP3   OH278928   1.837   3.350  13.975 -0.2971 -0.1207  0.3048
19146TIP3    H178929   1.812   3.301  13.897  1.4034  0.5721 -0.7463
19146TIP3    H278930   1.797   3.436  13.964 -1.3389 -0.4994  0.9920
19147TIP3   OH278931   3.229   4.023   5.949 -0.0822  0.3241 -0.2952
19147TIP3    H178932   3.318   4.054   5.969  0.4634 -0.8026 -0.8996
19147TIP3    H278933   3.172   4.088   5.990  1.0152  1.5478 -0.6181
19148TIP3   OH278934   5.118   0.537   1.015  0.3277  0.0181  0.5179
19148TIP3    H178935   5.138   0.624   1.049 -1.1047  0.9863 -0.9884
19148TIP3    H278936   5.024   0.527   1.029 -0.6244  0.9249 -3.8335
19149TIP3   OH278937   2.249   1.068  12.224 -0.3943  0.1623  0.3270
19149TIP3    H178938   2.270   1.097  12.136  0.8330  0.6159  0.7501
19149TIP3    H278939   2.304   1.122  12.281 -1.3857  0.0848  1.3892
19150TIP3   OH278940   3.462   0.724   4.742 -0.0945 -0.2950  0.3673
19150TIP3    H178941   3.550   0.704   4.775  0.3630  2.1091  0.7942
19150TIP3    H278942   3.407   0.726   4.820  0.0304  0.8291  0.4306
19151TIP3   OH278943   5.227   0.957  13.637  0.3315  0.0876  0.4123
19151TIP3    H178944   5.254   0.972  13.727 -1.2449  0.9551  0.7666
19151TIP3    H278945   5.282   1.016  13.585 -0.6415  1.6381  1.0897
19152TIP3   OH278946   0.021   2.998   5.592  0.7146 -0.1541 -0.6471
19152TIP3    H178947   0.011   3.036   5.680 -0.1869  1.9488 -1.5917
19152TIP3    H278948   0.111   3.020   5.567  0.0627  1.9483 -1.3722
19153TIP3   OH278949   6.695   2.042   5.688 -0.3817  0.3266 -0.4860
19153TIP3    H178950   6.676   2.133   5.707 -1.2958 -0.0278  0.4230
19153TIP3    H278951   6.610   1.998   5.692  0.0312 -0.5500 -0.9810
19154TIP3   OH278952   3.653   2.952   2.974  0.3554  0.5026 -0.3572
19154TIP3    H178953   3.631   3.044   2.964 -0.4813  0.2010 -1.4574
19154TIP3    H278954   3.627   2.911   2.891 -1.6593 -1.1717  0.9706
19155TIP3   OH278955   1.100   2.447   2.816  0.3619 -0.5041  0.7381
19155TIP3    H178956   1.152   2.475   2.891  1.7315 -0.1758 -0.2981
19155TIP3    H278957   1.136   2.362   2.792  0.3342 -0.3373  0.0941
19156TIP3   OH278958   6.115   1.007   3.369  0.2099 -0.3878 -0.3592
19156TIP3    H178959   6.195   1.037   3.413 -1.2297  0.3489  1.9853
19156TIP3    H278960   6.142   0.988   3.280  2.9558 -0.0202  0.2975
19157TIP3   OH278961   5.090   2.397  15.931  0.1993  0.0152 -0.8105
19157TIP3    H178962   5.116   2.487  15.916  2.2786 -0.4779 -0.3780
19157TIP3    H278963   5.018   2.403  15.994  0.9398  1.3208 -0.0477
19158TIP3   OH278964   4.862   3.135   3.420  0.1351 -0.2400  0.4153
19158TIP3    H178965   4.911   3.059   3.452  1.1619  0.6557  1.0579
19158TIP3    H278966   4.920   3.209   3.438 -0.8100  0.6847 -0.2744
19159TIP3   OH278967   1.335   5.662  14.502 -0.4469 -0.3835  0.5838
19159TIP3    H178968   1.404   5.663  14.567 -0.2105 -1.4347  0.3687
19159TIP3    H278969   1.313   5.754  14.488 -1.3579 -0.1705  3.0423
19160TIP3   OH278970   4.605   1.000  12.342 -0.2711 -0.2527  0.2975
19160TIP3    H178971   4.530   0.942  12.353 -0.2682 -0.4840 -0.8249
19160TIP3    H278972   4.666   0.952  12.286 -0.9445  1.3754 -1.9923
19161TIP3   OH278973   1.162   6.145   0.400  0.2996 -0.0806 -0.3178
19161TIP3    H178974   1.238   6.198   0.425  1.6000 -1.8519 -0.3216
19161TIP3    H278975   1.149   6.167   0.307  0.1527  0.9798 -0.0616
19162TIP3   OH278976   2.905   5.431  15.107 -0.4312  0.4479  0.2331
19162TIP3    H178977   2.989   5.477  15.101 -0.3531  0.2464 -0.2462
19162TIP3    H278978   2.862   5.448  15.023  1.1848 -3.3980 -1.6210
19163TIP3   OH278979   3.028   0.818  14.950  0.0829  0.4461  0.0276
19163TIP3    H178980   3.041   0.899  14.998 -0.4140  0.6991 -0.2647
19163TIP3    H278981   3.049   0.840  14.859  0.8050  0.0252  0.0844
19164TIP3   OH278982   4.250   1.420   1.012 -0.7915 -0.2636  0.0912
19164TIP3    H178983   4.181   1.483   0.990  0.4142  0.5515 -1.5884
19164TIP3    H278984   4.306   1.467   1.072  0.2353  0.4203 -1.3397
19165TIP3   OH278985   5.824   3.941  14.342 -0.3016  0.7358 -0.3885
19165TIP3    H178986   5.779   3.999  14.281  0.0776  1.7212  0.2452
19165TIP3    H278987   5.755   3.887  14.380 -0.7908  1.4138 -0.3055
19166TIP3   OH278988   5.064   6.288   1.892 -0.1984 -0.4260 -0.6381
19166TIP3    H178989   5.110   6.297   1.809  0.5873 -1.0281 -0.2707
19166TIP3    H278990   5.116   6.337   1.955 -0.9305  0.2501 -0.5370
19167TIP3   OH278991   5.891   4.499  14.065  0.0099  0.4176 -0.1965
19167TIP3    H178992   5.821   4.506  14.001 -0.1594 -0.1750 -0.0860
19167TIP3    H278993   5.856   4.440  14.132  0.7187 -0.1412 -0.3006
19168TIP3   OH278994   4.877   6.267  11.654 -0.3015 -0.3681 -0.2196
19168TIP3    H178995   4.829   6.249  11.573 -0.7233 -0.7819  0.1154
19168TIP3    H278996   4.824   6.227  11.722 -0.1862  0.3792  0.3187
19169TIP3   OH278997   3.922   2.540  14.232 -0.0205  0.1326 -0.2284
19169TIP3    H178998   3.952   2.547  14.142 -1.7987 -0.7062 -0.9368
19169TIP3    H278999   3.827   2.530  14.225 -0.3707  1.3495  1.8066
19170TIP3   OH279000   4.320   1.217  11.792  0.2392 -0.2087  0.3427
19170TIP3    H179001   4.324   1.180  11.880 -0.2807  1.1556  0.9727
19170TIP3    H279002   4.239   1.268  11.791 -0.3428 -1.0971 -1.3106
19171TIP3   OH279003   6.591   0.474  11.530 -0.1621  0.3280  0.3560
19171TIP3    H179004   6.526   0.407  11.508 -0.9991  0.9065  1.0507
19171TIP3    H279005   6.655   0.468  11.458  0.1202 -1.6292  0.6988
19172TIP3   OH279006   0.310   5.032   3.658  0.3145 -0.4856  0.6875
19172TIP3    H179007   0.300   4.937   3.655  1.7130 -0.6372 -0.0255
19172TIP3    H279008   0.225   5.064   3.686  0.0045 -1.9815  1.5768
19173TIP3   OH279009   3.331   4.245   1.555 -0.2728  0.1619 -0.5216
19173TIP3    H179010   3.262   4.310   1.568 -0.6871  0.6132 -3.9186
19173TIP3    H279011   3.411   4.296   1.544 -0.3195  0.0427 -1.5643
19174TIP3   OH279012   2.425   2.995  10.340  0.4665  0.0456  0.2284
19174TIP3    H179013   2.404   2.908  10.305  2.5377  0.3779 -2.0804
19174TIP3    H279014   2.517   2.990  10.364 -0.2635  0.5714  3.8177
19175TIP3   OH279015   0.348   5.862   5.578 -0.1461  0.3544  0.0929
19175TIP3    H179016   0.362   5.843   5.485 -1.3596  3.4208 -0.8483
19175TIP3    H279017   0.416   5.926   5.600 -0.0626 -0.1078  1.2517
19176TIP3   OH279018   0.522   6.393   1.464  0.1606 -0.1198 -0.0670
19176TIP3    H179019   0.613   6.365   1.474 -0.5819 -2.0839  2.1603
19176TIP3    H279020   0.473   6.312   1.446 -1.3921  0.5651  0.8256
19177TIP3   OH279021   5.148   5.709   5.686  1.1672 -0.3793 -0.0269
19177TIP3    H179022   5.180   5.675   5.603 -0.0611 -0.9752 -0.2845
19177TIP3    H279023   5.115   5.632   5.732 -1.0820  0.3262 -0.3409
19178TIP3   OH279024   4.991   0.923   2.573  0.3547 -0.1204 -0.0414
19178TIP3    H179025   4.970   1.008   2.614 -1.7837 -0.0970 -1.0930
19178TIP3    H279026   5.030   0.872   2.644 -0.3479  0.9957  1.1975
19179TIP3   OH279027   4.633   0.747   1.575 -0.3681 -0.1116  0.1990
19179TIP3    H179028   4.626   0.820   1.514 -1.5635 -0.2558  0.1263
19179TIP3    H279029   4.600   0.672   1.526 -0.4505 -0.4147  0.7072
19180TIP3   OH279030   3.123   4.868  12.549 -0.1429 -0.7072  0.1682
19180TIP3    H179031   3.028   4.858  12.540 -0.2077 -0.0314  0.1030
19180TIP3    H279032   3.134   4.922  12.627  0.0762  1.4378 -1.2790
19181TIP3   OH279033   6.749   3.004   6.173  0.2567 -0.0436 -0.1163
19181TIP3    H179034   6.685   3.011   6.243  0.1692 -0.6149 -0.1369
19181TIP3    H279035   6.699   3.022   6.093  0.2823  0.2640 -0.0624
19182TIP3   OH279036   4.378   0.160   1.096  0.2003 -0.1687  0.6202
19182TIP3    H179037   4.291   0.122   1.111  0.1836 -1.4387 -2.0416
19182TIP3    H279038   4.369   0.209   1.015  1.6464  0.8843  1.0658
19183TIP3   OH279039   5.705   1.681   6.106 -0.1391  0.4346 -0.3728
19183TIP3    H179040   5.705   1.732   6.187 -1.1312  2.4731 -1.6055
19183TIP3    H279041   5.757   1.603   6.128  1.3169  1.8565  1.6390
19184TIP3   OH279042   6.385   4.550  13.506 -0.2045 -0.1892  0.1408
19184TIP3    H179043   6.339   4.487  13.563 -1.2721 -0.2615 -0.7648
19184TIP3    H279044   6.420   4.497  13.435  2.5823 -0.3537  1.5045
19185TIP3   OH279045   6.586   1.840   4.689  0.3133  0.7449  0.2819
19185TIP3    H179046   6.591   1.935   4.679  0.4466  0.9161  1.7097
19185TIP3    H279047   6.677   1.813   4.704  0.7066 -0.0073 -2.8504
19186TIP3   OH279048   4.740   2.122  13.499 -0.3738  0.2256  0.7007
19186TIP3    H179049   4.779   2.180  13.434  0.1301 -0.0648  0.7373
19186TIP3    H279050   4.721   2.179  13.574 -1.1440  0.6011  0.2362
19187TIP3   OH279051   0.316   6.734  16.821  0.1216  0.1816  0.1404
19187TIP3    H179052   0.373   6.669  16.779  0.0070 -1.2710  2.0837
19187TIP3    H279053   0.360   6.753  16.904  0.3283  2.9390 -0.5178
19188TIP3   OH279054   1.861   4.296   2.142  0.6230  0.4954 -0.4285
19188TIP3    H179055   1.954   4.315   2.133  0.5693  1.3507  0.5940
19188TIP3    H279056   1.818   4.361   2.086  0.6170  0.7227 -0.1671
19189TIP3   OH279057   2.781   6.259   6.995  0.0476  0.0517  0.5184
19189TIP3    H179058   2.768   6.286   6.904  0.0709 -0.5255  0.3426
19189TIP3    H279059   2.712   6.305   7.043 -1.3854 -1.3593 -0.1144
19190TIP3   OH279060   1.461   2.818   2.951  0.2186 -0.1904 -0.4047
19190TIP3    H179061   1.445   2.771   3.033 -1.0091 -1.3090 -1.2537
19190TIP3    H279062   1.430   2.759   2.882 -1.7027  1.9102 -1.5105
19191TIP3   OH279063   3.180   0.270   5.103  0.6183 -0.1372  0.0940
19191TIP3    H179064   3.274   0.284   5.088  0.4343  0.1538 -0.8443
19191TIP3    H279065   3.146   0.239   5.019 -0.0260 -0.8266  0.5916
19192TIP3   OH279066   5.483   4.018  15.892  0.1704  0.1132  0.2818
19192TIP3    H179067   5.536   3.949  15.851 -2.1744 -1.6463  0.0106
19192TIP3    H279068   5.411   4.032  15.831  0.7725  3.1925  0.1403
19193TIP3   OH279069   4.472   1.110   5.154 -0.1260 -0.0682  0.1289
19193TIP3    H179070   4.464   1.088   5.247  0.3971 -0.9165 -0.0185
19193TIP3    H279071   4.411   1.052   5.110  0.1870 -0.1978 -0.1327
19194TIP3   OH279072   1.412   4.426   1.227 -0.0539 -0.2302 -0.1334
19194TIP3    H179073   1.358   4.451   1.302  0.2074 -1.4588  0.4850
19194TIP3    H279074   1.409   4.503   1.169 -0.6595  0.5504  0.8933
19195TIP3   OH279075   0.130   5.308  14.162  0.3512 -1.2285  0.2619
19195TIP3    H179076   0.073   5.317  14.239  0.2900 -0.5992  0.1484
19195TIP3    H279077   0.137   5.396  14.127 -0.7801 -1.7245 -1.3005
19196TIP3   OH279078   2.996   0.603  13.385 -0.2945  0.0422 -0.3953
19196TIP3    H179079   3.032   0.515  13.370  2.8948  0.7742  1.9632
19196TIP3    H279080   3.008   0.648  13.301 -1.9108 -1.6591 -1.6213
19197TIP3   OH279081   6.412   6.583   4.718  0.5460  0.3707  0.7149
19197TIP3    H179082   6.325   6.623   4.717  0.5707  0.4182 -0.0955
19197TIP3    H279083   6.421   6.544   4.631  2.7341  3.4142 -0.5820
19198TIP3   OH279084   5.407   4.070  11.471 -0.0634 -0.8744 -0.3771
19198TIP3    H179085   5.329   4.063  11.417  0.3788  0.1340 -1.1790
19198TIP3    H279086   5.474   4.105  11.412  0.9259 -1.4462  0.3626
19199TIP3   OH279087   5.610   2.559   3.631 -0.0735  0.3355 -0.1662
19199TIP3    H179088   5.677   2.494   3.653 -1.4581 -0.9187  0.4367
19199TIP3    H279089   5.658   2.642   3.628  2.0681 -0.8369 -2.5192
19200TIP3   OH279090   5.012   1.673   0.380  0.0459  0.1391 -0.2409
19200TIP3    H179091   5.018   1.629   0.465  0.9656  0.3268 -0.1992
19200TIP3    H279092   5.098   1.658   0.340  0.2823  1.6458 -0.3532
19201TIP3   OH279093   3.952   2.281  15.807  0.2033 -0.4556  0.4457
19201TIP3    H179094   4.018   2.246  15.746 -0.0562 -0.6548  0.2794
19201TIP3    H279095   3.932   2.208  15.865 -0.5993 -0.6955 -0.1198
19202TIP3   OH279096   0.895   0.145  14.427 -0.5830 -0.8910  0.0027
19202TIP3    H179097   0.821   0.109  14.378 -0.4586 -1.6236  0.3343
19202TIP3    H279098   0.964   0.079  14.419  0.1266 -0.1233 -0.4911
19203TIP3   OH279099   1.326   5.713  15.375  0.6329 -0.0069  0.0167
19203TIP3    H179100   1.389   5.785  15.387 -0.3753  0.6766  1.5531
19203TIP3    H279101   1.267   5.721  15.450 -1.9060  0.0190 -1.8564
19204TIP3   OH279102   3.750   2.056  13.008  0.2431 -0.6433 -0.0928
19204TIP3    H179103   3.831   2.064  12.958 -1.2787  2.3656 -2.5008
19204TIP3    H279104   3.707   1.979  12.971  1.5249 -1.6720  0.5058
19205TIP3   OH279105   3.227   1.932   0.856 -0.0153 -0.7500 -0.6805
19205TIP3    H179106   3.143   1.930   0.901 -0.3809 -1.5698 -1.3958
19205TIP3    H279107   3.206   1.923   0.763  0.8824 -1.6797 -0.8157
19206TIP3   OH279108   6.061   5.864   0.821  0.5197 -0.4691 -0.2013
19206TIP3    H179109   6.132   5.829   0.766  0.3295 -2.9378  0.9944
19206TIP3    H279110   6.099   5.869   0.908 -0.7071 -1.7381  0.4384
19207TIP3   OH279111   4.515   1.663   2.810  0.0570 -0.7714 -0.3985
19207TIP3    H179112   4.563   1.665   2.892 -0.4419 -0.8086 -0.1038
19207TIP3    H279113   4.448   1.595   2.822 -0.3334 -0.4428 -0.6524
19208TIP3   OH279114   1.259   1.624   0.598  0.2596 -0.0859  0.1920
19208TIP3    H179115   1.236   1.579   0.679 -0.7950  0.8396  0.4338
19208TIP3    H279116   1.300   1.706   0.627 -0.7603  0.5784 -0.1681
19209TIP3   OH279117   0.340   1.200  12.739 -0.3886  0.1781  0.3469
19209TIP3    H179118   0.373   1.163  12.657  2.7990 -0.4803  1.7620
19209TIP3    H279119   0.383   1.285  12.746 -1.4089  0.6622  0.8829
19210TIP3   OH279120   5.752   2.644  14.565 -0.4059 -0.6146 -0.9207
19210TIP3    H179121   5.761   2.686  14.651  1.1563 -0.4593 -1.1260
19210TIP3    H279122   5.659   2.627  14.557 -0.4430 -2.1517  1.5414
19211TIP3   OH279123   4.028   3.286  13.796 -0.6990  0.1498 -0.5564
19211TIP3    H179124   4.080   3.260  13.720 -1.4989 -2.7232 -0.2428
19211TIP3    H279125   4.077   3.253  13.872 -0.5521  1.8393  0.1282
19212TIP3   OH279126   0.752   4.602  13.811 -0.4145  0.2466  0.3844
19212TIP3    H179127   0.779   4.598  13.903 -1.5763  0.3943  0.7524
19212TIP3    H279128   0.663   4.567  13.811 -0.1241 -0.5718 -0.8328
19213TIP3   OH279129   2.274   0.411   1.710 -0.5925  0.3262 -0.4035
19213TIP3    H179130   2.219   0.400   1.632 -1.1427  0.6137 -0.0655
19213TIP3    H279131   2.214   0.443   1.777  0.2849  2.0856 -0.4178
19214TIP3   OH279132   3.388   0.439  16.796 -0.6047  0.0092 -0.3146
19214TIP3    H179133   3.441   0.518  16.789  0.3415 -0.6574 -0.9544
19214TIP3    H279134   3.309   0.458  16.746 -1.4562  1.3655  1.4462
19215TIP3   OH279135   3.705   0.350   1.951  0.0345 -0.0666 -0.2273
19215TIP3    H179136   3.793   0.326   1.922 -0.3482 -2.1849  0.1855
19215TIP3    H279137   3.647   0.312   1.885 -0.6730 -1.4983  1.1678
19216TIP3   OH279138   4.618   5.315   2.795 -0.2706 -0.2064  0.3805
19216TIP3    H179139   4.623   5.410   2.790  2.2266 -0.2592  0.6646
19216TIP3    H279140   4.661   5.285   2.714 -0.4171 -1.0871  0.6210
19217TIP3   OH279141   4.302   3.532  15.894 -0.0921 -0.0432 -0.0281
19217TIP3    H179142   4.220   3.489  15.868 -0.2427 -0.1896  0.6633
19217TIP3    H279143   4.317   3.501  15.983  0.9308 -0.3218 -0.2897
19218TIP3   OH279144   2.384   5.567   6.313 -0.5542  0.1719  0.2356
19218TIP3    H179145   2.421   5.617   6.240 -0.0440 -2.0084 -1.0939
19218TIP3    H279146   2.460   5.533   6.359 -0.8964 -0.1566  0.5604
19219TIP3   OH279147   6.700   1.461  12.549 -0.0303 -0.1339 -0.1955
19219TIP3    H179148   6.734   1.521  12.616  0.8435  0.5983 -1.2556
19219TIP3    H279149   6.672   1.384  12.598 -1.2987  1.1746  1.2194
19220TIP3   OH279150   2.832   2.364  12.278  0.3657 -0.7594 -0.4599
19220TIP3    H179151   2.856   2.349  12.187 -3.2469 -3.1131 -1.2690
19220TIP3    H279152   2.857   2.284  12.323  1.6682  0.1879  0.5596
19221TIP3   OH279153   3.557   2.230   5.148 -0.1718  0.1433 -0.5492
19221TIP3    H179154   3.587   2.321   5.141  0.1539  0.1020  0.1526
19221TIP3    H279155   3.583   2.190   5.065 -0.7766  0.8161 -1.0769
19222TIP3   OH279156   3.988   2.042  14.996  0.5244 -0.2742  0.0409
19222TIP3    H179157   3.983   1.955  15.036  1.3223 -0.0809  0.5709
19222TIP3    H279158   4.057   2.087  15.044  0.1137  0.6606 -0.2267
19223TIP3   OH279159   3.653   3.815  11.844 -0.3063  0.3769 -0.6594
19223TIP3    H179160   3.609   3.787  11.764 -0.5517  0.8464 -0.6922
19223TIP3    H279161   3.728   3.867  11.813  0.2274 -0.3512 -0.6019
19224TIP3   OH279162   6.444   5.255  12.828  0.1086  0.2225  0.0147
19224TIP3    H179163   6.413   5.165  12.840 -1.5543  0.9003  1.0396
19224TIP3    H279164   6.373   5.310  12.861  1.8807  1.9027  1.2406
19225TIP3   OH279165   1.085   4.148  14.823 -0.5503  0.1757 -0.0180
19225TIP3    H179166   1.179   4.137  14.807 -0.3765  1.7827 -0.2325
19225TIP3    H279167   1.075   4.126  14.916 -0.0993 -0.7101 -0.1661
19226TIP3   OH279168   5.789   1.939   1.969 -0.3744  0.0980  0.6341
19226TIP3    H179169   5.723   2.005   1.951  1.0673  1.7963  1.3188
19226TIP3    H279170   5.765   1.904   2.055 -2.1550 -1.6409 -0.4819
19227TIP3   OH279171   3.641   0.585  11.158  0.2157 -0.1089 -0.0881
19227TIP3    H179172   3.650   0.646  11.084 -0.9887  1.8265  1.2553
19227TIP3    H279173   3.717   0.527  11.151  0.7592  0.7478 -2.1502
19228TIP3   OH279174   4.552   2.528   3.626 -0.3222  0.1930 -0.9942
19228TIP3    H179175   4.470   2.578   3.621 -0.5886 -0.3351 -2.3503
19228TIP3    H279176   4.536   2.452   3.570  0.6333 -0.6016 -0.2018
19229TIP3   OH279177   0.058   0.093   1.189  0.4671  0.2519 -0.1408
19229TIP3    H179178  -0.006   0.054   1.248  0.3874 -0.1829 -0.5157
19229TIP3    H279179   0.023   0.180   1.169 -0.8635 -0.6017 -1.6844
19230TIP3   OH279180   1.846   6.455  13.725  0.2371  0.0350  0.1425
19230TIP3    H179181   1.776   6.481  13.665 -1.2611 -1.7641  1.0181
19230TIP3    H279182   1.813   6.476  13.812  2.2161  2.2198  0.4706
19231TIP3   OH279183   2.747   5.350  13.025 -0.5496 -0.4094  0.4041
19231TIP3    H179184   2.746   5.445  13.041  2.6878 -0.1728 -0.2032
19231TIP3    H279185   2.734   5.342  12.930  1.2477 -0.3779  0.1253
19232TIP3   OH279186   1.056   1.690   6.690  0.4486  0.2164 -0.2645
19232TIP3    H179187   1.148   1.716   6.698  0.4065  0.3225 -0.1167
19232TIP3    H279188   1.007   1.764   6.726  0.3026  0.1931 -0.4150
19233TIP3   OH279189   3.065   4.981  14.048  0.2098 -0.0117 -0.1024
19233TIP3    H179190   3.131   4.968  14.116  2.6717  0.0635 -2.3304
19233TIP3    H279191   3.052   4.893  14.011 -0.6887  0.0356  0.0960
19234TIP3   OH279192   2.886   6.029  14.095  0.3798  0.0135  0.7179
19234TIP3    H179193   2.842   5.957  14.051 -1.1847  1.2287  0.2134
19234TIP3    H279194   2.882   6.102  14.033  3.2718  0.1907  0.5893
19235TIP3   OH279195   3.423   2.708  10.904  0.9377 -0.6003  0.3700
19235TIP3    H179196   3.352   2.645  10.893  0.1879  0.2157  0.5351
19235TIP3    H279197   3.472   2.703  10.822 -0.4373  0.2384 -0.5327
19236TIP3   OH279198   3.897   2.584  11.804  0.3986  0.4107  0.5789
19236TIP3    H179199   3.943   2.502  11.822 -1.2986 -0.4554  1.1650
19236TIP3    H279200   3.843   2.565  11.727  1.1695  1.4955 -0.2739
19237TIP3   OH279201   1.090   5.193   4.941 -0.1561  0.1507 -0.5133
19237TIP3    H179202   1.026   5.133   4.980 -0.7457  0.0779 -1.5325
19237TIP3    H279203   1.106   5.157   4.854 -0.9405  1.7272 -1.3682
19238TIP3   OH279204   2.531   6.086  13.415  0.0041  0.4295  0.6892
19238TIP3    H179205   2.617   6.059  13.448  0.9237  1.1429 -0.9920
19238TIP3    H279206   2.501   6.153  13.477  0.2682 -0.3989  1.7440
19239TIP3   OH279207   2.406   0.647   0.669 -0.2931  0.2625  0.2673
19239TIP3    H179208   2.478   0.605   0.716  0.3204  0.0801 -0.7907
19239TIP3    H279209   2.397   0.596   0.589 -1.3099  0.5612  0.1786
19240TIP3   OH279210   2.469   4.245   4.067 -0.0734  0.1938  0.4681
19240TIP3    H179211   2.440   4.269   3.979 -2.9162 -0.5456  1.1322
19240TIP3    H279212   2.447   4.321   4.121 -2.2317 -0.8962  1.2278
19241TIP3   OH279213   2.771   2.313  16.750 -0.1579  0.3671  0.5065
19241TIP3    H179214   2.816   2.257  16.813  0.5306  0.9783  0.5666
19241TIP3    H279215   2.759   2.396  16.795  0.3632  0.8194 -0.1656
19242TIP3   OH279216   6.587   2.189   2.744  0.0360 -0.1120  0.4302
19242TIP3    H179217   6.653   2.258   2.751  0.4528 -0.6351  1.9848
19242TIP3    H279218   6.519   2.227   2.688  1.2870  0.7089 -0.6058
19243TIP3   OH279219   6.596   3.181   1.000  0.6105  0.0483  0.3047
19243TIP3    H179220   6.633   3.133   0.925  0.8895 -0.9573  1.0661
19243TIP3    H279221   6.630   3.135   1.077  1.2176  1.7375  1.0783
19244TIP3   OH279222   5.262   4.785  11.531 -0.2256  0.3474 -0.3858
19244TIP3    H179223   5.285   4.699  11.496  1.6864  0.0231  1.4627
19244TIP3    H279224   5.183   4.770  11.584 -0.1943 -0.1722 -0.4892
19245TIP3   OH279225   0.963   1.831   4.692 -0.2183  0.2552  0.2668
19245TIP3    H179226   0.900   1.778   4.740 -0.4681 -0.3793 -0.7219
19245TIP3    H279227   0.999   1.771   4.627  1.3788  0.6172  0.7768
19246TIP3   OH279228   6.112   2.675  12.754 -0.5558  0.7184 -0.0573
19246TIP3    H179229   6.134   2.762  12.724 -2.5486  1.1856 -0.3028
19246TIP3    H279230   6.067   2.634  12.680  0.2126 -0.4888  0.1043
19247TIP3   OH279231   0.258   4.742  13.200  0.7622  0.1891 -0.4998
19247TIP3    H179232   0.295   4.809  13.258 -0.1039  1.7643 -1.6597
19247TIP3    H279233   0.183   4.707  13.249  1.2333  0.0465  0.1297
19248TIP3   OH279234   4.116   3.827  12.170  0.0388  0.3359  0.0078
19248TIP3    H179235   4.165   3.891  12.119 -2.1931  2.0032 -0.2147
19248TIP3    H279236   4.173   3.806  12.245  0.5230  3.2925  0.5719
19249TIP3   OH279237   5.472   5.588   5.257  0.2154 -0.3274 -0.4330
19249TIP3    H179238   5.505   5.643   5.186 -0.6049 -0.8082 -1.2044
19249TIP3    H279239   5.420   5.521   5.214 -2.2555  0.6851  0.7132
19250TIP3   OH279240   4.192   2.203  14.135  0.0747 -0.4770  0.3661
19250TIP3    H179241   4.274   2.221  14.180 -0.6257  2.0800  0.7307
19250TIP3    H279242   4.199   2.249  14.051 -0.6063 -1.0732 -0.0384
19251TIP3   OH279243   1.514   6.588   1.505 -0.0770  0.3604  0.5589
19251TIP3    H179244   1.587   6.549   1.456  0.2706  1.2748  0.3135
19251TIP3    H279245   1.437   6.568   1.452 -0.0037 -0.5689  0.7906
19252TIP3   OH279246   4.814   2.305   5.751 -0.1222  0.1518  0.3321
19252TIP3    H179247   4.757   2.260   5.814 -0.0273  0.9760  1.0305
19252TIP3    H279248   4.869   2.361   5.806 -0.8545  1.8085 -0.5594
19253TIP3   OH279249   2.070   0.374   5.574 -0.6437  0.6056  0.3543
19253TIP3    H179250   2.149   0.342   5.617 -1.2686  0.5745  1.5353
19253TIP3    H279251   2.072   0.336   5.487  0.7020  0.7108  0.3235
19254TIP3   OH279252   1.552   4.908  14.569 -0.2273  0.4669  0.1336
19254TIP3    H179253   1.525   4.831  14.519 -1.2287  1.2632 -0.5863
19254TIP3    H279254   1.620   4.876  14.628  0.8292 -0.5406 -1.5765
19255TIP3   OH279255   5.349   3.089   4.222  0.7901  0.4814  0.4317
19255TIP3    H179256   5.320   3.067   4.311 -0.8925 -2.7961 -0.7424
19255TIP3    H279257   5.281   3.148   4.189 -0.4707 -0.9539  0.3085
19256TIP3   OH279258   1.580   5.440  10.681  0.0053 -0.1056  0.4295
19256TIP3    H179259   1.668   5.404  10.675  0.0884 -0.8386  3.9375
19256TIP3    H279260   1.522   5.363  10.684 -0.3206  0.1484  2.1136
19257TIP3   OH279261   2.487   6.143   2.525 -0.1364  0.3049  0.3310
19257TIP3    H179262   2.527   6.174   2.443 -0.1951  0.0428  0.2024
19257TIP3    H279263   2.500   6.215   2.587  0.5621  0.2151  0.2999
19258TIP3   OH279264   4.096   0.463  16.021 -0.1702 -0.7351 -0.2266
19258TIP3    H179265   4.177   0.510  16.004  1.3189 -3.0550  0.0690
19258TIP3    H279266   4.088   0.461  16.116 -1.1106  0.2755 -0.2617
19259TIP3   OH279267   3.432   5.092   2.429  0.1636 -0.0885 -0.0110
19259TIP3    H179268   3.362   5.032   2.454  0.2456  0.0676  0.6039
19259TIP3    H279269   3.398   5.136   2.350 -1.7238  2.0639  1.8315
19260TIP3   OH279270   4.336   1.629  14.882  0.3237  0.1710  0.4000
19260TIP3    H179271   4.416   1.617  14.933  0.4398  2.2536  0.7769
19260TIP3    H279272   4.327   1.724  14.873 -2.7491  0.0917  1.4211
19261TIP3   OH279273   4.384   1.166   2.441  0.0616  0.0022  0.8517
19261TIP3    H179274   4.423   1.132   2.361 -0.4041  1.7155 -0.1515
19261TIP3    H279275   4.457   1.196   2.494  0.4430 -2.0310  1.5404
19262TIP3   OH279276   2.469   2.984   6.502  0.0829  0.6247 -0.4167
19262TIP3    H179277   2.499   2.894   6.487 -0.8517  0.0875  0.8171
19262TIP3    H279278   2.398   2.996   6.439  0.5401  0.6935 -0.9314
19263TIP3   OH279279   4.146   4.019   0.541  0.1026  0.2592  0.1141
19263TIP3    H179280   4.157   3.930   0.575 -0.5279  0.8708  2.0665
19263TIP3    H279281   4.082   4.059   0.600  0.0193  1.8598 -1.0136
19264TIP3   OH279282   1.283   4.733  16.035 -0.1635  0.0570 -0.3474
19264TIP3    H179283   1.303   4.822  16.066 -1.9198  0.7543 -1.0883
19264TIP3    H279284   1.342   4.720  15.961 -0.7485  1.1352 -1.0276
19265TIP3   OH279285   5.710   6.331  14.175  0.3557  0.4452 -0.0462
19265TIP3    H179286   5.772   6.260  14.155 -0.6499 -0.7078  0.7826
19265TIP3    H279287   5.763   6.410  14.170  1.5481 -0.3620 -0.8981
19266TIP3   OH279288   5.551   4.147  14.529  0.0990  0.1952  0.4351
19266TIP3    H179289   5.629   4.202  14.542  0.5635 -0.4204  0.2989
19266TIP3    H279290   5.520   4.127  14.617  0.4932 -0.1200  0.5013
19267TIP3   OH279291   5.914   5.062  11.073  0.2287  0.2991  0.5087
19267TIP3    H179292   5.947   5.134  11.020 -0.8838 -0.1378 -0.8292
19267TIP3    H279293   5.952   4.984  11.034 -1.7392 -0.1529 -0.6549
19268TIP3   OH279294   3.802   4.106  16.536  0.4304 -0.2145 -0.5390
19268TIP3    H179295   3.860   4.051  16.588  0.7515  0.8854  0.3078
19268TIP3    H279296   3.777   4.177  16.595  0.4613  0.8417 -1.7436
19269TIP3   OH279297   1.957   6.299  15.503 -0.0100 -0.2696  0.3966
19269TIP3    H179298   1.968   6.230  15.568  0.9116  0.6240  1.2277
19269TIP3    H279299   2.015   6.274  15.431  0.4222 -0.2939  0.7533
19270TIP3   OH279300   5.559   2.991   1.281 -0.0687 -0.5048  0.7872
19270TIP3    H179301   5.500   2.974   1.208 -0.3346  1.2711  0.5352
19270TIP3    H279302   5.637   2.938   1.263  0.2568  0.5683 -1.2993
19271TIP3   OH279303   2.762   6.521   1.497 -0.0875 -0.0971 -0.0759
19271TIP3    H179304   2.769   6.608   1.535 -1.3421 -0.1897  0.4187
19271TIP3    H279305   2.751   6.537   1.403  1.3838  0.1924 -0.2237
19272TIP3   OH279306   4.089   1.601  14.649  0.3704  0.4608 -0.2759
19272TIP3    H179307   4.122   1.515  14.622  0.7181  0.6761 -0.5427
19272TIP3    H279308   4.163   1.660  14.637 -0.3852  1.1611 -1.9065
19273TIP3   OH279309   0.058   1.601   0.266 -0.0310 -0.0405  0.5042
19273TIP3    H179310   0.151   1.581   0.255 -0.4697 -1.8569 -0.3600
19273TIP3    H279311   0.048   1.689   0.230  0.8515 -0.9957 -2.4148
19274TIP3   OH279312   3.821   1.524  10.397  0.4943 -0.3509 -0.1817
19274TIP3    H179313   3.854   1.488  10.314  2.0557  2.1104 -0.7213
19274TIP3    H279314   3.776   1.605  10.372  0.3246  0.0377  1.3042
19275TIP3   OH279315   0.792   6.407   3.099 -0.1237  0.5707 -0.3157
19275TIP3    H179316   0.830   6.495   3.092  1.8006 -0.1562  0.3284
19275TIP3    H279317   0.784   6.377   3.008  2.7377  0.0591 -0.5149
19276TIP3   OH279318   3.543   6.675   2.634 -0.6199  0.2191  0.0971
19276TIP3    H179319   3.579   6.695   2.721 -0.2032  0.3788 -0.1122
19276TIP3    H279320   3.614   6.631   2.588 -0.1840  1.8039 -0.8187
19277TIP3   OH279321   6.509   2.298  16.236  0.5906  0.3136  0.0395
19277TIP3    H179322   6.588   2.322  16.284  0.3380  1.4818 -0.1040
19277TIP3    H279323   6.532   2.310  16.144  0.2818  0.5806 -0.0065
19278TIP3   OH279324   4.195   4.642  16.995  0.0932 -0.2728 -0.2550
19278TIP3    H179325   4.230   4.590  16.922 -0.1371  0.1052 -0.6394
19278TIP3    H279326   4.105   4.661  16.969 -0.1295 -0.4977  0.3299
19279TIP3   OH279327   4.489   1.874  16.783 -0.2984 -0.3157  0.1446
19279TIP3    H179328   4.573   1.843  16.749  0.3455 -0.5319  1.8062
19279TIP3    H279329   4.425   1.814  16.745  0.5046 -1.2505  0.2106
19280TIP3   OH279330   4.384   6.498  16.429  0.1557 -0.1664 -0.0223
19280TIP3    H179331   4.407   6.520  16.519 -0.7029 -1.4793  0.5505
19280TIP3    H279332   4.332   6.573  16.398  2.5150  1.4746 -0.3545
19281TIP3   OH279333   6.206   5.448   2.967  0.2205 -0.6152  0.0971
19281TIP3    H179334   6.234   5.360   2.992  1.8896  0.2467  1.4074
19281TIP3    H279335   6.246   5.462   2.881 -0.0137 -1.1003 -0.0967
19282TIP3   OH279336   3.687   5.452  14.828 -0.5238  0.3316 -0.0494
19282TIP3    H179337   3.643   5.369  14.846  0.7064 -0.6934 -1.5070
19282TIP3    H279338   3.654   5.512  14.895 -0.7359 -1.5666  1.6204
19283TIP3   OH279339   5.011   5.392  14.472  0.2009 -0.4856 -0.4723
19283TIP3    H179340   4.980   5.305  14.499  2.7682 -1.2080  0.4853
19283TIP3    H279341   5.030   5.437  14.554 -1.6524  1.2736 -0.9363
19284TIP3   OH279342   1.426   1.387  11.814 -0.2764  0.4560 -0.3061
19284TIP3    H179343   1.396   1.329  11.885 -1.8580  1.1770 -0.3485
19284TIP3    H279344   1.446   1.327  11.742  1.4446 -0.3022  0.7264
19285TIP3   OH279345   3.599   3.952  17.056  0.6406 -0.2461 -0.5753
19285TIP3    H179346   3.516   3.964  17.102  0.3828  2.6750 -1.5492
19285TIP3    H279347   3.583   3.882  16.993 -1.4852  0.9063 -1.4237
19286TIP3   OH279348   1.772   4.682  12.697  0.2030  0.4246  0.2699
19286TIP3    H179349   1.816   4.601  12.670 -1.1392 -0.8744  1.7215
19286TIP3    H279350   1.828   4.752  12.664  0.9707 -1.0625 -1.8053
19287TIP3   OH279351   2.289   3.926  12.540 -0.0759  0.8589  0.4043
19287TIP3    H179352   2.293   3.873  12.461  0.0927 -1.2204  1.7355
19287TIP3    H279353   2.267   4.014  12.509  1.7146  0.5345 -2.0923
19288TIP3   OH279354   2.241   2.378   4.167  0.5132  0.0508  0.3024
19288TIP3    H179355   2.192   2.296   4.171 -1.0035  0.8254 -1.4076
19288TIP3    H279356   2.247   2.406   4.259  0.8562 -1.8101  0.8970
19289TIP3   OH279357   3.614   4.719   3.090  0.4428 -0.7726  0.1079
19289TIP3    H179358   3.559   4.674   3.026  1.0777 -3.4280  1.2937
19289TIP3    H279359   3.703   4.692   3.069  0.8316 -0.2196  0.9805
19290TIP3   OH279360   3.752   1.385  14.377 -0.1016 -0.6583 -0.5392
19290TIP3    H179361   3.675   1.396  14.321 -1.1636  1.8339  1.1901
19290TIP3    H279362   3.719   1.338  14.454  0.2823 -0.2805 -0.1365
19291TIP3   OH279363   3.510   5.999  16.818  0.0982 -0.1448  0.0548
19291TIP3    H179364   3.582   5.938  16.830 -0.1799 -0.6913 -0.9452
19291TIP3    H279365   3.466   5.969  16.738 -0.8026  0.6045  0.2527
19292TIP3   OH279366   1.033   3.951   2.169  0.5430  0.3078  0.1296
19292TIP3    H179367   0.979   4.030   2.171 -2.4319 -1.3652 -3.0684
19292TIP3    H279368   0.988   3.891   2.229  1.3733  0.2367  0.6880
19293TIP3   OH279369   0.133   4.280  11.069 -0.2403  0.8633  0.1183
19293TIP3    H179370   0.046   4.240  11.062  0.5098 -1.4341  2.3342
19293TIP3    H279371   0.172   4.266  10.982 -0.3164 -2.8317  0.5183
19294TIP3   OH279372   3.362   3.537   0.071  0.5498 -0.5676  0.5500
19294TIP3    H179373   3.434   3.518   0.010 -0.3795  0.2460 -0.8485
19294TIP3    H279374   3.323   3.618   0.038 -0.2749 -0.3522  1.9839
19295TIP3   OH279375   6.807   3.290  16.268  0.0693  0.0200 -0.0153
19295TIP3    H179376   6.738   3.356  16.273 -0.5966 -0.7247  1.1845
19295TIP3    H279377   6.772   3.215  16.317 -0.0296 -2.0280 -2.9743
19296TIP3   OH279378   2.351   2.832   2.948 -0.6119  0.2607  0.0087
19296TIP3    H179379   2.435   2.787   2.959 -0.2277  1.0037  0.2128
19296TIP3    H279380   2.356   2.906   3.009 -0.9629  0.9492 -0.7807
19297TIP3   OH279381   6.011   3.922   2.216 -0.2724  0.3848 -0.3776
19297TIP3    H179382   6.040   3.997   2.267 -0.4354  1.2047 -1.4622
19297TIP3    H279383   6.075   3.853   2.236  0.2438  1.0005  0.1315
19298TIP3   OH279384   1.162   6.519  15.141  0.4622  0.2811  0.5504
19298TIP3    H179385   1.238   6.564  15.177 -0.1594  1.8094  0.0306
19298TIP3    H279386   1.087   6.559  15.185 -0.3022  1.8684 -1.9675
19299TIP3   OH279387   6.237   1.812   6.385  0.0898 -0.3386 -0.3121
19299TIP3    H179388   6.167   1.747   6.372 -0.5977  0.2683  0.2333
19299TIP3    H279389   6.190   1.895   6.397  0.8158 -0.1863  1.8728
19300TIP3   OH279390   3.768   2.790  15.507 -0.3549  0.2800  0.2309
19300TIP3    H179391   3.729   2.858  15.562 -3.0434 -0.6295 -0.4077
19300TIP3    H279392   3.726   2.709  15.536 -1.3562 -0.3377 -2.5962
19301TIP3   OH279393   1.939   0.178  13.742 -0.2738 -0.0045 -0.0942
19301TIP3    H179394   1.875   0.112  13.716 -0.4942  0.2137 -0.1023
19301TIP3    H279395   2.017   0.158  13.690 -0.1311 -0.6378  0.3502
19302TIP3   OH279396   0.400   3.713  15.704  0.0713 -0.5880 -0.0882
19302TIP3    H179397   0.463   3.716  15.776  0.6905  0.9378 -0.6614
19302TIP3    H279398   0.437   3.652  15.641 -0.1140 -1.3643  0.5352
19303TIP3   OH279399   0.181   0.947  15.865 -0.1652  0.6623 -0.0513
19303TIP3    H179400   0.265   0.982  15.894 -1.5123  1.9341  2.6520
19303TIP3    H279401   0.146   1.013  15.806  0.4426  0.3783 -0.7539
19304TIP3   OH279402   1.985   5.678   0.974  0.0492  0.1688  0.3080
19304TIP3    H179403   1.957   5.708   0.888  1.1348  0.8978  0.1880
19304TIP3    H279404   2.054   5.614   0.956  0.4213  0.4754  0.6334
19305TIP3   OH279405   0.717   0.179  11.878  0.5900  0.3005  0.4174
19305TIP3    H179406   0.637   0.229  11.893  0.0942  0.0839 -1.2587
19305TIP3    H279407   0.731   0.129  11.959 -0.3002  1.2330  1.1646
19306TIP3   OH279408   3.522   4.740   0.122 -0.6331  0.2174  0.4468
19306TIP3    H179409   3.591   4.804   0.141  0.1159 -0.5455  0.3769
19306TIP3    H279410   3.542   4.709   0.033 -0.8394 -0.2902  0.5724
19307TIP3   OH279411   4.567   6.610   4.465 -0.4252 -0.1917 -0.0502
19307TIP3    H179412   4.482   6.567   4.472 -1.5101  1.2999 -2.8818
19307TIP3    H279413   4.600   6.585   4.379  2.2485 -0.9918  1.0821
19308TIP3   OH279414   5.275   2.722  10.724 -0.0539 -0.4268 -0.9815
19308TIP3    H179415   5.266   2.741  10.817  1.9226  0.3440 -0.8886
19308TIP3    H279416   5.186   2.703  10.694 -0.8550  0.2166  0.8594
19309TIP3   OH279417   4.603   4.181  11.261  0.3301 -0.5232 -0.2605
19309TIP3    H179418   4.531   4.126  11.231  1.4580 -0.8978 -2.5046
19309TIP3    H279419   4.571   4.271  11.251  0.1524 -0.6847 -1.1968
19310TIP3   OH279420   4.831   6.084   2.599 -0.3175 -0.6956 -0.1771
19310TIP3    H179421   4.907   6.091   2.656 -1.6060  2.1418  1.3825
19310TIP3    H279422   4.849   6.007   2.544  3.6356 -0.1205  0.0505
19311TIP3   OH279423   3.509   4.241  14.317 -0.1780  0.5097 -0.6037
19311TIP3    H179424   3.602   4.224  14.332  0.0310  0.1352 -2.1607
19311TIP3    H279425   3.468   4.155  14.324 -0.5507  0.7668  0.7867
19312TIP3   OH279426   4.335   6.413  16.927 -0.9717 -0.0115  0.0454
19312TIP3    H179427   4.347   6.387  17.018  0.8789 -0.2693 -0.2320
19312TIP3    H279428   4.308   6.332  16.882  0.3921 -0.4568 -0.0196
19313TIP3   OH279429   0.728   1.498   6.237 -0.1684  0.1636  0.4307
19313TIP3    H179430   0.674   1.503   6.316 -0.4736  0.2482  0.2174
19313TIP3    H279431   0.749   1.589   6.217  1.0323  0.0790  1.1760
19314TIP3   OH279432   5.423   1.346   1.858 -0.0866  0.4711  0.2509
19314TIP3    H179433   5.418   1.256   1.828 -0.7087 -0.3758  2.6224
19314TIP3    H279434   5.484   1.389   1.799 -0.0013 -1.4238 -1.0997
19315TIP3   OH279435   1.014   0.353   3.912 -0.3089  0.0987  0.4355
19315TIP3    H179436   0.966   0.366   3.994  4.6018 -1.1492  3.9517
19315TIP3    H279437   1.076   0.426   3.908  0.6851 -0.7737 -1.2657
19316TIP3   OH279438   4.255   3.846  10.969  0.0322  0.1351 -0.0905
19316TIP3    H179439   4.349   3.825  10.969 -0.4416 -2.5927 -2.8840
19316TIP3    H279440   4.242   3.897  10.889 -0.7924  1.3499  0.7790
19317TIP3   OH279441   4.899   1.641   3.934  0.2565 -0.0382  0.5299
19317TIP3    H179442   4.932   1.635   4.023  0.4598 -1.6830  0.3800
19317TIP3    H279443   4.933   1.723   3.900  1.0959  0.0662  1.6002
19318TIP3   OH279444   0.101   2.958   0.734 -0.0263 -0.0246 -0.2073
19318TIP3    H179445   0.121   2.867   0.716  1.3984  0.3826 -0.8469
19318TIP3    H279446   0.052   2.957   0.816 -0.3518 -1.3784 -0.3995
19319TIP3   OH279447   5.285   4.521   0.101  0.4657  0.1891  0.5700
19319TIP3    H179448   5.248   4.608   0.082 -0.8097 -0.4312  0.0929
19319TIP3    H279449   5.258   4.467   0.027  1.1323 -0.6525  0.9324
19320TIP3   OH279450   2.130   6.468   4.549  0.2760  0.4918  0.2251
19320TIP3    H179451   2.224   6.483   4.558  0.2202  1.1207 -0.1842
19320TIP3    H279452   2.119   6.436   4.460 -0.0166  1.4375 -0.0830
19321TIP3   OH279453   5.821   4.761   2.283  0.5682  0.4591 -0.3834
19321TIP3    H179454   5.841   4.851   2.309  0.2313  0.3970  0.0988
19321TIP3    H279455   5.727   4.762   2.266  0.3949 -0.0210  0.5174
19322TIP3   OH279456   1.001   4.777   0.353  0.0928 -0.0467 -0.1001
19322TIP3    H179457   1.055   4.730   0.417 -0.1145  0.0045  0.1113
19322TIP3    H279458   0.922   4.724   0.346 -1.0686  1.3422  1.6992
19323TIP3   OH279459   0.110   3.626  10.535 -0.2298  0.1955  0.2580
19323TIP3    H179460   0.019   3.616  10.565 -0.0690 -1.8639  0.2078
19323TIP3    H279461   0.162   3.580  10.601  0.4232 -1.5781 -1.3819
19324TIP3   OH279462   2.161   3.800  13.278 -0.4597 -1.1058 -1.1854
19324TIP3    H179463   2.187   3.728  13.221  1.3424 -2.2067  0.8853
19324TIP3    H279464   2.177   3.768  13.367 -2.7391  0.6784 -0.0148
19325TIP3   OH279465   2.950   0.584  11.280 -0.1705  0.4421  0.2079
19325TIP3    H179466   2.889   0.540  11.220  1.8023  0.8750 -2.2918
19325TIP3    H279467   2.946   0.532  11.360 -2.5014 -0.5424 -0.4459
19326TIP3   OH279468   4.287   0.298   1.635 -1.2943 -0.8374 -0.6241
19326TIP3    H179469   4.349   0.297   1.708 -0.5673 -1.0839 -1.2293
19326TIP3    H279470   4.220   0.361   1.662  0.4418  1.2748 -0.9262
19327TIP3   OH279471   2.790   6.317  14.014 -0.9156  0.6232 -0.1876
19327TIP3    H179472   2.781   6.392  13.956 -0.7274  0.3949 -0.5201
19327TIP3    H279473   2.788   6.354  14.102  0.4712  1.1781 -0.3573
19328TIP3   OH279474   6.712   4.737   0.468  0.4749  0.2026 -0.1950
19328TIP3    H179475   6.663   4.727   0.386  0.0999 -1.2570  0.1842
19328TIP3    H279476   6.646   4.765   0.531  0.5521  0.2965 -0.1567
19329TIP3   OH279477   1.800   6.488   2.130  0.3039  0.5657 -0.2497
19329TIP3    H179478   1.826   6.531   2.212  0.2740  0.3968 -0.1501
19329TIP3    H279479   1.802   6.557   2.065 -2.2867  1.3403  0.3939
19330TIP3   OH279480   6.649   4.578   2.695 -0.3346  0.3519 -0.1099
19330TIP3    H179481   6.647   4.626   2.779  0.5930  0.9608 -0.4204
19330TIP3    H279482   6.698   4.499   2.714 -2.9986 -1.2267  0.7451
19331TIP3   OH279483   3.014   4.149  11.901 -0.1129 -0.6709 -0.4626
19331TIP3    H179484   2.994   4.062  11.936  0.6966 -0.3036  0.9812
19331TIP3    H279485   3.109   4.148  11.890  0.0113  0.3235  0.4092
19332TIP3   OH279486   6.826   0.591  15.415  0.1444  0.6616  0.4705
19332TIP3    H179487   6.903   0.644  15.396  0.5572 -0.3893 -0.9602
19332TIP3    H279488   6.860   0.516  15.464  0.6663 -1.3972 -2.7211
19333TIP3   OH279489   3.884   4.157  14.519 -0.4638  0.3441 -0.4435
19333TIP3    H179490   3.909   4.195  14.435 -1.2434 -1.0108 -1.3068
19333TIP3    H279491   3.967   4.130  14.559 -0.3010 -2.2755 -2.3866
19334TIP3   OH279492   6.083   3.497  16.107 -0.1013  0.1550  0.0965
19334TIP3    H179493   6.051   3.435  16.041 -1.3315  0.3595  0.4809
19334TIP3    H279494   6.081   3.582  16.063  3.4117 -0.2322 -1.0813
19335TIP3   OH279495   5.054   5.769   3.703 -0.4950 -0.1344 -0.0530
19335TIP3    H179496   4.976   5.795   3.653 -0.3230  2.3625  0.8064
19335TIP3    H279497   5.025   5.695   3.757 -1.8121 -0.2555 -0.8808
19336TIP3   OH279498   2.056   3.780   2.685 -0.1101  0.4668  0.6915
19336TIP3    H179499   2.067   3.685   2.684  1.7147  0.6430  0.2529
19336TIP3    H279500   2.094   3.810   2.602 -2.7848  1.4293 -0.3169
19337TIP3   OH279501   5.396   6.826  14.510  0.5555 -0.1666 -0.1936
19337TIP3    H179502   5.345   6.807  14.589 -1.1446 -0.6406 -1.3462
19337TIP3    H279503   5.421   6.740  14.476  2.8185  0.0593  0.7125
19338TIP3   OH279504   0.131   2.650  15.167 -0.3645 -1.1681  0.1876
19338TIP3    H179505   0.091   2.600  15.096 -1.6069 -0.1649  0.1504
19338TIP3    H279506   0.155   2.584  15.233  0.6759 -2.1018 -1.0624
19339TIP3   OH279507   1.938   4.885  12.661  0.2952 -0.2993  0.1114
19339TIP3    H179508   1.985   4.957  12.701 -3.0937  2.7733 -0.8473
19339TIP3    H279509   1.989   4.864  12.583  1.8343  0.4495  0.8751
19340TIP3   OH279510   4.736   4.499   0.887  0.0631  0.0999  0.0987
19340TIP3    H179511   4.692   4.415   0.877  0.1378 -0.0209  0.7157
19340TIP3    H279512   4.685   4.545   0.954 -1.0836  1.3173 -1.5294
19341TIP3   OH279513   0.737   4.025  16.437  0.2173  0.0475 -0.3784
19341TIP3    H179514   0.820   3.994  16.473 -0.2201 -0.8672 -0.1332
19341TIP3    H279515   0.713   3.959  16.372 -0.7140 -0.1136  0.1176
19342TIP3   OH279516   2.304   3.997  15.578  0.1417  0.9583  0.5508
19342TIP3    H179517   2.315   4.083  15.619  1.1301  0.5788  1.1217
19342TIP3    H279518   2.344   3.936  15.640  0.2793  0.1949 -0.2730
19343TIP3   OH279519   0.118   5.534  12.842  0.5315 -0.4870 -0.4708
19343TIP3    H179520   0.068   5.540  12.761  0.2292  0.4355 -0.2272
19343TIP3    H279521   0.064   5.580  12.907  1.5299  0.2306 -0.1246
19344TIP3   OH279522   0.552   4.139  12.364 -0.1330  0.4901  0.1295
19344TIP3    H179523   0.524   4.125  12.273 -0.0825 -1.2159  0.3491
19344TIP3    H279524   0.635   4.092  12.371 -0.4409  0.0856  1.2120
19345TIP3   OH279525   0.080   1.830  13.592  0.2451 -0.4099 -0.1894
19345TIP3    H179526   0.129   1.749  13.610 -0.1991 -0.0955  3.1532
19345TIP3    H279527  -0.007   1.799  13.567  0.3816 -0.9878  0.0151
19346TIP3   OH279528   6.604   6.078  11.978  0.6448 -0.3944 -0.6176
19346TIP3    H179529   6.596   6.095  11.885  0.2774  1.5965 -0.2760
19346TIP3    H279530   6.678   6.018  11.986  1.9204  0.9069 -2.0715
19347TIP3   OH279531   1.536   2.639  10.687 -0.6686  0.2506  0.0353
19347TIP3    H179532   1.625   2.673  10.698 -0.9847  0.8913  0.6508
19347TIP3    H279533   1.546   2.568  10.623  0.2293  0.5287 -0.1508
19348TIP3   OH279534   0.377   6.123   5.872  0.1834 -0.5318 -0.3213
19348TIP3    H179535   0.291   6.103   5.835 -0.4447 -0.8581  1.2437
19348TIP3    H279536   0.397   6.049   5.930  0.5826  0.4731  0.8815
19349TIP3   OH279537   6.164   3.061   3.933  0.0158  0.1182  0.2828
19349TIP3    H179538   6.128   3.039   4.019 -0.1201  0.6552  0.3682
19349TIP3    H279539   6.211   2.982   3.906  1.1191  0.3551  1.4001
19350TIP3   OH279540   2.076   3.360  16.999  0.5176  0.0851  0.7667
19350TIP3    H179541   2.030   3.302  16.937  0.7926 -0.1446  0.7736
19350TIP3    H279542   2.046   3.448  16.976 -1.2640 -0.1786  1.8919
19351TIP3   OH279543   2.892   0.065   1.617  0.1150 -0.7492 -0.0759
19351TIP3    H179544   2.884   0.160   1.621  1.9003 -0.5813  0.7229
19351TIP3    H279545   2.885   0.044   1.524 -0.4392  0.1357 -0.2486
19352TIP3   OH279546   3.663   2.649   5.470 -0.4019 -0.5099 -0.0795
19352TIP3    H179547   3.603   2.574   5.473 -1.4955  0.3539 -0.1462
19352TIP3    H279548   3.722   2.634   5.545 -0.8204 -1.2483  0.1168
19353TIP3   OH279549   5.484   4.075  14.814  0.4162 -0.3808  0.1268
19353TIP3    H179550   5.462   4.110  14.900  1.9549 -0.0286  0.4123
19353TIP3    H279551   5.455   3.984  14.817 -1.2224  0.1209  0.3254
19354TIP3   OH279552   0.923   3.465  17.176 -0.5229  0.0646  0.4343
19354TIP3    H179553   0.868   3.478  17.098  0.2426  0.1341 -0.0974
19354TIP3    H279554   0.864   3.422  17.238 -0.5109 -2.2364 -1.0188
19355TIP3   OH279555   3.732   0.110  13.416  0.3502  0.5302 -0.2086
19355TIP3    H179556   3.703   0.133  13.328  2.4832  2.5144 -0.5065
19355TIP3    H279557   3.688   0.174  13.473 -1.1746 -0.8677  0.2447
19356TIP3   OH279558   5.685   4.936   1.298 -0.4055 -0.0168 -0.1499
19356TIP3    H179559   5.636   4.865   1.338 -2.5183  1.3226 -0.1932
19356TIP3    H279560   5.620   4.985   1.248  0.6692  2.6744  0.9037
19357TIP3   OH279561   4.792   3.438   5.273  0.0498 -0.3924 -0.1273
19357TIP3    H179562   4.717   3.435   5.214 -0.0583 -0.9553  0.0319
19357TIP3    H279563   4.799   3.530   5.298 -1.0275 -0.4307  0.4063
19358TIP3   OH279564   2.215   2.847   5.099  0.3632  0.3198 -0.2845
19358TIP3    H179565   2.263   2.821   5.020 -0.7258 -1.8006 -0.2989
19358TIP3    H279566   2.270   2.816   5.171 -0.2930 -0.8820 -0.2832
19359TIP3   OH279567   0.021   6.403  13.432  0.3810  0.8741 -0.1886
19359TIP3    H179568  -0.025   6.393  13.349  0.5224 -2.9513 -0.0117
19359TIP3    H279569   0.112   6.381  13.411  0.3585 -0.4947  0.9532
19360TIP3   OH279570   1.695   0.790   4.063  0.6733 -0.2597 -0.6109
19360TIP3    H179571   1.664   0.700   4.055 -1.2233  0.1281  1.4161
19360TIP3    H279572   1.766   0.784   4.128  0.9653 -0.3600 -0.9353
19361TIP3   OH279573   1.560   4.789   1.104  0.3345 -0.5257  0.1997
19361TIP3    H179574   1.612   4.868   1.110  0.1015 -0.4070  0.7443
19361TIP3    H279575   1.607   4.725   1.157  0.3223 -0.6393  0.0746
19362TIP3   OH279576   1.974   4.949  13.008  0.0168  0.0245 -0.4173
19362TIP3    H179577   1.938   4.864  13.031 -0.8952  0.5783  0.2544
19362TIP3    H279578   1.910   5.013  13.040  0.6190  0.9652 -1.0121
19363TIP3   OH279579   0.193   4.860   3.184  0.4220 -0.1569 -0.4629
19363TIP3    H179580   0.276   4.876   3.139  0.7890  0.8307  0.5344
19363TIP3    H279581   0.213   4.793   3.250  0.3068 -0.2624 -0.5332
19364TIP3   OH279582   3.889   4.783   6.542  0.1838  0.1731 -0.2681
19364TIP3    H179583   3.813   4.796   6.598  1.7369 -0.1425  2.0554
19364TIP3    H279584   3.914   4.872   6.514 -0.3699  0.3721 -0.1323
19365TIP3   OH279585   1.123   3.894   1.408  0.0664  0.2443  0.7636
19365TIP3    H179586   1.070   3.869   1.332  0.5724  2.4483 -0.4078
19365TIP3    H279587   1.191   3.826   1.413 -1.0611 -0.9512  0.4243
19366TIP3   OH279588   1.409   4.428   2.609  0.4275  0.1625 -0.2434
19366TIP3    H179589   1.436   4.337   2.623 -0.4903 -0.5137 -2.4551
19366TIP3    H279590   1.491   4.478   2.614  1.4969 -1.2285 -2.0867
19367TIP3   OH279591   1.470   4.379   4.403  0.2432  0.1978  0.2501
19367TIP3    H179592   1.438   4.469   4.413 -0.4520  0.0254 -0.3782
19367TIP3    H279593   1.500   4.355   4.491  0.3388  1.0016  0.4515
19368TIP3   OH279594   5.989   1.797  14.982 -0.0299 -0.2300  0.7777
19368TIP3    H179595   5.924   1.729  14.966 -0.3994 -0.0267  1.3693
19368TIP3    H279596   6.041   1.800  14.902  0.1183 -1.3322  0.8225
19369TIP3   OH279597   0.713   2.156  11.307 -0.5814 -0.0725  0.0840
19369TIP3    H179598   0.630   2.108  11.313 -0.8119  0.4128  1.0265
19369TIP3    H279599   0.688   2.247  11.319  0.1575  0.0184  1.0181
19370TIP3   OH279600   5.624   3.226  10.984  0.1234 -0.0447  0.0045
19370TIP3    H179601   5.566   3.151  10.996 -0.6640  0.5324 -0.0306
19370TIP3    H279602   5.599   3.262  10.899  0.4435  0.2931  0.0516
19371TIP3   OH279603   1.860   1.161  12.704  0.7287 -0.3204 -0.7164
19371TIP3    H179604   1.930   1.211  12.747 -0.0766 -0.4036  0.7361
19371TIP3    H279605   1.907   1.103  12.643  1.8614  0.1886 -0.3601
19372TIP3   OH279606   5.852   5.273  16.446 -0.7021  0.0622  0.0401
19372TIP3    H179607   5.801   5.192  16.457  0.6096 -0.8256 -0.1728
19372TIP3    H279608   5.924   5.264  16.508 -0.5157  1.0587 -0.0242
19373TIP3   OH279609   4.205   1.218   3.315  0.1775  0.2309 -0.3886
19373TIP3    H179610   4.240   1.129   3.314  0.0459  0.1760 -0.1636
19373TIP3    H279611   4.114   1.208   3.345  0.2150  0.4593 -0.1993
19374TIP3   OH279612   4.784   2.747  11.760 -0.1108  0.5366  0.2948
19374TIP3    H179613   4.800   2.681  11.828  1.1095  1.2756  0.7727
19374TIP3    H279614   4.854   2.732  11.697  0.8314  2.0017  0.9361
19375TIP3   OH279615   1.698   6.425  12.805 -0.3698  0.5004 -0.2757
19375TIP3    H179616   1.665   6.505  12.846  0.7323  0.5090  0.6608
19375TIP3    H279617   1.651   6.354  12.849  0.1273  0.5564  0.3728
19376TIP3   OH279618   1.911   2.275  14.236 -0.4384  0.3832 -0.4343
19376TIP3    H179619   2.006   2.283  14.233 -0.3394 -0.6177 -0.3558
19376TIP3    H279620   1.884   2.336  14.304  0.2245  0.1295  0.0719
19377TIP3   OH279621   6.012   6.023  10.674 -0.4613  0.0417 -0.2035
19377TIP3    H179622   6.029   5.935  10.707  1.1696 -0.1361 -1.3805
19377TIP3    H279623   5.921   6.020  10.646 -0.9186 -0.7554  1.2911
19378TIP3   OH279624   1.538   6.289   3.021  0.0520 -0.4559 -0.1506
19378TIP3    H179625   1.558   6.240   2.941  1.0966 -0.0356 -0.1676
19378TIP3    H279626   1.494   6.368   2.990  2.3105  0.7414 -0.5629
19379TIP3   OH279627   5.031   2.384  15.592  0.2150 -0.0266 -0.1366
19379TIP3    H179628   4.975   2.313  15.623  0.6915 -0.0799  0.6294
19379TIP3    H279629   4.996   2.407  15.506 -1.1380  0.1203  0.4380
19380TIP3   OH279630   0.496   3.137   2.667  0.1370 -0.3717  0.0018
19380TIP3    H179631   0.579   3.093   2.686 -0.1359 -0.7089  0.4339
19380TIP3    H279632   0.440   3.113   2.740  0.0955  0.9993  0.4410
19381TIP3   OH279633   1.325   4.963  12.154 -0.1795 -0.2679  0.4118
19381TIP3    H179634   1.330   4.879  12.108 -0.1012 -1.5613  2.6778
19381TIP3    H279635   1.249   5.007  12.115 -0.0856 -1.2427 -0.9627
19382TIP3   OH279636   4.999   3.290   6.047  0.3328  0.0464 -0.1476
19382TIP3    H179637   5.046   3.270   6.128 -0.0362  2.0967  0.6274
19382TIP3    H279638   5.067   3.318   5.986  0.4317  0.0968 -0.0141
19383TIP3   OH279639   6.481   5.669  14.605 -0.0932  0.1760  0.2313
19383TIP3    H179640   6.491   5.682  14.511  0.9834  1.3973  0.4842
19383TIP3    H279641   6.474   5.758  14.640 -2.2433 -0.2896  1.1551
19384TIP3   OH279642   5.283   0.809   0.739  0.2822  0.2434 -0.1043
19384TIP3    H179643   5.286   0.856   0.655 -1.7587 -2.3989 -1.8295
19384TIP3    H279644   5.318   0.722   0.719  3.1395  0.5653  2.7427
19385TIP3   OH279645   1.169   5.106  13.818 -0.5620  0.1544  0.6001
19385TIP3    H179646   1.211   5.050  13.754  2.6748  2.7354  0.1822
19385TIP3    H279647   1.201   5.074  13.903  0.2130  0.5271  0.4546
19386TIP3   OH279648   3.128   1.154   0.623  0.0670  0.2588  0.1129
19386TIP3    H179649   3.159   1.064   0.630 -1.0456 -0.1465 -0.0437
19386TIP3    H279650   3.203   1.207   0.651  0.1916 -0.7785  1.9172
19387TIP3   OH279651   5.614   4.705   5.307  0.3218 -0.1589  0.5351
19387TIP3    H179652   5.703   4.719   5.339 -0.1194 -0.8122  2.1592
19387TIP3    H279653   5.612   4.612   5.282  0.2725  0.0121 -0.1037
19388TIP3   OH279654   1.606   1.487   2.070  0.3021  0.4357 -0.2997
19388TIP3    H179655   1.562   1.487   2.155  1.3899 -0.2689  0.2872
19388TIP3    H279656   1.585   1.573   2.032  0.0090  0.8548  0.7773
19389TIP3   OH279657   2.450   3.112   1.558 -0.3033 -0.4110  0.0652
19389TIP3    H179658   2.447   3.028   1.512 -2.7666  0.1578 -1.0193
19389TIP3    H279659   2.503   3.169   1.503 -0.8678 -0.5407 -0.6287
19390TIP3   OH279660   3.258   1.096   1.356  0.1783 -0.0015  0.5207
19390TIP3    H179661   3.302   1.178   1.379 -1.2494  1.0176 -0.1212
19390TIP3    H279662   3.323   1.028   1.370  1.1116  1.1383  2.0224
19391TIP3   OH279663   1.066   6.221   1.749 -0.4408 -0.1957  0.0736
19391TIP3    H179664   1.062   6.299   1.804  0.4535  0.4665 -0.7673
19391TIP3    H279665   1.021   6.153   1.800 -0.5715  0.6675  1.1400
19392TIP3   OH279666   3.734   0.287  11.518 -0.0335  0.5360 -0.4923
19392TIP3    H179667   3.753   0.372  11.479 -0.8345  0.4058 -1.1961
19392TIP3    H279668   3.652   0.259  11.477 -1.2272  0.6255  1.6414
19393TIP3   OH279669   4.361   3.898   4.471 -0.0930 -0.4984 -0.5642
19393TIP3    H179670   4.405   3.853   4.543 -0.0958  0.1015 -0.1760
19393TIP3    H279671   4.348   3.831   4.404 -0.3534 -1.1347  0.1122
19394TIP3   OH279672   4.754   1.352   0.243 -0.0331 -0.1077 -0.5410
19394TIP3    H179673   4.706   1.286   0.192 -0.0365  0.5963 -1.4920
19394TIP3    H279674   4.846   1.333   0.225 -0.0044 -0.3762 -0.1236
19395TIP3   OH279675   3.759   0.540  11.422 -1.1954  0.4139  0.8930
19395TIP3    H179676   3.824   0.610  11.417 -0.3439 -0.4282 -0.2755
19395TIP3    H279677   3.707   0.550  11.343 -0.5040 -0.7938  0.2652
19396TIP3   OH279678   5.405   0.551   0.617  0.1886 -0.1179 -0.7292
19396TIP3    H179679   5.417   0.456   0.619 -0.1394 -0.2590 -2.8683
19396TIP3    H279680   5.490   0.586   0.644 -0.3919 -0.9038  2.6776
19397TIP3   OH279681   5.856   6.323   3.800 -0.0667  0.2931  0.3337
19397TIP3    H179682   5.813   6.246   3.763  1.6600 -0.8964  0.6424
19397TIP3    H279683   5.791   6.393   3.795 -0.8209 -0.4860 -2.4515
19398TIP3   OH279684   0.469   6.574  11.424 -0.1799  0.4875 -0.0413
19398TIP3    H179685   0.469   6.606  11.334  2.9375  1.0890  0.0609
19398TIP3    H279686   0.526   6.498  11.423 -0.7819 -0.0160  1.2998
19399TIP3   OH279687   5.968   1.747  12.104 -0.3892  0.2218  0.2317
19399TIP3    H179688   5.983   1.656  12.131  1.4734  0.6368  0.7307
19399TIP3    H279689   5.905   1.781  12.168  0.1024 -0.2677  0.9882
19400TIP3   OH279690   6.735   0.841  14.852 -0.1477  0.2869 -0.0134
19400TIP3    H179691   6.722   0.755  14.812 -1.8868  1.2323 -1.6226
19400TIP3    H279692   6.749   0.823  14.945  3.2522 -1.9532 -0.7828
19401TIP3   OH279693   2.632   4.831   1.781  0.0778  0.2353 -0.3821
19401TIP3    H179694   2.574   4.795   1.714 -1.6390  0.1946  1.0427
19401TIP3    H279695   2.651   4.920   1.752  1.1106 -0.4748 -1.9562
19402TIP3   OH279696   6.091   2.176  14.111 -0.0445 -1.0200 -0.2082
19402TIP3    H179697   6.152   2.230  14.162  1.5351 -1.5584 -1.4358
19402TIP3    H279698   6.013   2.231  14.100 -0.7567 -1.1152  3.2626
19403TIP3   OH279699   2.170   5.744   4.315  0.3807  0.1002 -0.0440
19403TIP3    H179700   2.242   5.744   4.252  0.2905  0.3071 -0.1492
19403TIP3    H279701   2.103   5.687   4.275  0.9644 -1.0983  0.6177
19404TIP3   OH279702   1.418   2.528   5.357  0.7731  0.0982  0.0263
19404TIP3    H179703   1.390   2.446   5.317  0.2574  0.0170  0.5475
19404TIP3    H279704   1.514   2.525   5.354  0.7679  0.6405 -2.3119
19405TIP3   OH279705   3.711   2.449  11.650 -0.0263 -0.0914 -0.2405
19405TIP3    H179706   3.670   2.463  11.565 -1.8780  1.6373  0.8418
19405TIP3    H279707   3.673   2.367  11.682  0.0485 -0.3157 -0.7265
19406TIP3   OH279708   1.639   2.078   4.264  0.0333  0.5290  0.1540
19406TIP3    H179709   1.569   2.017   4.286 -0.7187  1.8142  1.4809
19406TIP3    H279710   1.605   2.128   4.190  0.1184  0.2287 -0.0899
19407TIP3   OH279711   5.633   2.260  13.887  0.1036 -0.2760  0.2955
19407TIP3    H179712   5.601   2.286  13.801 -1.8661 -1.4974  0.6051
19407TIP3    H279713   5.569   2.296  13.949  0.4102 -1.0856  1.1018
19408TIP3   OH279714   2.865   3.968   6.079  0.0869 -0.4832 -0.6114
19408TIP3    H179715   2.943   3.912   6.084 -0.0728 -0.5855  0.9919
19408TIP3    H279716   2.791   3.908   6.088 -0.0805 -0.0374  1.4593
19409TIP3   OH279717   2.426   4.710  16.975 -0.2965 -0.5123 -0.2590
19409TIP3    H179718   2.520   4.724  16.985 -0.4120  0.4466 -0.4032
19409TIP3    H279719   2.386   4.759  17.047 -0.6266 -2.1787  0.7257
19410TIP3   OH279720   4.926   4.541  15.527 -0.3688  0.2540  0.2130
19410TIP3    H179721   4.972   4.551  15.611 -0.4049 -3.2255  0.7728
19410TIP3    H279722   4.979   4.591  15.465  1.7214 -0.0539  1.6514
19411TIP3   OH279723   5.108   3.324   3.431  0.2447  0.0818 -0.3935
19411TIP3    H179724   5.131   3.296   3.342  0.7640  0.5778 -0.4233
19411TIP3    H279725   5.189   3.363   3.465 -0.5541  1.9973 -0.5462
19412TIP3   OH279726   1.170   3.001  14.291 -0.1027  0.2826  0.1169
19412TIP3    H179727   1.264   3.018  14.282  0.0310 -0.6938 -0.4723
19412TIP3    H279728   1.149   2.945  14.216 -0.9061 -0.4927  0.9097
19413TIP3   OH279729   6.062   4.883   3.583  0.4691 -0.1872 -0.0939
19413TIP3    H179730   6.112   4.898   3.503  1.6940  0.0801  0.6854
19413TIP3    H279731   6.123   4.908   3.653 -1.1054  1.1287  0.8648
19414TIP3   OH279732   4.731   1.425   4.475  0.7418  0.2974  0.7124
19414TIP3    H179733   4.661   1.491   4.471  0.6583  0.2514  1.2794
19414TIP3    H279734   4.775   1.432   4.390 -0.4589 -0.2451  0.0196
19415TIP3   OH279735   6.676   3.143  11.337  0.4988  0.1071 -0.3260
19415TIP3    H179736   6.728   3.064  11.322 -0.9611 -0.8797 -0.3601
19415TIP3    H279737   6.659   3.177  11.249 -0.1553 -0.4179 -0.4130
19416TIP3   OH279738   2.880   1.155   4.099  0.7070 -0.6330  0.3913
19416TIP3    H179739   2.898   1.227   4.038  1.1293 -0.4104  0.7737
19416TIP3    H279740   2.806   1.108   4.060  0.7888 -0.3213 -0.1439
19417TIP3   OH279741   4.737   2.079   3.812 -0.8036 -0.1942 -0.3349
19417TIP3    H179742   4.829   2.087   3.838 -0.5234  0.3333 -1.4313
19417TIP3    H279743   4.740   2.079   3.716 -1.8049 -1.8652 -0.4064
19418TIP3   OH279744   6.490   4.415  14.072  0.1973  0.0676 -0.1309
19418TIP3    H179745   6.447   4.374  13.996  0.0296 -0.1772  0.0942
19418TIP3    H279746   6.583   4.411  14.051  0.2216 -0.8475  0.0830
19419TIP3   OH279747   0.412   0.080   2.192 -0.4936  0.3878  0.2256
19419TIP3    H179748   0.457   0.145   2.245 -0.7220  1.2540 -0.6023
19419TIP3    H279749   0.480   0.038   2.141 -0.7029  4.6184 -4.2734
19420TIP3   OH279750   4.318   3.363  13.207  0.4267 -0.5685  0.3710
19420TIP3    H179751   4.284   3.379  13.295  1.7892  0.2343  0.7829
19420TIP3    H279752   4.246   3.320  13.161 -0.3802 -0.8344  1.8134
19421TIP3   OH279753   3.964   1.788   1.785  0.1747 -0.2955  0.3582
19421TIP3    H179754   3.951   1.696   1.761 -2.8105  0.9934 -4.3169
19421TIP3    H279755   4.040   1.815   1.733 -0.9249  0.4980 -0.9126
19422TIP3   OH279756   1.338   4.615  14.683  0.5468 -0.4731 -0.0708
19422TIP3    H179757   1.274   4.686  14.687  1.0964  0.1405 -1.4051
19422TIP3    H279758   1.310   4.553  14.750 -0.1990  0.7905  0.8239
19423TIP3   OH279759   3.641   1.447   4.634 -1.0186 -0.0436  0.0619
19423TIP3    H179760   3.733   1.474   4.632 -1.6314  2.1680 -1.0211
19423TIP3    H279761   3.623   1.428   4.726  0.8783 -2.0871  0.1095
19424TIP3   OH279762   1.139   0.886  13.690 -0.0945  0.7053 -0.1364
19424TIP3    H179763   1.210   0.931  13.735 -0.2065 -1.0535  1.9755
19424TIP3    H279764   1.179   0.806  13.656 -0.5519  0.8704 -1.0873
19425TIP3   OH279765   4.263   1.576   5.833  0.0309  0.4572 -0.0877
19425TIP3    H179766   4.281   1.483   5.822  1.3600  0.6386  0.3952
19425TIP3    H279767   4.304   1.599   5.917 -1.2364  1.2472  0.3473
19426TIP3   OH279768   5.281   4.040  15.701 -0.2285 -0.4619 -0.0334
19426TIP3    H179769   5.287   4.103  15.629 -1.3786 -0.9475 -0.5694
19426TIP3    H279770   5.262   3.956  15.659 -1.3187 -0.6820  0.8481
19427TIP3   OH279771   6.797   0.101  12.945 -0.0561  0.0813  0.4643
19427TIP3    H179772   6.750   0.106  13.028  0.8606 -3.4262  1.3376
19427TIP3    H279773   6.888   0.086  12.969  1.0073  2.9209 -1.2551
19428TIP3   OH279774   1.905   5.295   5.287 -0.1745 -0.1987 -0.3771
19428TIP3    H179775   1.939   5.226   5.345  1.5297  0.0486 -1.0213
19428TIP3    H279776   1.931   5.376   5.331  2.0325  0.0024 -1.8878
19429TIP3   OH279777   6.721   5.554   3.065 -0.2727  0.0076  0.1223
19429TIP3    H179778   6.685   5.532   2.979  0.5425 -0.2573 -0.1662
19429TIP3    H279779   6.647   5.545   3.125 -0.3955 -1.8924 -0.2409
19430TIP3   OH279780   2.758   4.230  11.813 -0.1325  0.4370 -0.3397
19430TIP3    H179781   2.736   4.303  11.870  0.2522  0.0085  0.3742
19430TIP3    H279782   2.842   4.198  11.846 -0.5894 -0.7163 -0.2460
19431TIP3   OH279783   0.226   6.360  14.131  0.2708  0.3010 -0.6461
19431TIP3    H179784   0.230   6.265  14.122  0.8687  0.4052 -1.6367
19431TIP3    H279785   0.263   6.377  14.218 -3.0622 -0.5697  1.1277
19432TIP3   OH279786   5.529   4.332  11.091 -0.4052 -0.9343  0.1016
19432TIP3    H179787   5.522   4.252  11.038 -1.6663  0.0741 -1.3491
19432TIP3    H279788   5.505   4.402  11.031  2.5559  0.8042  0.7753
19433TIP3   OH279789   5.980   4.752   0.528 -0.1503  0.5691  0.1639
19433TIP3    H179790   5.954   4.689   0.460 -0.0646 -0.9276  1.4515
19433TIP3    H279791   5.915   4.740   0.597 -0.6948  2.6243  0.0582
19434TIP3   OH279792   2.449   0.663   5.377 -0.0875  0.1897 -0.4387
19434TIP3    H179793   2.399   0.682   5.456 -2.0809  1.0530 -1.7995
19434TIP3    H279794   2.423   0.575   5.352  0.8113 -0.2173  0.0489
19435TIP3   OH279795   6.425   5.860   1.400  0.1879  0.2225 -0.2152
19435TIP3    H179796   6.486   5.881   1.470 -0.8977 -1.6440  1.3919
19435TIP3    H279797   6.476   5.806   1.339  0.3317 -0.7815  0.7745
19436TIP3   OH279798   6.471   4.026  12.934 -0.0565  0.0050 -0.3934
19436TIP3    H179799   6.551   4.077  12.923 -0.3815  0.4178 -0.8854
19436TIP3    H279800   6.475   3.994  13.024 -0.4056  1.8839  0.3368
19437TIP3   OH279801   4.945   4.842  13.808 -0.2817 -0.1349 -0.2125
19437TIP3    H179802   4.887   4.769  13.831  0.5598 -0.1565  2.1285
19437TIP3    H279803   4.893   4.920  13.825  0.0253 -0.1678  0.9394
19438TIP3   OH279804   4.225   2.664   3.397 -0.0498  0.1353  0.3280
19438TIP3    H179805   4.313   2.678   3.361 -0.3288 -1.4242 -1.1096
19438TIP3    H279806   4.169   2.724   3.349  0.1407  0.7996  0.9185
19439TIP3   OH279807   2.485   3.182   4.875  0.2841  0.2606 -0.5820
19439TIP3    H179808   2.538   3.261   4.883 -0.6824  0.9249 -0.4329
19439TIP3    H279809   2.455   3.164   4.965  0.4512 -0.2378 -0.6258
19440TIP3   OH279810   4.428   0.100   4.868 -0.4655 -0.2322  0.3088
19440TIP3    H179811   4.440   0.078   4.776 -2.0823 -0.3336  0.0882
19440TIP3    H279812   4.432   0.016   4.914 -0.2177 -0.2494  0.2516
19441TIP3   OH279813   4.835   6.260  15.556 -0.0687 -0.0095  0.3483
19441TIP3    H179814   4.818   6.195  15.624 -0.3085 -1.8650 -1.3782
19441TIP3    H279815   4.901   6.317  15.594 -0.6692 -0.5513  2.3655
19442TIP3   OH279816   5.069   1.913   3.799 -0.2311  0.3497  0.1942
19442TIP3    H179817   5.157   1.945   3.819  0.0853 -1.3636  1.8544
19442TIP3    H279818   5.082   1.825   3.765 -1.1861  1.0954 -2.3143
19443TIP3   OH279819   0.907   6.172   5.946 -0.2260 -0.2187  0.0115
19443TIP3    H179820   0.905   6.236   6.018 -0.2766 -0.8670  0.5948
19443TIP3    H279821   0.978   6.201   5.890  0.5281 -0.3153  0.8996
19444TIP3   OH279822   6.672   1.515  14.297 -0.3735 -0.2995 -0.2259
19444TIP3    H179823   6.599   1.481  14.245 -0.4626  0.3351 -0.5323
19444TIP3    H279824   6.705   1.589  14.246 -0.2773  0.1580  0.4844
19445TIP3   OH279825   0.192   5.994   0.064  0.1517  0.2569 -0.0184
19445TIP3    H179826   0.126   5.938   0.105  1.0533 -0.4656  0.4838
19445TIP3    H279827   0.202   6.067   0.125  0.7096 -0.2726  0.5488
19446TIP3   OH279828   5.706   0.244  14.532 -0.2601  0.2973 -0.3368
19446TIP3    H179829   5.777   0.261  14.594  0.0960 -1.5955 -0.1808
19446TIP3    H279830   5.747   0.200  14.458 -0.9691  0.9938 -1.1752
19447TIP3   OH279831   5.912   5.367   1.942  0.1407  0.0954 -0.2700
19447TIP3    H179832   5.970   5.292   1.954  2.2561  1.4350 -1.5103
19447TIP3    H279833   5.855   5.366   2.019  1.9884 -1.1478  1.1726
19448TIP3   OH279834   3.493   5.311   0.792  0.1372 -0.7861  0.0752
19448TIP3    H179835   3.448   5.265   0.862 -0.3752  0.6571  0.7351
19448TIP3    H279836   3.584   5.317   0.820 -0.2049  0.4153  0.9802
19449TIP3   OH279837   5.405   4.089   0.355 -0.2458  0.1979 -0.0519
19449TIP3    H179838   5.319   4.129   0.368  0.2554  1.1643  0.4052
19449TIP3    H279839   5.465   4.144   0.406  0.1050 -2.7994  3.1849
19450TIP3   OH279840   0.422   0.372  12.290  0.0449  0.2216 -0.1098
19450TIP3    H179841   0.328   0.352  12.288 -0.1453  1.1211 -0.8852
19450TIP3    H279842   0.427   0.459  12.329  0.8422 -1.1284  3.1161
19451TIP3   OH279843   2.223   4.997  14.058 -0.0317  0.0852  0.0369
19451TIP3    H179844   2.132   4.989  14.030 -0.8851 -0.2259  2.5789
19451TIP3    H279845   2.225   4.953  14.143  1.8541  2.4505  1.3390
19452TIP3   OH279846   0.425   1.538  15.715  0.0550 -0.2640  0.5080
19452TIP3    H179847   0.388   1.603  15.655 -4.2267 -3.6948 -1.1215
19452TIP3    H279848   0.373   1.547  15.795  0.6817 -0.5404  0.9551
19453TIP3   OH279849   5.292   3.382  11.359 -0.1508  0.3502 -0.5184
19453TIP3    H179850   5.281   3.470  11.325 -1.0536  1.0083  1.3183
19453TIP3    H279851   5.204   3.344  11.359 -0.3775  0.6947  1.7096
19454TIP3   OH279852   2.178   1.135  17.145 -0.0823 -0.3028 -0.4008
19454TIP3    H179853   2.094   1.159  17.104 -0.6851 -1.5049  0.0919
19454TIP3    H279854   2.157   1.124  17.237  0.7235 -0.1672 -0.2023
19455TIP3   OH279855   1.656   0.777   1.363 -0.1470 -0.0907  0.4480
19455TIP3    H179856   1.685   0.765   1.272  0.1584  0.2512  0.4934
19455TIP3    H279857   1.589   0.711   1.377  2.0771 -2.3978  0.9992
19456TIP3   OH279858   2.173   3.418   0.958 -0.0117 -0.2176  0.2530
19456TIP3    H179859   2.114   3.434   0.884  0.1544 -0.0709  0.1515
19456TIP3    H279860   2.116   3.379   1.025 -0.3032  0.2859  0.3005
19457TIP3   OH279861   0.966   1.572   5.038  0.0982  0.0816 -0.7998
19457TIP3    H179862   0.892   1.565   5.098  0.8787 -1.2345  0.0667
19457TIP3    H279863   0.985   1.665   5.033 -1.5142  0.4171 -0.9282
19458TIP3   OH279864   1.689   4.044  13.342 -0.2437 -0.2750 -0.5203
19458TIP3    H179865   1.702   4.095  13.262 -0.4178  1.5950  0.5755
19458TIP3    H279866   1.775   4.046  13.385 -0.3053 -0.7471 -0.3733
19459TIP3   OH279867   5.150   3.601  14.739  0.0417 -0.0655  0.6158
19459TIP3    H179868   5.088   3.530  14.753  1.1273 -1.1336  0.1654
19459TIP3    H279869   5.220   3.585  14.803 -0.3624  1.4108  1.4784
19460TIP3   OH279870   4.504   4.767  15.352  0.2848  0.4849  0.1304
19460TIP3    H179871   4.550   4.784  15.270 -0.7738  1.7282 -0.2290
19460TIP3    H279872   4.506   4.671  15.361  2.3986  0.4554 -0.1515
19461TIP3   OH279873   4.504   1.236   3.128  0.3665  0.5549  0.1270
19461TIP3    H179874   4.503   1.141   3.140 -0.1981  0.3715 -1.1839
19461TIP3    H279875   4.476   1.249   3.037  1.0692  1.9488  0.0793
19462TIP3   OH279876   1.280   1.441  13.773  0.5973  0.7597 -0.1425
19462TIP3    H179877   1.375   1.430  13.765  0.3643 -0.5263 -1.9646
19462TIP3    H279878   1.246   1.406  13.691 -1.5624 -0.3856  1.1541
19463TIP3   OH279879   5.395   6.791  12.524 -0.1844 -0.3718 -0.2052
19463TIP3    H179880   5.312   6.832  12.497  0.1942 -0.8006 -2.2387
19463TIP3    H279881   5.430   6.755  12.442  2.6385  0.8857  0.3621
19464TIP3   OH279882   5.848   2.911  15.239  0.3228  0.0032 -0.7465
19464TIP3    H179883   5.827   2.960  15.160 -0.1105  1.6094  0.3179
19464TIP3    H279884   5.902   2.838  15.208  0.6023  0.8714 -2.4476
19465TIP3   OH279885   2.032   5.162   1.007 -0.7285  0.2289 -0.2994
19465TIP3    H179886   2.121   5.198   1.016 -1.0930  1.1196 -0.1071
19465TIP3    H279887   2.010   5.130   1.094  0.0259 -1.5401 -0.7262
19466TIP3   OH279888   2.513   0.147   0.781  0.2841 -0.2162 -0.3149
19466TIP3    H179889   2.432   0.189   0.810  0.1291  0.6125 -1.8387
19466TIP3    H279890   2.570   0.151   0.857 -1.1110 -0.9062  0.8293
19467TIP3   OH279891   4.778   1.375   6.359 -0.2542  0.4391 -0.2601
19467TIP3    H179892   4.706   1.377   6.422  1.6476  0.0067  2.0869
19467TIP3    H279893   4.799   1.467   6.344  0.1834  0.5501  0.9206
19468TIP3   OH279894   1.230   4.031   3.364  0.2023  0.0823  0.3816
19468TIP3    H179895   1.238   4.119   3.401  1.7676 -0.5481  1.7091
19468TIP3    H279896   1.256   3.973   3.436  1.4772 -1.3380 -1.1550
19469TIP3   OH279897   5.448   1.750  14.566 -0.1551 -0.1570 -0.1177
19469TIP3    H179898   5.381   1.810  14.534  0.0541 -0.1710 -0.5892
19469TIP3    H279899   5.411   1.715  14.648 -0.5273  0.1689 -0.1397
19470TIP3   OH279900   0.758   3.901  14.127 -0.2597  0.0205 -0.1023
19470TIP3    H179901   0.681   3.956  14.137  0.1425  0.9812 -1.8340
19470TIP3    H279902   0.805   3.939  14.053  0.8554 -1.7239 -0.3564
19471TIP3   OH279903   2.415   2.607   2.094 -0.4516  0.0771  0.3958
19471TIP3    H179904   2.475   2.637   2.026  0.1234 -0.1202  0.8030
19471TIP3    H279905   2.468   2.608   2.174 -0.9036 -0.4098  0.7048
19472TIP3   OH279906   1.393   3.386   1.633 -0.3432  0.1765 -0.3561
19472TIP3    H179907   1.487   3.394   1.645 -0.4441  1.1855 -0.1397
19472TIP3    H279908   1.356   3.398   1.721 -0.6958  0.2599 -0.5118
19473TIP3   OH279909   0.138   3.912  16.302  0.4519 -1.4123  0.0883
19473TIP3    H179910   0.197   3.982  16.330  0.6466 -1.5747  0.0881
19473TIP3    H279911   0.180   3.876  16.224  0.5977 -1.8420  0.3616
19474TIP3   OH279912   2.284   1.726  11.849  0.0769 -0.8423 -0.1708
19474TIP3    H179913   2.373   1.692  11.861  0.5425  0.6742  0.9786
19474TIP3    H279914   2.289   1.780  11.771  0.5032  0.2400  0.5855
19475TIP3   OH279915   1.715   3.283  15.321 -0.4025  0.1189  0.7833
19475TIP3    H179916   1.679   3.223  15.385  0.4490 -0.4187  0.7804
19475TIP3    H279917   1.724   3.366  15.367  0.1085 -0.2377  1.3416
19476TIP3   OH279918   4.369   3.056   2.158 -0.2282 -0.0465 -0.4169
19476TIP3    H179919   4.439   3.023   2.214 -0.8093 -0.5085  0.0523
19476TIP3    H279920   4.297   3.074   2.218 -1.2142 -1.4931 -1.0895
19477TIP3   OH279921   1.734   0.109   6.298 -0.4719 -0.0924 -0.0576
19477TIP3    H179922   1.662   0.050   6.319 -1.9296  1.5567 -0.2244
19477TIP3    H279923   1.700   0.165   6.228  1.5020 -0.2192 -1.2101
19478TIP3   OH279924   6.099   4.231  13.177  0.3120  0.7284 -0.4096
19478TIP3    H179925   6.047   4.156  13.148  1.0391  0.2609 -0.5138
19478TIP3    H279926   6.078   4.300  13.114 -0.6606  0.7481 -0.0861
19479TIP3   OH279927   3.497   1.172   1.718 -0.2350  0.2027 -0.2399
19479TIP3    H179928   3.533   1.148   1.803 -0.7823  0.0293 -0.0521
19479TIP3    H279929   3.568   1.219   1.674 -0.5211  1.9012  1.0144
19480TIP3   OH279930   3.620   5.413   1.628  0.6051 -0.6721 -0.1450
19480TIP3    H179931   3.664   5.331   1.606 -0.8509 -1.7879  0.9327
19480TIP3    H279932   3.681   5.481   1.599  2.2081 -2.1207 -0.3469
19481TIP3   OH279933   0.088   5.846  11.141 -0.5471 -0.0216 -0.3271
19481TIP3    H179934   0.103   5.938  11.163 -1.4779  0.3240 -1.0651
19481TIP3    H279935   0.121   5.798  11.216  3.7801  0.6280 -1.5497
19482TIP3   OH279936   1.787   0.101   6.573 -0.2499  0.7280  0.2401
19482TIP3    H179937   1.857   0.164   6.593  0.2982  0.0836  0.3892
19482TIP3    H279938   1.762   0.123   6.483 -0.6949  1.7344  0.5879
19483TIP3   OH279939   2.457   5.802   2.326  0.2964  0.7167 -0.2811
19483TIP3    H179940   2.470   5.733   2.391  0.4967  1.1676  0.1621
19483TIP3    H279941   2.473   5.759   2.242 -2.4143 -0.5486 -0.2856
19484TIP3   OH279942   3.410   1.154  14.631  0.3820  0.6881  0.5452
19484TIP3    H179943   3.393   1.199  14.714 -0.6684  1.9731 -0.3158
19484TIP3    H279944   3.326   1.113  14.608  0.7646  0.0284  0.2932
19485TIP3   OH279945   6.120   3.116   1.898  0.0770  0.0848 -0.6964
19485TIP3    H179946   6.183   3.077   1.838  0.0389 -0.8834 -0.1182
19485TIP3    H279947   6.172   3.150   1.970 -0.0715 -1.1092 -0.0012
19486TIP3   OH279948   3.285   0.790  13.872  0.2674 -0.0851 -0.2285
19486TIP3    H179949   3.289   0.833  13.786  0.2155 -0.2313 -0.3036
19486TIP3    H279950   3.192   0.778  13.889  0.1780  1.4447  0.6034
19487TIP3   OH279951   6.205   5.785  13.995  0.2406 -0.1212  0.3651
19487TIP3    H179952   6.202   5.812  14.087 -2.6240 -0.1710  0.3890
19487TIP3    H279953   6.184   5.691  13.997  1.1884 -0.3592 -0.2911
19488TIP3   OH279954   0.547   3.500   1.940 -0.3678  0.5619 -0.6048
19488TIP3    H179955   0.594   3.523   1.860  1.1822  0.2735  0.1840
19488TIP3    H279956   0.511   3.412   1.922  0.4306  0.2689 -0.8007
19489TIP3   OH279957   3.728   4.387  12.683 -0.1396  0.2360  0.3363
19489TIP3    H179958   3.737   4.311  12.625  0.5213 -1.2693  2.2725
19489TIP3    H279959   3.640   4.379  12.720 -0.9458  1.7587 -1.1347
19490TIP3   OH279960   3.147   4.548  12.284  0.5027 -0.9930  0.2456
19490TIP3    H179961   3.067   4.509  12.251 -0.6495  0.2475  1.4462
19490TIP3    H279962   3.217   4.506  12.234 -0.9335 -1.3974 -1.5173
19491TIP3   OH279963   0.008   6.238   0.721 -0.6185  0.2236 -0.1470
19491TIP3    H179964   0.088   6.260   0.673 -1.1063 -1.3951 -1.8130
19491TIP3    H279965   0.010   6.295   0.798  3.3316 -1.3260  1.1552
19492TIP3   OH279966   5.050   5.946  11.619  0.2333 -0.1466 -0.6514
19492TIP3    H179967   4.971   5.898  11.596 -1.0968  0.6919  1.7493
19492TIP3    H279968   5.069   5.919  11.709  0.6811  2.1386  0.0182
19493TIP3   OH279969   0.324   0.829  11.257 -0.3159  0.5079  0.4574
19493TIP3    H179970   0.314   0.838  11.352 -1.9169 -0.2121  0.3765
19493TIP3    H279971   0.361   0.913  11.229  0.6972  0.5328  1.7639
19494TIP3   OH279972   1.915   5.210   1.823 -0.1619 -0.2865  0.1788
19494TIP3    H179973   1.919   5.126   1.776  1.2340 -0.2286  0.1624
19494TIP3    H279974   1.822   5.220   1.844 -0.2996 -2.1045  0.6686
19495TIP3   OH279975   6.785   5.210   0.466 -0.2308  0.1216 -0.3080
19495TIP3    H179976   6.740   5.245   0.543 -2.0692  0.0718 -1.3015
19495TIP3    H279977   6.860   5.162   0.501 -1.6033 -0.7801  1.5128
19496TIP3   OH279978   4.134   4.026  14.581 -0.0456  0.1550  0.2976
19496TIP3    H179979   4.161   4.087  14.650  0.3596 -1.0746  1.2600
19496TIP3    H279980   4.183   4.055  14.504 -0.6074  1.6382  0.4524
19497TIP3   OH279981   4.297   0.412   6.698 -0.4081  0.1435 -0.3671
19497TIP3    H179982   4.240   0.338   6.680  1.5491 -1.4104 -0.4987
19497TIP3    H279983   4.313   0.452   6.613 -0.5099 -0.0068 -0.4551
19498TIP3   OH279984   4.313   5.547  13.578 -0.1790  0.3253 -0.2767
19498TIP3    H179985   4.258   5.503  13.642 -0.0554 -0.0838 -0.4488
19498TIP3    H279986   4.272   5.528  13.494  0.7936 -0.8528 -0.5031
19499TIP3   OH279987   5.294   5.438  12.156 -0.4065 -0.5651 -0.0278
19499TIP3    H179988   5.339   5.450  12.239  0.7682 -0.7547 -0.6208
19499TIP3    H279989   5.259   5.525  12.134  0.3986 -0.2246  0.0283
19500TIP3   OH279990   5.713   5.389  16.728  0.2541 -0.3009  0.5192
19500TIP3    H179991   5.671   5.471  16.755  0.0127  0.4886 -1.9629
19500TIP3    H279992   5.648   5.346  16.673  0.5891 -1.9231  1.3542
19501TIP3   OH279993   2.296   0.028  12.389 -0.3310  0.3451  0.4418
19501TIP3    H179994   2.345  -0.052  12.409  2.8522  2.3679  1.3737
19501TIP3    H279995   2.302   0.036  12.294 -0.2609 -0.2641  0.3917
19502TIP3   OH279996   2.247   1.668   1.487 -0.3581  0.2571  0.1664
19502TIP3    H179997   2.210   1.606   1.424  1.6356 -2.0038  1.0848
19502TIP3    H279998   2.194   1.657   1.566 -0.7482  0.6347 -0.0363
19503TIP3   OH279999   3.489   0.743  15.084  0.5816  0.3563  0.5366
19503TIP3    H180000   3.487   0.808  15.014  2.0163 -1.7715 -1.6399
19503TIP3    H280001   3.582   0.734  15.106  0.8151 -2.7338 -1.1505
19504TIP3   OH280002   1.401   0.536   3.544 -0.5115 -0.2555  0.4847
19504TIP3    H180003   1.403   0.503   3.634 -0.5928 -0.5240  0.3875
19504TIP3    H280004   1.330   0.601   3.544 -1.2183 -1.0170  0.3490
19505TIP3   OH280005   1.528   6.179   2.486 -0.1788  0.1409 -0.1206
19505TIP3    H180006   1.481   6.243   2.433 -0.1664  0.8043  0.6481
19505TIP3    H280007   1.608   6.160   2.436 -0.2432  0.6296 -0.4140
19506TIP3   OH280008   6.033   2.808   2.632  0.1614 -0.0524 -0.5561
19506TIP3    H180009   5.973   2.793   2.559  0.6580 -0.1084 -0.9599
19506TIP3    H280010   6.084   2.885   2.606  1.0575 -0.6921 -0.7538
19507TIP3   OH280011   0.414   2.408  16.870 -0.0931 -0.5067  0.1270
19507TIP3    H180012   0.457   2.488  16.901  0.3614 -1.0196  0.8416
19507TIP3    H280013   0.342   2.439  16.815 -0.4543  0.4098  1.1001
19508TIP3   OH280014   1.357   6.668   4.199 -0.0617  0.0150 -0.1101
19508TIP3    H180015   1.274   6.656   4.152 -0.3571 -1.2680  0.6934
19508TIP3    H280016   1.424   6.662   4.131 -0.5595 -0.3472 -0.5780
19509TIP3   OH280017   3.107   0.393   0.240 -0.2687 -0.1792  0.7058
19509TIP3    H180018   3.105   0.334   0.165 -2.4220 -1.6231  1.7716
19509TIP3    H280019   3.039   0.458   0.221  0.5311  0.6341  0.5600
19510TIP3   OH280020   4.709   0.909   3.212  0.2353 -0.0011  0.2444
19510TIP3    H180021   4.658   0.833   3.239  0.3117  0.0569  0.5592
19510TIP3    H280022   4.690   0.920   3.119 -0.9494  0.5022  0.5339
19511TIP3   OH280023   1.055   3.200   1.751 -0.4413  0.1517  0.1918
19511TIP3    H180024   1.009   3.284   1.756 -0.9836 -0.1176 -0.1385
19511TIP3    H280025   1.068   3.185   1.657 -1.4162 -0.6923  0.1777
19512TIP3   OH280026   0.117   2.130  12.294  0.8278  0.1669 -0.3071
19512TIP3    H180027   0.073   2.049  12.270  1.1187 -0.2792  0.6050
19512TIP3    H280028   0.049   2.197  12.289  0.1818 -0.4004  0.4586
19513TIP3   OH280029   0.874   4.259  12.634  1.2085  0.3419  0.5299
19513TIP3    H180030   0.785   4.271  12.668  1.1268  0.7158  0.1941
19513TIP3    H280031   0.874   4.169  12.599  1.4007 -0.1691  1.8122
19514TIP3   OH280032   0.921   1.978   0.983 -0.0609  0.3254  0.0006
19514TIP3    H180033   0.860   2.004   0.914  0.6541  1.0787 -0.3600
19514TIP3    H280034   0.906   2.042   1.053 -0.7274 -0.3880  0.5248
19515TIP3   OH280035   6.592   5.278   5.079  0.6771 -0.5593 -0.2508
19515TIP3    H180036   6.498   5.296   5.073  0.6868 -0.9844 -2.0754
19515TIP3    H280037   6.603   5.239   5.166 -0.9464 -1.1891 -0.2909
19516TIP3   OH280038   0.372   3.453   3.846 -0.2533 -0.0669 -0.3654
19516TIP3    H180039   0.284   3.484   3.866 -0.1954 -0.8764  1.3327
19516TIP3    H280040   0.361   3.360   3.825  0.1588 -0.1174 -0.3781
19517TIP3   OH280041   2.793   0.526  10.969 -0.0005  0.7992  0.1993
19517TIP3    H180042   2.699   0.534  10.988 -0.1084  2.7608 -0.8934
19517TIP3    H280043   2.815   0.609  10.927  1.2534 -1.3166 -3.7165
19518TIP3   OH280044   5.651   5.701   6.602  0.3153  0.2970 -0.2569
19518TIP3    H180045   5.723   5.727   6.659  1.2086  0.4669 -1.4334
19518TIP3    H280046   5.582   5.765   6.621 -0.2614 -0.9151  2.1782
19519TIP3   OH280047   0.415   1.575  12.492 -0.5974 -0.5570 -0.4446
19519TIP3    H180048   0.498   1.619  12.474 -0.8733 -0.6523 -2.1002
19519TIP3    H280049   0.437   1.482  12.492 -0.7868 -0.6096 -1.4496
19520TIP3   OH280050   1.159   3.648  14.522 -0.8711 -0.1236 -0.8484
19520TIP3    H180051   1.243   3.693  14.511 -0.9530  0.4709  0.6628
19520TIP3    H280052   1.095   3.703  14.477 -0.6228  0.0598 -0.9768
19521TIP3   OH280053   1.691   3.995  17.023  0.5601 -0.4687 -0.0039
19521TIP3    H180054   1.767   4.029  17.070  1.2070  3.2110 -3.1781
19521TIP3    H280055   1.616   4.036  17.064  0.6301 -1.0412  0.7149
19522TIP3   OH280056   3.853   0.328  15.993 -0.2987 -0.8989 -0.3255
19522TIP3    H180057   3.857   0.319  15.898  0.5608  1.2288 -0.5311
19522TIP3    H280058   3.942   0.353  16.019  0.1500 -3.7422  1.3883
19523TIP3   OH280059   3.767   0.906  16.078  0.1827 -0.2390  0.4842
19523TIP3    H180060   3.738   0.823  16.040  1.7776 -1.0449  0.8959
19523TIP3    H280061   3.824   0.880  16.151  1.9903  1.1627 -0.3417
19524TIP3   OH280062   3.987   1.903  15.411  0.2421 -0.1054  0.3100
19524TIP3    H180063   4.080   1.883  15.403  0.0759 -0.6557 -0.2724
19524TIP3    H280064   3.984   1.997  15.426  0.9070 -0.1323  0.6359
19525TIP3   OH280065   5.089   6.300  16.203 -0.1027  0.3525  0.2543
19525TIP3    H180066   5.143   6.370  16.240 -1.2058  1.9406 -1.0027
19525TIP3    H280067   5.024   6.346  16.150 -0.4269 -1.6789 -1.2085
19526TIP3   OH280068   2.611   4.038   1.479  0.0104  0.0489 -0.4729
19526TIP3    H180069   2.606   3.959   1.425  0.1428  0.0041 -0.4200
19526TIP3    H280070   2.525   4.044   1.521  0.8760 -1.6517  1.7461
19527TIP3   OH280071   2.536   2.691   0.123 -0.0838  0.2735 -0.1318
19527TIP3    H180072   2.445   2.668   0.108  0.3488 -1.2597 -0.5730
19527TIP3    H280073   2.535   2.739   0.206 -1.0544 -1.7516  1.1204
19528TIP3   OH280074   0.819   0.567   4.476  0.0840 -0.1451 -0.2717
19528TIP3    H180075   0.740   0.539   4.522 -0.4298 -1.3009 -1.7404
19528TIP3    H280076   0.869   0.486   4.463  1.6787  0.6061  0.8772
19529TIP3   OH280077   0.876   2.239   5.752 -0.5374  0.0398  0.3907
19529TIP3    H180078   0.804   2.226   5.689 -0.5492 -1.2218  0.6251
19529TIP3    H280079   0.953   2.254   5.697 -0.3963 -1.8343 -0.0037
19530TIP3   OH280080   0.359   3.970  15.661  0.2564  0.2383  0.5547
19530TIP3    H180081   0.423   3.979  15.591 -0.4042  0.7504  0.0107
19530TIP3    H280082   0.366   3.878  15.689  2.4653  0.6934  1.7105
19531TIP3   OH280083   0.655   1.609  16.836 -0.3724  0.4501  0.7370
19531TIP3    H180084   0.683   1.655  16.915  1.4994 -0.1862  0.5118
19531TIP3    H280085   0.737   1.584  16.793 -1.3347  0.7406 -1.4034
19532TIP3   OH280086   4.569   0.309   2.073  0.2455 -0.7555  0.1248
19532TIP3    H180087   4.617   0.247   2.129  0.1231 -0.5403  0.4657
19532TIP3    H280088   4.636   0.371   2.044  0.0520 -0.0101  1.2062
19533TIP3   OH280089   5.905   2.933   1.334  0.1116  0.0821  0.1785
19533TIP3    H180090   5.875   2.890   1.254 -0.0187  0.1756  0.1774
19533TIP3    H280091   5.896   2.866   1.402  3.9712 -1.4301 -0.5166
19534TIP3   OH280092   0.827   1.322  11.029 -0.0022  0.4882 -0.1857
19534TIP3    H180093   0.834   1.270  10.949  0.6750  1.1258 -0.5469
19534TIP3    H280094   0.889   1.281  11.090 -2.1072 -1.4280  0.8684
19535TIP3   OH280095   4.499   0.551   1.051 -0.2035 -0.3196 -0.1753
19535TIP3    H180096   4.522   0.604   0.975 -1.2845  1.4067  0.6326
19535TIP3    H280097   4.575   0.495   1.065  0.8555  0.7600 -1.2899
19536TIP3   OH280098   3.633   6.321   5.665 -0.5177  0.0402 -0.2613
19536TIP3    H180099   3.577   6.294   5.737  0.1823  0.6241  0.5295
19536TIP3    H280100   3.682   6.241   5.641  0.6309  0.2525  1.2150
19537TIP3   OH280101   3.469   1.901   2.580  0.6919 -0.1191  0.3640
19537TIP3    H180102   3.497   1.988   2.552  1.3236 -0.8757 -1.5579
19537TIP3    H280103   3.505   1.842   2.513 -2.2579 -1.5720 -0.0935
19538TIP3   OH280104   1.337   1.144  12.750 -0.0919 -0.7605 -0.7757
19538TIP3    H180105   1.284   1.129  12.828  1.0333  1.0969  0.4076
19538TIP3    H280106   1.374   1.058  12.729 -0.9470 -1.4207  0.2948
19539TIP3   OH280107   6.731   6.597  17.132 -0.0515 -0.4123 -0.2456
19539TIP3    H180108   6.644   6.589  17.093  0.2992 -0.6102 -1.0204
19539TIP3    H280109   6.734   6.687  17.164 -1.1120 -0.8693  1.2544
19540TIP3   OH280110   6.313   1.449   4.119  0.0881 -0.3352 -0.2901
19540TIP3    H180111   6.399   1.450   4.078  0.3980  0.5820  0.3595
19540TIP3    H280112   6.258   1.399   4.059  1.2385 -1.5495 -0.3482
19541TIP3   OH280113   6.486   1.581   5.214 -0.0389  0.3791  0.0275
19541TIP3    H180114   6.560   1.622   5.259 -1.0567  1.1568  1.0518
19541TIP3    H280115   6.426   1.653   5.195 -2.2792 -0.6400  2.6256
19542TIP3   OH280116   3.750   6.031  16.360  0.2965  0.5338  0.3926
19542TIP3    H180117   3.765   5.939  16.379  2.6008  0.1016 -2.7839
19542TIP3    H280118   3.655   6.042  16.366 -0.6249 -3.1600 -3.0684
19543TIP3   OH280119   2.494   2.826  11.059 -1.1193  0.1494 -0.5046
19543TIP3    H180120   2.410   2.783  11.075 -0.0913 -0.9779  2.6773
19543TIP3    H280121   2.474   2.920  11.058 -2.5261 -0.1402 -0.8513
19544TIP3   OH280122   5.333   1.747   4.169 -0.4080 -0.5827  0.2798
19544TIP3    H180123   5.424   1.754   4.142 -0.5257  1.7352  0.2533
19544TIP3    H280124   5.318   1.653   4.180  2.0793 -1.0028  0.7036
19545TIP3   OH280125   2.905   0.454  11.515 -0.7185  0.0682 -0.6015
19545TIP3    H180126   2.944   0.372  11.543 -2.1540 -0.6136 -0.5291
19545TIP3    H280127   2.948   0.521  11.569 -0.5704 -0.7919  0.3686
19546TIP3   OH280128   0.229   6.476  17.225  0.2875  0.5490 -0.1307
19546TIP3    H180129   0.223   6.568  17.247  0.3501  0.2229  1.3500
19546TIP3    H280130   0.193   6.469  17.137 -0.8040  1.8054  0.2001
19547TIP3   OH280131   1.855   6.522  14.040 -0.0045  0.0518 -0.1590
19547TIP3    H180132   1.859   6.565  14.125  1.4905 -1.6355  0.6986
19547TIP3    H280133   1.763   6.499  14.029 -0.2665  0.5376  0.8534
19548TIP3   OH280134   3.208   3.983  13.113  0.2028  0.2095 -0.0456
19548TIP3    H180135   3.187   4.076  13.122 -0.3029  0.7071 -4.1731
19548TIP3    H280136   3.303   3.980  13.109  0.2135  0.6346 -0.1994
19549TIP3   OH280137   4.382   1.486  11.129  0.2000 -0.4117 -0.2419
19549TIP3    H180138   4.475   1.485  11.106  0.8140  1.8572  1.7953
19549TIP3    H280139   4.337   1.499  11.045  1.8436  0.2955 -1.0517
19550TIP3   OH280140   3.008   5.427   3.118  0.2776  0.3064  0.1753
19550TIP3    H180141   2.991   5.359   3.053 -0.3045  0.2935  0.3295
19550TIP3    H280142   3.040   5.502   3.067 -0.2214  0.3145 -0.1360
19551TIP3   OH280143   0.305   1.867   4.710  0.2291 -0.1287 -0.1732
19551TIP3    H180144   0.298   1.956   4.745 -1.5902 -0.4621  0.4588
19551TIP3    H280145   0.398   1.855   4.692  0.4890  1.9914 -0.5481
19552TIP3   OH280146   5.873   0.100   3.591 -0.3412 -0.3059 -0.4970
19552TIP3    H180147   5.841   0.069   3.506 -1.3387  0.6252 -0.4876
19552TIP3    H280148   5.918   0.025   3.628 -0.9402 -1.1066 -1.3368
19553TIP3   OH280149   6.256   2.781  17.194 -0.3118  0.2953  0.0767
19553TIP3    H180150   6.303   2.816  17.270 -0.3791  2.0507 -0.6621
19553TIP3    H280151   6.323   2.738  17.142  0.1438  1.0866 -0.0005
19554TIP3   OH280152   5.374   4.583  16.223 -0.0021  0.3499 -0.0062
19554TIP3    H180153   5.446   4.590  16.285 -0.9120  0.5617  1.0692
19554TIP3    H280154   5.402   4.634  16.147  0.3846  1.6532  0.9756
19555TIP3   OH280155   3.223   4.905  16.267 -0.0283 -0.2048 -0.2677
19555TIP3    H180156   3.234   5.000  16.260 -2.8928  0.4345  2.0324
19555TIP3    H280157   3.290   4.879  16.331  1.1881  0.1025 -1.3686
19556TIP3   OH280158   2.050   3.587  16.164  0.2873 -0.2885  0.1283
19556TIP3    H180159   2.144   3.602  16.175  0.2385 -0.8151  1.5446
19556TIP3    H280160   2.012   3.615  16.247 -0.7859 -0.3196 -0.3408
19557TIP3   OH280161   5.888   0.674  16.176 -0.3717  0.2690 -0.1324
19557TIP3    H180162   5.841   0.755  16.195 -0.7046  0.0169  0.1436
19557TIP3    H280163   5.835   0.631  16.109 -0.5942 -0.0607  0.2476
19558TIP3   OH280164   3.267   5.313  11.513 -0.4888  0.3577  0.1351
19558TIP3    H180165   3.342   5.268  11.553 -1.6154 -0.8593  0.9892
19558TIP3    H280166   3.286   5.313  11.419  0.6020  0.1353  0.3438
19559TIP3   OH280167   5.389   1.083  13.956  0.3722  0.4725  0.1151
19559TIP3    H180168   5.431   1.156  13.911 -0.0754  0.4882 -0.2808
19559TIP3    H280169   5.372   1.117  14.044  0.6167  0.6758  0.0863
19560TIP3   OH280170   4.708   6.192   3.334 -0.3048 -0.7712  0.3133
19560TIP3    H180171   4.633   6.243   3.363 -2.4655 -3.3464 -0.3912
19560TIP3    H280172   4.739   6.148   3.414  1.3047  1.1504  0.8382
19561TIP3   OH280173   2.898   3.314   2.634 -0.1420  0.1661 -0.1832
19561TIP3    H180174   2.855   3.399   2.642 -2.0736 -0.8915  1.1735
19561TIP3    H280175   2.827   3.251   2.624  1.0519 -1.6236  1.7921
19562TIP3   OH280176   6.764   4.684   2.923  0.5099  0.0594 -0.1401
19562TIP3    H180177   6.806   4.767   2.900 -1.2332  1.0216 -0.0340
19562TIP3    H280178   6.717   4.703   3.005 -0.1516 -0.9337 -0.2710
19563TIP3   OH280179   3.996   2.485  13.952 -0.0063 -0.2255  0.0767
19563TIP3    H180180   3.918   2.493  13.896 -0.6001  0.6355  0.9937
19563TIP3    H280181   3.979   2.409  14.007 -0.2914  0.0733  0.4053
19564TIP3   OH280182   2.723   1.117   5.501  0.0045 -0.5348 -0.4651
19564TIP3    H180183   2.739   1.192   5.558  0.2216  0.0574 -1.2845
19564TIP3    H280184   2.630   1.126   5.477 -0.4103 -1.4388  0.6975
19565TIP3   OH280185   5.843   3.795  13.668 -0.2033  0.1617  0.1014
19565TIP3    H180186   5.812   3.880  13.635  0.7475  0.0329 -1.1983
19565TIP3    H280187   5.908   3.818  13.734 -1.5549  0.4245  1.3853
19566TIP3   OH280188   1.662   0.203  12.877  0.1509  0.2128 -0.3338
19566TIP3    H180189   1.687   0.202  12.970  0.9258 -0.1389 -0.5419
19566TIP3    H280190   1.606   0.280  12.869 -1.1091 -0.5494  0.7279
19567TIP3   OH280191   5.160   6.148   4.018 -0.1885 -0.1958 -0.4694
19567TIP3    H180192   5.185   6.195   4.097  0.7576  0.0094 -0.8709
19567TIP3    H280193   5.082   6.099   4.042 -0.2778  0.3619  0.4031
19568TIP3   OH280194   6.246   0.590  16.290 -0.5211  0.4603 -0.0860
19568TIP3    H180195   6.170   0.538  16.264 -2.0512  1.8528  1.3813
19568TIP3    H280196   6.319   0.528  16.287 -1.9630 -1.3442 -0.0356
19569TIP3   OH280197   6.309   4.271  13.647 -0.3049 -0.1104  0.6469
19569TIP3    H180198   6.227   4.248  13.690  0.1762 -1.7502  0.7405
19569TIP3    H280199   6.312   4.215  13.569 -0.0917  1.1961 -0.3192
19570TIP3   OH280200   4.234   3.254  12.540 -0.2111  0.5536 -0.3585
19570TIP3    H180201   4.209   3.283  12.453 -0.5273 -0.7255 -0.7110
19570TIP3    H280202   4.330   3.258  12.540 -0.1975  0.2718 -0.8690
19571TIP3   OH280203   3.160   0.039  12.006  0.1384  0.1820  0.2268
19571TIP3    H180204   3.102   0.095  11.954 -1.2448  0.4990  2.0266
19571TIP3    H280205   3.197   0.097  12.072  0.2064 -0.6238  0.9106
19572TIP3   OH280206   2.222   5.571   4.738  0.1646 -0.1035 -0.1551
19572TIP3    H180207   2.301   5.559   4.686 -0.5727 -0.5450 -1.1954
19572TIP3    H280208   2.167   5.629   4.686 -1.1801 -1.6829 -0.5711
19573TIP3   OH280209   4.977   1.457   2.734  0.3362 -0.1572  0.9721
19573TIP3    H180210   4.979   1.548   2.704  0.6526 -0.5326 -0.2003
19573TIP3    H280211   5.058   1.447   2.784 -0.1133  0.4355  1.8316
19574TIP3   OH280212   0.110   2.356  16.678 -0.3951  0.1776 -0.1288
19574TIP3    H180213   0.078   2.284  16.624  0.9204  0.3392 -1.1796
19574TIP3    H280214   0.172   2.315  16.738  1.1767  0.5320 -1.4424
19575TIP3   OH280215   1.175   4.038  11.128 -0.3820 -0.0156 -0.1098
19575TIP3    H180216   1.246   4.103  11.122 -0.2676  0.0820  1.6969
19575TIP3    H280217   1.095   4.090  11.123 -0.2948  0.1969  0.5863
19576TIP3   OH280218   0.884   0.415   3.152  0.2610  0.1566 -0.2232
19576TIP3    H180219   0.823   0.365   3.097 -0.2902 -0.7624  1.1768
19576TIP3    H280220   0.832   0.439   3.229  1.1315  1.0447  0.0984
19577TIP3   OH280221   6.024   3.001   4.171 -0.1814 -0.1746  0.5354
19577TIP3    H180222   5.954   2.937   4.163  0.1233 -0.6109  1.2546
19577TIP3    H280223   6.028   3.020   4.265  1.1873 -0.7546  0.6202
19578TIP3   OH280224   3.922   2.055   0.311  0.0916  0.0494  0.0335
19578TIP3    H180225   3.830   2.066   0.288 -0.4021 -0.3788  1.6624
19578TIP3    H280226   3.961   2.011   0.235 -0.9025  0.7562 -0.9102
19579TIP3   OH280227   5.973   1.239  10.548  0.1949  0.2858  0.0499
19579TIP3    H180228   5.927   1.226  10.464 -0.0305  0.1516  0.1939
19579TIP3    H280229   5.905   1.270  10.607  0.4521  0.8363  0.0616
19580TIP3   OH280230   0.482   0.331   0.791 -0.1711  0.2169  0.0587
19580TIP3    H180231   0.544   0.309   0.721 -0.8167  0.2916 -0.5491
19580TIP3    H280232   0.507   0.273   0.863  2.0345  1.7939  0.6523
19581TIP3   OH280233   6.350   6.361  12.039  0.7925  0.8549 -0.0196
19581TIP3    H180234   6.328   6.355  11.946  1.1954  1.9170 -0.2088
19581TIP3    H280235   6.288   6.425  12.074 -0.6034 -0.9239  0.8896
19582TIP3   OH280236   4.822   6.366  15.176  0.0614 -0.0533  0.0963
19582TIP3    H180237   4.877   6.341  15.102  0.3055 -0.1698  0.3141
19582TIP3    H280238   4.796   6.283  15.216 -0.5966 -0.0080 -0.2382
19583TIP3   OH280239   6.529   5.012   2.982 -0.0787 -0.3283  0.1090
19583TIP3    H180240   6.596   4.949   3.009  0.8323  0.0953 -1.0584
19583TIP3    H280241   6.564   5.097   3.009 -0.1201 -0.1023 -0.5410
19584TIP3   OH280242   2.488   5.153  13.282 -0.3160 -0.2227  0.5446
19584TIP3    H180243   2.559   5.202  13.324 -0.1393  0.1925 -0.2246
19584TIP3    H280244   2.456   5.095  13.351 -1.3617  1.8071  1.8757
19585TIP3   OH280245   5.598   2.964  12.282 -0.0732  0.9260  0.3477
19585TIP3    H180246   5.683   2.941  12.244  1.0532  1.1248  2.5884
19585TIP3    H280247   5.536   2.907  12.237  1.3982 -0.1060 -0.4992
19586TIP3   OH280248   0.406   2.227  14.616 -0.1600  0.2592 -0.1782
19586TIP3    H180249   0.459   2.203  14.692 -0.6692 -0.9781 -0.1911
19586TIP3    H280250   0.458   2.294  14.571  0.5983  0.3012  0.7156
19587TIP3   OH280251   2.137   2.178   1.753  0.0584  0.1479  0.1286
19587TIP3    H180252   2.196   2.177   1.828 -2.6007  4.0835  2.6598
19587TIP3    H280253   2.071   2.111   1.774  0.7303 -0.5956 -0.0865
19588TIP3   OH280254   0.927   4.707   4.507  0.8281  0.2841 -0.2493
19588TIP3    H180255   1.017   4.728   4.530  0.3315 -0.0556  2.3352
19588TIP3    H280256   0.885   4.685   4.591 -1.4143 -0.4919 -1.4781
19589TIP3   OH280257   5.913   1.540   4.558  0.7651  0.0833 -0.2135
19589TIP3    H180258   5.879   1.521   4.471 -1.3482  0.1026  0.5422
19589TIP3    H280259   6.007   1.552   4.546  0.3941  0.9641 -2.6275
19590TIP3   OH280260   2.174   4.390  12.371  0.0175  0.2358  0.4406
19590TIP3    H180261   2.181   4.407  12.277  0.5710 -1.1834  0.2071
19590TIP3    H280262   2.264   4.390  12.403 -0.0241 -1.0957  0.6156
19591TIP3   OH280263   6.376   1.805   2.291  0.1032 -0.4922 -0.1750
19591TIP3    H180264   6.371   1.900   2.300  0.4338 -0.4168 -0.7601
19591TIP3    H280265   6.467   1.783   2.310  0.2100 -0.6032 -0.7883
19592TIP3   OH280266   2.239   3.209   1.974  0.1239 -0.3715  0.3189
19592TIP3    H180267   2.264   3.301   1.967  0.9956 -0.5910  0.4300
19592TIP3    H280268   2.188   3.204   2.055 -0.4064  0.1065  0.0265
19593TIP3   OH280269   1.111   6.083  13.862 -0.1712  0.1472 -0.3086
19593TIP3    H180270   1.174   6.073  13.791  0.4345  0.8321  0.1087
19593TIP3    H280271   1.157   6.137  13.927 -0.6695 -0.5401  0.6469
19594TIP3   OH280272   0.973   0.262   6.195 -0.0138 -0.4076 -0.7425
19594TIP3    H180273   0.911   0.332   6.211  0.2471  0.3829 -2.9155
19594TIP3    H280274   1.039   0.300   6.137  2.3908 -1.3008  1.1968
19595TIP3   OH280275   6.442   2.588  12.662  0.5342  0.2393 -0.5003
19595TIP3    H180276   6.393   2.522  12.613  0.2862 -0.2968  0.4501
19595TIP3    H280277   6.484   2.641  12.594 -0.7923  0.2862 -1.3214
19596TIP3   OH280278   4.308   1.486   6.286  0.5581  0.2813 -0.4310
19596TIP3    H180279   4.288   1.426   6.214 -1.3845 -0.2589  0.5194
19596TIP3    H280280   4.235   1.477   6.347  1.9158  1.0794  1.4118
19597TIP3   OH280281   5.005   6.453  15.998 -0.1869  0.1887 -0.2251
19597TIP3    H180282   4.937   6.403  15.952 -1.2652  0.5537  0.9331
19597TIP3    H280283   4.991   6.544  15.970 -1.1483  0.4841  1.1287
19598TIP3   OH280284   1.489   2.705   3.205  0.3143 -0.1576  0.8576
19598TIP3    H180285   1.454   2.789   3.235  0.5108  1.3017 -2.5067
19598TIP3    H280286   1.581   2.708   3.228  0.5911  1.1712 -0.2901
19599TIP3   OH280287   3.710   2.934   1.142 -0.4306  0.8591 -0.0959
19599TIP3    H180288   3.623   2.908   1.109 -1.1640  0.1443  2.1770
19599TIP3    H280289   3.764   2.856   1.131 -0.0051  1.3199 -1.5591
19600TIP3   OH280290   5.373   1.027  15.008 -0.6816  0.3465 -0.4298
19600TIP3    H180291   5.430   1.103  15.018 -0.4191  0.7120 -3.7155
19600TIP3    H280292   5.286   1.063  14.989 -0.5115 -0.1007 -2.2289
19601TIP3   OH280293   6.073   0.967   4.161 -0.7942  0.1377 -0.2721
19601TIP3    H180294   6.018   0.964   4.239  0.3568  3.3049  0.8160
19601TIP3    H280295   6.025   1.021   4.100 -0.4852 -0.0967 -0.7255
19602TIP3   OH280296   5.470   5.326  17.114  0.4352 -0.0237  0.2964
19602TIP3    H180297   5.422   5.362  17.039  1.8021 -1.1412 -1.1646
19602TIP3    H280298   5.415   5.349  17.190 -0.3156  2.3394 -0.8506
19603TIP3   OH280299   3.488   4.164   2.700 -0.2584 -0.4821  0.2389
19603TIP3    H180300   3.505   4.149   2.607 -0.1422  0.4831  0.0881
19603TIP3    H280301   3.441   4.247   2.702  0.7806  0.1183  1.1183
19604TIP3   OH280302   5.929   4.532  15.599  0.3696  0.0807  0.1635
19604TIP3    H180303   5.962   4.573  15.679 -1.0839  1.3653  0.1564
19604TIP3    H280304   5.838   4.562  15.593  0.8688  1.3206 -2.7842
19605TIP3   OH280305   3.060   4.711   3.128  0.2759  0.0637  0.0110
19605TIP3    H180306   3.008   4.781   3.167 -0.2085 -0.6558  0.6888
19605TIP3    H280307   3.007   4.681   3.053  1.0028  1.1483 -0.9798
19606TIP3   OH280308   2.557   5.357   6.181  0.0723  0.0299 -0.2755
19606TIP3    H180309   2.468   5.340   6.149  0.3125  0.2458 -1.0754
19606TIP3    H280310   2.602   5.397   6.107  1.4783 -2.0833 -0.6394
19607TIP3   OH280311   1.722   5.721   2.672 -0.2484 -0.3091 -0.4677
19607TIP3    H180312   1.675   5.795   2.634 -1.0462 -0.6070 -0.0749
19607TIP3    H280313   1.804   5.759   2.702  0.1637  0.0524 -1.9361
19608TIP3   OH280314   0.883   5.740   5.045 -0.9212 -0.1693  0.0982
19608TIP3    H180315   0.840   5.743   4.959  0.9936 -2.6128 -1.0673
19608TIP3    H280316   0.850   5.659   5.085  0.4870 -0.6509  0.3280
19609TIP3   OH280317   1.355   3.819   4.679 -0.0220 -0.1025 -0.0694
19609TIP3    H180318   1.390   3.731   4.688  1.9639  0.6914  0.5023
19609TIP3    H280319   1.286   3.811   4.614  0.2615 -2.0316 -0.1771
19610TIP3   OH280320   3.416   4.481   0.671  0.2479  0.1899  0.7008
19610TIP3    H180321   3.406   4.565   0.626 -0.8268 -0.1386  0.2929
19610TIP3    H280322   3.377   4.496   0.757 -0.3462 -0.0029  0.4721
19611TIP3   OH280323   3.055   0.586   3.487  0.3598 -0.1391 -0.6702
19611TIP3    H180324   3.072   0.593   3.581  1.5956  0.3142 -0.9089
19611TIP3    H280325   3.028   0.495   3.474  2.8010 -1.0201 -0.2176
19612TIP3   OH280326   0.737   0.548  16.713 -0.9555 -0.0181 -0.0998
19612TIP3    H180327   0.800   0.530  16.643 -0.8302 -0.3728  0.0964
19612TIP3    H280328   0.768   0.495  16.787 -0.8063  0.7214  0.3783
19613TIP3   OH280329   6.417   0.645  14.341  0.2743 -0.5618  0.5363
19613TIP3    H180330   6.509   0.646  14.313 -0.2801  0.0276 -1.4110
19613TIP3    H280331   6.399   0.553  14.361  1.2764 -0.6831  0.9690
19614TIP3   OH280332   1.190   3.028  16.171 -0.3032  0.3274  0.1207
19614TIP3    H180333   1.097   3.008  16.164 -0.1338 -0.3034 -0.3957
19614TIP3    H280334   1.234   2.943  16.164  0.3448  0.6877 -0.3433
19615TIP3   OH280335   4.208   2.393   3.507  0.0482 -0.9081  0.2227
19615TIP3    H180336   4.212   2.475   3.458 -1.0065 -2.0109 -1.8070
19615TIP3    H280337   4.300   2.372   3.524  0.5893 -1.1248 -2.4753
19616TIP3   OH280338   0.138   2.150   2.596  0.1737 -0.5808  0.2780
19616TIP3    H180339   0.179   2.212   2.535 -0.5632  1.0500  1.3783
19616TIP3    H280340   0.121   2.072   2.543  0.5368  0.3814 -1.3267
19617TIP3   OH280341   2.000   6.463  12.277  0.5095 -0.3172 -0.3932
19617TIP3    H180342   1.921   6.499  12.238  0.1503 -1.4798 -0.7541
19617TIP3    H280343   2.069   6.479  12.212  0.5163  0.3868 -0.2224
19618TIP3   OH280344   5.573   0.736  11.338 -0.4912  0.0095 -0.4727
19618TIP3    H180345   5.499   0.676  11.352 -1.0118  0.2804 -1.8826
19618TIP3    H280346   5.614   0.705  11.257  1.7867 -0.9356  0.9757
19619TIP3   OH280347   0.435   3.677  11.088 -0.6142 -0.4417  0.0691
19619TIP3    H180348   0.487   3.627  11.025 -0.1622  2.2785 -1.8795
19619TIP3    H280349   0.496   3.739  11.126 -1.6131  0.1499  0.7389
19620TIP3   OH280350   4.536   1.477   5.056 -0.0092  0.2579 -0.5100
19620TIP3    H180351   4.599   1.528   5.006  0.1416  0.4949 -0.0877
19620TIP3    H280352   4.576   1.390   5.065  0.1904  0.3655 -0.3656
19621TIP3   OH280353   6.736   3.484  15.440  0.0491 -0.0222 -0.4390
19621TIP3    H180354   6.720   3.543  15.513 -1.2892 -1.2815  0.3267
19621TIP3    H280355   6.674   3.511  15.372  0.1843  0.1248 -0.5057
19622TIP3   OH280356   2.080   5.210   3.905  0.5567 -0.4580 -0.2583
19622TIP3    H180357   2.113   5.126   3.937  2.4723  0.1510 -0.5056
19622TIP3    H280358   2.089   5.270   3.980  1.4848  0.0755 -0.7777
19623TIP3   OH280359   3.013   1.875  13.918  0.0230 -0.0927  0.2528
19623TIP3    H180360   3.012   1.797  13.974  0.5613 -0.3921 -0.1532
19623TIP3    H280361   3.013   1.948  13.980 -1.0650 -0.3891  0.6401
19624TIP3   OH280362   4.970   5.340   4.115 -0.3090  0.1156  0.1807
19624TIP3    H180363   4.978   5.342   4.210 -3.0332 -0.8533  0.5408
19624TIP3    H280364   4.880   5.368   4.098 -0.0910 -0.3200 -2.0760
19625TIP3   OH280365   5.619   6.292  12.180  0.4919  0.2751  0.2991
19625TIP3    H180366   5.657   6.210  12.150  0.5530  0.7890 -1.0966
19625TIP3    H280367   5.524   6.275  12.181  0.5189  0.1200  0.2281
19626TIP3   OH280368   4.218   3.808   6.256  0.1725 -0.4372 -0.2961
19626TIP3    H180369   4.307   3.785   6.284 -0.6522 -1.3139  1.8967
19626TIP3    H280370   4.212   3.902   6.270  0.4616 -0.5340  0.6001
19627TIP3   OH280371   5.690   1.156  12.453  0.0418  0.0651  0.4688
19627TIP3    H180372   5.642   1.086  12.408  0.6702 -0.7864  1.1079
19627TIP3    H280373   5.779   1.122  12.463  1.1909  2.0605 -1.7389
19628TIP3   OH280374   1.877   4.642  15.423 -0.0776  0.7380 -0.4393
19628TIP3    H180375   1.849   4.727  15.457 -1.2638  0.5641 -0.9204
19628TIP3    H280376   1.971   4.652  15.407  0.6871  0.7447  3.1268
19629TIP3   OH280377   2.193   0.281   4.562  0.0928  0.3578  0.3937
19629TIP3    H180378   2.270   0.265   4.617 -0.3534 -2.3476  0.3733
19629TIP3    H280379   2.174   0.374   4.574  1.9654  0.5853  2.2268
19630TIP3   OH280380   4.332   0.058   6.698 -0.0691 -0.3014 -0.0460
19630TIP3    H180381   4.266   0.093   6.638  1.7086  0.9207 -1.3751
19630TIP3    H280382   4.309   0.095   6.783 -0.4682  0.9855 -0.6886
19631TIP3   OH280383   3.111   0.284   5.719  0.1652  0.0973  0.0638
19631TIP3    H180384   3.180   0.302   5.655  0.7698  2.7211  1.3430
19631TIP3    H280385   3.130   0.195   5.749  1.8505  0.0436 -0.9941
19632TIP3   OH280386   6.323   4.451  11.253  0.7150  0.0060 -0.2785
19632TIP3    H180387   6.360   4.366  11.229  2.3754  1.0243 -1.5002
19632TIP3    H280388   6.243   4.458  11.201  0.5737 -0.7987 -0.1736
19633TIP3   OH280389   0.867   2.734  12.353 -0.2282  0.1653  0.3353
19633TIP3    H180390   0.877   2.805  12.289  0.5299 -1.1608 -1.1064
19633TIP3    H280391   0.780   2.747  12.390 -1.3764  0.0861 -2.1579
19634TIP3   OH280392   3.832   4.488  13.163  0.6421  0.1106 -0.1673
19634TIP3    H180393   3.747   4.468  13.202  0.6968 -0.1472 -0.1752
19634TIP3    H280394   3.876   4.542  13.228  0.3545  0.5049 -0.2953
19635TIP3   OH280395   6.721   1.927   1.103 -0.4886 -0.2971  0.0569
19635TIP3    H180396   6.753   2.012   1.132 -1.6905  0.4639 -0.7307
19635TIP3    H280397   6.800   1.875   1.088  0.4037  1.4015 -1.5582
19636TIP3   OH280398   1.798   4.958  13.706 -0.2513  0.4836 -0.0710
19636TIP3    H180399   1.781   4.864  13.701 -1.6853  0.7255 -0.4646
19636TIP3    H280400   1.772   4.983  13.795 -1.2626  0.7168 -0.4106
19637TIP3   OH280401   4.924   1.004  13.722 -0.6769  0.0165 -0.0320
19637TIP3    H180402   4.978   0.994  13.801 -1.8652  0.5031  0.8885
19637TIP3    H280403   4.960   1.081  13.679  0.6122 -0.8306 -0.5149
19638TIP3   OH280404   5.100   3.793   0.336  0.1540  0.2317  0.4272
19638TIP3    H180405   5.025   3.844   0.306  1.0609  2.1057  1.1442
19638TIP3    H280406   5.098   3.802   0.431 -0.0086 -1.6736  0.6452
19639TIP3   OH280407   5.509   0.081   3.837 -0.4627  0.5498  0.2233
19639TIP3    H180408   5.519   0.141   3.911 -2.0630  1.2085 -0.0597
19639TIP3    H280409   5.429   0.032   3.857 -0.3466  0.0163 -0.5820
19640TIP3   OH280410   5.857   3.748  11.282  0.2422 -0.2122  0.5015
19640TIP3    H180411   5.766   3.768  11.264  0.3381  0.1932  0.4659
19640TIP3    H280412   5.857   3.656  11.309 -0.1828 -0.1921  0.5653
19641TIP3   OH280413   2.252   1.268  16.769  0.6120  0.3145  0.6401
19641TIP3    H180414   2.196   1.206  16.816  0.4676  0.3876  0.5675
19641TIP3    H280415   2.203   1.350  16.771  0.1437  0.0780 -0.4828
19642TIP3   OH280416   4.664   2.804   2.769  0.6637  0.1502 -0.0098
19642TIP3    H180417   4.667   2.895   2.797  1.1552  0.6116 -1.4671
19642TIP3    H280418   4.755   2.774   2.774  1.1068  0.7809 -2.6222
19643TIP3   OH280419   5.411   4.880  16.658 -0.5858 -0.5544  0.1078
19643TIP3    H180420   5.491   4.876  16.710 -0.5120  1.7198  0.2770
19643TIP3    H280421   5.346   4.832  16.711 -0.1190  0.3537  1.5824
19644TIP3   OH280422   6.347   3.568  15.931  0.2447  0.4750  0.2030
19644TIP3    H180423   6.269   3.529  15.971  0.1954 -1.1537 -1.3660
19644TIP3    H280424   6.317   3.605  15.849  0.9565  0.6428  0.0098
19645TIP3   OH280425   5.195   5.196  16.301 -0.0868 -0.3953 -0.0100
19645TIP3    H180426   5.254   5.186  16.227  1.2956  1.7882  0.7236
19645TIP3    H280427   5.107   5.187  16.262  0.5931  0.4227 -1.8642
19646TIP3   OH280428   1.484   2.748  12.241  0.1099 -0.2265  0.5807
19646TIP3    H180429   1.404   2.701  12.221 -0.3749  0.5722  0.5993
19646TIP3    H280430   1.521   2.702  12.316 -1.0879  0.2522  1.4974
19647TIP3   OH280431   0.275   1.141  15.178 -0.2371  0.2417 -0.0359
19647TIP3    H180432   0.281   1.098  15.263 -0.3256 -0.1057 -0.2059
19647TIP3    H280433   0.364   1.139  15.144 -0.2241  0.2788 -0.0053
19648TIP3   OH280434   6.157   4.846   1.309  0.0889 -0.0325 -0.0855
19648TIP3    H180435   6.145   4.758   1.273 -1.1473  0.0308  0.1381
19648TIP3    H280436   6.094   4.851   1.381  0.1737  1.0315 -0.0795
19649TIP3   OH280437   5.761   3.693   5.236  0.5325  0.1088  0.1060
19649TIP3    H180438   5.721   3.659   5.156  3.6348 -2.2824 -0.6245
19649TIP3    H280439   5.726   3.637   5.305  0.8854 -0.5146 -0.2066
19650TIP3   OH280440   3.262   3.257  11.922 -0.7260 -0.3839 -0.3437
19650TIP3    H180441   3.194   3.321  11.940 -0.9624 -1.2190  2.1037
19650TIP3    H280442   3.342   3.309  11.912 -1.1970  0.3877 -0.1836
19651TIP3   OH280443   0.435   3.495  16.015 -0.1032 -0.1869  0.1102
19651TIP3    H180444   0.470   3.565  15.960 -1.6054 -0.1326 -0.8262
19651TIP3    H280445   0.365   3.456  15.963 -0.4655 -1.2353  1.3271
19652TIP3   OH280446   6.245   4.036   2.795 -0.3872  0.6656 -0.0334
19652TIP3    H180447   6.298   4.107   2.831  0.5939  1.0286 -2.0502
19652TIP3    H280448   6.309   3.977   2.755 -1.2071 -1.2507  1.3389
19653TIP3   OH280449   4.703   3.626  15.503  0.0099 -0.1795 -0.1571
19653TIP3    H180450   4.668   3.705  15.462 -1.0678  0.3666  1.7091
19653TIP3    H280451   4.644   3.608  15.576  2.7835  0.0052  2.3342
19654TIP3   OH280452   0.817   1.919   3.395  0.0691  0.4098  0.3569
19654TIP3    H180453   0.864   1.967   3.463  0.9253 -1.2917  1.0151
19654TIP3    H280454   0.725   1.939   3.412  0.3148  0.6077  1.5494
19655TIP3   OH280455   4.792   0.905  17.028  0.1619 -0.2138 -0.4347
19655TIP3    H180456   4.734   0.963  16.979 -0.3739 -0.3410  0.0407
19655TIP3    H280457   4.879   0.921  16.991  0.3301  2.1192  0.7843
19656TIP3   OH280458   3.091   1.762  13.479 -0.6019 -0.1818 -0.5254
19656TIP3    H180459   3.091   1.848  13.523  0.3956 -1.3143  1.8821
19656TIP3    H280460   3.107   1.782  13.387  3.8958  2.0552  0.4769
19657TIP3   OH280461   1.701   3.794  14.829 -0.0724 -0.3081  0.0560
19657TIP3    H180462   1.611   3.769  14.808  0.1849  0.2758 -1.9066
19657TIP3    H280463   1.748   3.789  14.746  1.6318 -0.2029  0.9606
19658TIP3   OH280464   5.781   1.988   1.287 -0.0871  0.6150  0.3024
19658TIP3    H180465   5.813   1.901   1.262  0.4449  1.0067 -0.4104
19658TIP3    H280466   5.762   1.980   1.380  0.0418 -0.2399  0.2669
19659TIP3   OH280467   3.505   4.472  14.952  0.1085 -0.3199 -0.3754
19659TIP3    H180468   3.411   4.487  14.946  0.0898  0.0041  0.5467
19659TIP3    H280469   3.539   4.550  14.998  0.5904 -1.1810  0.7932
19660TIP3   OH280470   2.236   6.099  12.600  0.3437  0.5298 -0.0594
19660TIP3    H180471   2.320   6.066  12.567 -1.0023 -2.4780 -0.7855
19660TIP3    H280472   2.256   6.133  12.687  2.3388  0.0578 -0.2913
19661TIP3   OH280473   4.153   4.346   3.816  0.6263 -0.4236  0.3457
19661TIP3    H180474   4.134   4.357   3.910 -0.8760 -0.2976  0.0626
19661TIP3    H280475   4.111   4.422   3.775 -1.1785 -1.8871 -0.6756
19662TIP3   OH280476   6.118   2.226   4.640  0.2939  0.0055 -0.1411
19662TIP3    H180477   6.145   2.138   4.664  0.9885  0.2003 -0.1885
19662TIP3    H280478   6.082   2.263   4.720  0.4178 -0.1663 -0.0060
19663TIP3   OH280479   6.248   5.271  13.621 -0.0266  0.0596 -0.1897
19663TIP3    H180480   6.217   5.193  13.668  2.1900 -1.3954 -0.9716
19663TIP3    H280481   6.315   5.307  13.678  0.6519 -0.0356 -0.9170
19664TIP3   OH280482   1.154   1.087   4.434 -0.0393  0.0405 -0.2663
19664TIP3    H180483   1.196   1.005   4.410  0.6608  0.5323 -0.7727
19664TIP3    H280484   1.198   1.115   4.514 -0.8482 -0.4824  0.3768
19665TIP3   OH280485   0.021   2.605  14.637 -0.0153 -0.3381  0.4073
19665TIP3    H180486   0.084   2.533  14.634 -0.5391 -0.9022  1.8087
19665TIP3    H280487  -0.063   2.565  14.614 -0.3292 -0.2328  1.3011
19666TIP3   OH280488   3.373   2.042  12.392  0.2775  0.2348 -0.4003
19666TIP3    H180489   3.311   1.973  12.371  2.5239 -1.7950 -0.8317
19666TIP3    H280490   3.387   2.035  12.486 -0.3931  0.9669 -0.2307
19667TIP3   OH280491   5.263   2.492   3.974  0.1002  0.2139  0.1382
19667TIP3    H180492   5.342   2.544   3.958  1.1301 -1.8288 -2.0150
19667TIP3    H280493   5.295   2.414   4.020 -0.8280 -0.1690  0.1587
19668TIP3   OH280494   2.205   2.712  13.722  0.2765  0.2261  0.7771
19668TIP3    H180495   2.287   2.664  13.737 -0.3993 -1.1993  0.1201
19668TIP3    H280496   2.167   2.722  13.809  0.1011 -1.1131  0.8869
19669TIP3   OH280497   5.751   4.975   6.009 -0.0285 -0.2803 -0.4599
19669TIP3    H180498   5.812   5.045   6.030 -1.6111  1.2302 -0.6195
19669TIP3    H280499   5.767   4.908   6.075 -0.3571  1.4724  1.5140
19670TIP3   OH280500   4.746   0.253   3.850 -0.1647  0.0561  0.3445
19670TIP3    H180501   4.665   0.281   3.891 -1.2268 -1.7632 -0.4079
19670TIP3    H280502   4.753   0.307   3.771 -0.2636  0.7195  0.7897
19671TIP3   OH280503   4.582   2.541  12.724  0.0598 -0.5941 -0.4119
19671TIP3    H180504   4.498   2.587  12.728  1.4524  2.1311  0.0657
19671TIP3    H280505   4.638   2.590  12.785  1.7002 -3.0238  0.1584
19672TIP3   OH280506   0.712   0.520   6.193 -0.9252 -0.4900  0.3651
19672TIP3    H180507   0.718   0.567   6.276 -2.6221  0.1332  0.1681
19672TIP3    H280508   0.646   0.452   6.208 -0.0503 -1.4675 -0.0099
19673TIP3   OH280509   1.056   0.633  15.661  0.1091  0.1847  0.1721
19673TIP3    H180510   1.124   0.623  15.727  0.2649  1.9259  0.3140
19673TIP3    H280511   0.975   0.641  15.711 -0.0305 -0.4281  0.0568
19674TIP3   OH280512   0.389   1.448  11.267  0.1913  0.5269 -0.2784
19674TIP3    H180513   0.395   1.387  11.341  0.6971  2.0448  0.9803
19674TIP3    H280514   0.430   1.401  11.194 -2.4957 -2.0117 -0.3527
19675TIP3   OH280515   5.540   4.122   4.845  0.1588 -0.2924  0.4182
19675TIP3    H180516   5.504   4.180   4.778  2.1058  0.8363  0.2701
19675TIP3    H280517   5.574   4.180   4.912  1.8826 -1.2231  0.4279
19676TIP3   OH280518   5.319   0.254  13.271  0.1184 -0.1510 -0.0649
19676TIP3    H180519   5.336   0.321  13.337 -0.7160 -1.2612  1.3317
19676TIP3    H280520   5.350   0.173  13.311 -0.8677 -0.9320 -0.8387
19677TIP3   OH280521   6.556   3.790  14.720 -0.5668  0.0206  0.2911
19677TIP3    H180522   6.581   3.699  14.735 -0.6984 -0.7416 -3.1759
19677TIP3    H280523   6.465   3.795  14.749 -0.8292 -1.2263 -0.2651
19678TIP3   OH280524   3.303   3.008  13.151 -0.1381 -0.1233 -0.1636
19678TIP3    H180525   3.259   3.002  13.236  0.6368  2.1805  0.4954
19678TIP3    H280526   3.395   3.024  13.173 -0.0978  1.6041 -1.3467
19679TIP3   OH280527   3.605   6.237  16.741  0.4459 -0.2620 -0.4405
19679TIP3    H180528   3.699   6.229  16.755  0.4834 -1.0220 -1.0943
19679TIP3    H280529   3.568   6.154  16.771 -0.5130  1.2878  3.3915
19680TIP3   OH280530   0.843   1.960  16.916  0.6915  0.3641 -0.1905
19680TIP3    H180531   0.766   1.969  16.860  1.0315  1.2047 -0.5379
19680TIP3    H280532   0.891   1.886  16.879 -0.2100 -0.5201  0.3575
19681TIP3   OH280533   3.203   4.871   5.267  0.4780  0.0454  1.2206
19681TIP3    H180534   3.206   4.860   5.362  1.3775 -1.2249  1.0626
19681TIP3    H280535   3.239   4.959   5.252 -0.2561  0.5141  2.0725
19682TIP3   OH280536   5.882   0.706   4.355  0.1844 -0.7911  0.1470
19682TIP3    H180537   5.893   0.801   4.359 -0.6388 -0.5240 -2.3065
19682TIP3    H280538   5.937   0.679   4.283  1.4640 -2.4317  1.6602
19683TIP3   OH280539   1.868   2.102  13.133  0.2390 -0.4474  0.6672
19683TIP3    H180540   1.847   2.116  13.225 -1.4814 -1.4140  0.4601
19683TIP3    H280541   1.858   2.008  13.120  2.7713 -0.6798 -0.0055
19684TIP3   OH280542   1.112   0.379   4.508  0.0686 -0.2462 -0.0436
19684TIP3    H180543   1.193   0.370   4.458 -0.2391  2.7423 -1.3377
19684TIP3    H280544   1.133   0.346   4.595  3.1543  1.5511  0.0538
19685TIP3   OH280545   0.815   6.620   3.871 -0.9370  0.1870  0.0936
19685TIP3    H180546   0.801   6.679   3.945 -1.8402  0.2923 -0.1487
19685TIP3    H280547   0.808   6.532   3.908  0.1561  0.2132  0.4072
19686TIP3   OH280548   2.864   4.585   4.710 -0.2688 -0.4497 -0.1355
19686TIP3    H180549   2.923   4.659   4.701 -0.4151 -0.3629 -0.4173
19686TIP3    H280550   2.903   4.516   4.657 -1.4068  0.2336 -1.9782
19687TIP3   OH280551   2.739   5.849   2.987 -0.0232  0.1476  0.3970
19687TIP3    H180552   2.696   5.794   2.921  2.5261 -1.7918  0.2208
19687TIP3    H280553   2.794   5.908   2.936 -0.2440  0.6471  0.7260
19688TIP3   OH280554   2.640   2.245   0.799  0.1204  0.0177  0.4482
19688TIP3    H180555   2.618   2.176   0.737 -0.2309  1.8494 -1.5902
19688TIP3    H280556   2.735   2.258   0.788  0.3376 -0.6336  1.4119
19689TIP3   OH280557   3.542   3.842  16.231 -0.6413 -0.2095  0.3081
19689TIP3    H180558   3.589   3.886  16.161  0.1873 -1.7659 -0.1640
19689TIP3    H280559   3.520   3.911  16.293  3.0011  0.5481  0.9804
19690TIP3   OH280560   5.324   0.430   5.128  0.2975  0.4191 -0.2648
19690TIP3    H180561   5.370   0.359   5.084  1.5300  0.1242  1.4112
19690TIP3    H280562   5.376   0.508   5.109  0.0277  0.5480 -0.4936
19691TIP3   OH280563   0.003   1.719   1.569  0.4072 -0.2925 -0.2314
19691TIP3    H180564   0.024   1.780   1.498  2.7369 -0.0525  0.5881
19691TIP3    H280565   0.018   1.632   1.530  2.0153 -0.1550 -0.0093
19692TIP3   OH280566   5.698   0.242   0.876 -0.2852  0.4890 -0.1023
19692TIP3    H180567   5.784   0.203   0.894 -0.1269  0.0848 -1.6220
19692TIP3    H280568   5.696   0.322   0.929  0.4424 -0.2238  1.0407
19693TIP3   OH280569   2.647   3.497  15.542  0.2711 -0.1591 -0.0540
19693TIP3    H180570   2.577   3.549  15.582  0.7535 -0.0287  0.6354
19693TIP3    H280571   2.641   3.517  15.448 -0.5887 -0.1203  0.0026
19694TIP3   OH280572   3.293   0.662   0.817 -0.9357  0.5072  0.2274
19694TIP3    H180573   3.309   0.584   0.764 -2.4090 -1.3836  2.3667
19694TIP3    H280574   3.365   0.665   0.879  1.0700  3.0104 -1.9475
19695TIP3   OH280575   4.191   6.663  11.994  0.7923  0.0193  0.3532
19695TIP3    H180576   4.172   6.710  12.075 -2.6269  0.3506 -0.4669
19695TIP3    H280577   4.175   6.727  11.925 -2.3929 -1.7146 -0.7288
19696TIP3   OH280578   5.191   6.213  11.685  0.1272 -0.2197 -0.2123
19696TIP3    H180579   5.101   6.244  11.677 -0.0983 -1.1421 -2.0902
19696TIP3    H280580   5.185   6.119  11.666  1.4375 -0.3496 -0.0868
19697TIP3   OH280581   4.512   5.307   3.293  0.2953 -0.7753 -0.2076
19697TIP3    H180582   4.550   5.320   3.206 -0.0268 -1.9292 -0.5460
19697TIP3    H280583   4.560   5.368   3.350  0.8213 -0.3311 -1.1053
19698TIP3   OH280584   1.339   6.486   1.266 -0.2788 -0.3976 -0.2511
19698TIP3    H180585   1.369   6.397   1.279 -0.6083 -0.3844  0.6897
19698TIP3    H280586   1.244   6.478   1.255 -0.4605 -0.0769  0.9552
19699TIP3   OH280587   1.409   6.597   2.988  0.5508  0.2978 -0.2335
19699TIP3    H180588   1.452   6.635   3.064  1.9427  0.2549 -0.9736
19699TIP3    H280589   1.451   6.639   2.913  0.1178 -0.6109 -1.0072
19700TIP3   OH280590   0.110   0.425   5.703  0.0021 -0.5959  0.8426
19700TIP3    H180591   0.098   0.458   5.793 -0.6938 -1.1716  0.9716
19700TIP3    H280592   0.184   0.365   5.708  0.8150  0.3744  0.7539
19701TIP3   OH280593   5.380   0.281   0.717  0.3042  0.7952 -0.0909
19701TIP3    H180594   5.286   0.294   0.710  0.4375  1.6086 -0.6784
19701TIP3    H280595   5.406   0.332   0.794  0.0446 -0.8561  1.1292
19702TIP3   OH280596   1.149   1.562  13.195  0.5915  0.3600  0.7157
19702TIP3    H180597   1.162   1.649  13.157 -0.6021  0.3617  0.2880
19702TIP3    H280598   1.142   1.578  13.290 -2.1730  1.0733  0.4528
19703TIP3   OH280599   6.692   4.704   4.646  0.6357 -0.4257  0.6036
19703TIP3    H180600   6.769   4.714   4.702  0.4894 -1.5418  1.0398
19703TIP3    H280601   6.635   4.777   4.670  1.2413 -0.0134  0.8082
19704TIP3   OH280602   6.767   6.300  13.163 -0.2800 -0.0984 -0.1259
19704TIP3    H180603   6.775   6.325  13.071 -1.3318  0.4776 -0.0733
19704TIP3    H280604   6.716   6.219  13.162 -2.1653  1.0436  0.0528
19705TIP3   OH280605   5.363   1.413   0.745 -0.2942  0.0100  0.0672
19705TIP3    H180606   5.457   1.398   0.758  0.0342 -1.1680 -2.9635
19705TIP3    H280607   5.329   1.327   0.719 -2.2092  0.4828  0.8330
19706TIP3   OH280608   3.540   6.637   4.223 -0.8040 -0.4940 -0.1382
19706TIP3    H180609   3.635   6.626   4.223 -0.5215  1.5339  0.4735
19706TIP3    H280610   3.527   6.730   4.202 -2.6128 -0.4916  0.8462
19707TIP3   OH280611   6.395   4.441   3.242 -0.5926  0.4728 -0.0808
19707TIP3    H180612   6.447   4.488   3.307 -1.1828 -1.5077  1.9700
19707TIP3    H280613   6.456   4.420   3.172  1.0442 -0.5158  1.5673
19708TIP3   OH280614   3.476   4.885  12.883 -0.3870 -0.1039  0.4277
19708TIP3    H180615   3.508   4.795  12.871  0.0045  0.0499  0.2988
19708TIP3    H280616   3.399   4.876  12.940 -1.0527 -0.6404 -0.5261
19709TIP3   OH280617   5.972   4.064  11.779  0.4224 -0.2009  0.0298
19709TIP3    H180618   5.954   4.145  11.732 -0.8848 -1.5129 -1.8522
19709TIP3    H280619   5.892   4.013  11.773  1.3551 -1.8548  0.7385
19710TIP3   OH280620   3.350   4.842   3.327 -0.2089  0.3717  0.5023
19710TIP3    H180621   3.339   4.759   3.374 -1.3134  0.1882 -0.0446
19710TIP3    H280622   3.283   4.900   3.364 -2.3063 -0.3132 -1.9250
19711TIP3   OH280623   4.142   5.680  15.919  0.5239  0.2228 -0.9634
19711TIP3    H180624   4.108   5.748  15.861 -1.6261 -1.6687 -2.0709
19711TIP3    H280625   4.214   5.641  15.869  0.3654  0.2772 -1.2396
19712TIP3   OH280626   2.073   1.687   0.580 -0.6021  0.4018 -0.6109
19712TIP3    H180627   2.164   1.699   0.555 -0.6378 -0.5293 -1.2413
19712TIP3    H280628   2.075   1.675   0.675  0.4235 -3.4767 -0.9463
19713TIP3   OH280629   2.869   0.422   0.880 -0.4620  0.7208  0.1687
19713TIP3    H180630   2.917   0.460   0.953 -1.0455  2.0632 -0.1104
19713TIP3    H280631   2.897   0.473   0.804 -1.1416  0.4850 -0.2518
19714TIP3   OH280632   3.295   2.120  15.272 -0.1520  0.6609 -0.2979
19714TIP3    H180633   3.232   2.161  15.213 -1.1760 -0.1512  0.1824
19714TIP3    H280634   3.338   2.053  15.219 -0.0238  0.9136 -0.5115
19715TIP3   OH280635   4.362   3.227   4.337 -0.0328 -0.7360 -0.0249
19715TIP3    H180636   4.305   3.293   4.376  0.2058 -0.9999  0.7891
19715TIP3    H280637   4.432   3.277   4.296  0.6082 -0.4883  1.3105
19716TIP3   OH280638   4.785   3.049  14.980  0.4240  0.5458 -0.0041
19716TIP3    H180639   4.720   2.978  14.973 -1.0855  2.0124 -1.7766
19716TIP3    H280640   4.861   3.007  15.021 -0.7132 -1.8804 -0.1707
19717TIP3   OH280641   5.038   2.162  11.165 -0.4328  0.4456 -0.0121
19717TIP3    H180642   5.033   2.173  11.260  2.1800 -2.9293  0.7112
19717TIP3    H280643   4.957   2.202  11.133 -1.4299  1.7799  3.5636
19718TIP3   OH280644   1.124   3.317  12.257  0.4275  0.1781  0.1994
19718TIP3    H180645   1.113   3.308  12.163 -3.5476 -0.3821  0.5269
19718TIP3    H280646   1.146   3.228  12.287 -2.4989 -0.7161  0.0439
19719TIP3   OH280647   2.459   6.455  14.608 -0.0368 -0.4166  0.3679
19719TIP3    H180648   2.456   6.504  14.526 -0.9255 -0.1056  0.5694
19719TIP3    H280649   2.406   6.507  14.669 -0.0432 -1.0455  0.9130
19720TIP3   OH280650   3.450   0.205   0.747  0.2180  0.6343 -0.5026
19720TIP3    H180651   3.423   0.245   0.665 -0.7798  1.0979  0.0461
19720TIP3    H280652   3.452   0.111   0.728  3.0057  0.8674 -1.9272
19721TIP3   OH280653   4.057   2.766   3.020 -0.2079  0.2483  0.0723
19721TIP3    H180654   3.968   2.737   3.040  0.7776 -0.6330  3.8853
19721TIP3    H280655   4.102   2.687   2.991 -0.9916  1.0603 -3.9085
19722TIP3   OH280656   5.576   1.054   0.039 -0.3289  0.5990 -0.2383
19722TIP3    H180657   5.597   0.966   0.071 -2.4390  0.5242  1.1846
19722TIP3    H280658   5.654   1.082  -0.007 -0.0496 -2.5764 -2.0267
19723TIP3   OH280659   4.666   3.981  16.744 -0.3893 -0.5696 -0.0038
19723TIP3    H180660   4.660   3.889  16.768  0.1067 -0.2232  1.6036
19723TIP3    H280661   4.616   3.989  16.663 -0.2270 -2.2879 -0.2936
19724TIP3   OH280662   6.299   1.805   2.019 -0.1426  0.4208  0.7341
19724TIP3    H180663   6.373   1.849   1.979 -0.0895  0.3004  0.6990
19724TIP3    H280664   6.331   1.774   2.104  0.8745 -2.5066 -0.5863
19725TIP3   OH280665   4.846   4.478  14.477  0.1703 -0.8646  0.1200
19725TIP3    H180666   4.927   4.465  14.428 -0.2474  0.0395 -0.8692
19725TIP3    H280667   4.858   4.563  14.519  0.2931 -1.3778  1.1426
19726TIP3   OH280668   3.303   3.727   1.789 -0.2205 -0.1315 -0.1236
19726TIP3    H180669   3.244   3.776   1.846  0.6832  0.9963 -0.1162
19726TIP3    H280670   3.369   3.689   1.848  0.3193  0.4598 -0.3366
19727TIP3   OH280671   5.179   6.370  14.888  0.4207 -0.5464  0.6986
19727TIP3    H180672   5.128   6.416  14.821 -0.2278 -1.6217  0.4263
19727TIP3    H280673   5.207   6.439  14.948 -0.9007  0.1468  0.5659
19728TIP3   OH280674   5.459   6.699  16.764  0.2233 -0.0741 -0.0825
19728TIP3    H180675   5.484   6.764  16.698 -1.1957  0.3054 -0.2857
19728TIP3    H280676   5.478   6.740  16.848  1.8254 -0.4687 -0.2164
19729TIP3   OH280677   5.623   2.467  10.447  0.0064 -0.5304  0.1707
19729TIP3    H180678   5.593   2.380  10.421 -1.8254  0.2458 -0.4727
19729TIP3    H280679   5.546   2.508  10.486  1.1307  0.4406  1.4268
19730TIP3   OH280680   6.702   3.754   1.183 -0.4514 -0.0293  0.7602
19730TIP3    H180681   6.766   3.742   1.114 -2.2193 -0.0896 -0.9619
19730TIP3    H280682   6.724   3.838   1.224 -0.4717  0.9353 -1.1364
19731TIP3   OH280683   6.461   6.601   3.409  0.2225  0.8195  0.4172
19731TIP3    H180684   6.420   6.527   3.365  1.5785 -0.8632  1.8347
19731TIP3    H280685   6.502   6.650   3.338 -0.6932  0.2239 -0.5609
19732TIP3   OH280686   1.134   4.998   4.020  0.4145  0.5325 -0.2830
19732TIP3    H180687   1.087   4.915   4.010  0.7617  0.4334 -1.2505
19732TIP3    H280688   1.065   5.064   4.026  0.1253  0.1289  1.0943
19733TIP3   OH280689   3.914   0.262   1.508 -0.1424  0.1901  0.4657
19733TIP3    H180690   3.858   0.294   1.437 -0.9283  0.5633  1.2389
19733TIP3    H280691   3.958   0.340   1.541 -1.2219  0.3295  1.6252
19734TIP3   OH280692   2.360   5.043   4.382 -0.1706  0.2737 -0.1284
19734TIP3    H180693   2.454   5.056   4.393  0.0480 -1.7668  1.0006
19734TIP3    H280694   2.353   4.983   4.308 -0.4720 -0.6546  0.6340
19735TIP3   OH280695   0.482   5.728   2.846 -0.5241  0.0533 -0.3489
19735TIP3    H180696   0.575   5.742   2.865  0.4535 -3.5175 -1.6496
19735TIP3    H280697   0.457   5.656   2.904 -3.3805  2.6102  1.9122
19736TIP3   OH280698   4.441   5.890  11.829 -0.1152 -0.2874 -0.6058
19736TIP3    H180699   4.408   5.976  11.803 -2.1508 -1.6498 -2.9494
19736TIP3    H280700   4.377   5.859  11.893  1.2491  0.3215  1.1433
19737TIP3   OH280701   1.151   2.307   3.948 -0.1104 -0.1828  0.1867
19737TIP3    H180702   1.179   2.366   4.018 -1.3206  1.1576 -0.4049
19737TIP3    H280703   1.233   2.284   3.903  0.6076 -0.5500  1.6111
19738TIP3   OH280704   5.722   2.053  13.069 -0.5744 -0.4290  0.5588
19738TIP3    H180705   5.659   2.124  13.063  0.9647  0.9481 -0.2576
19738TIP3    H280706   5.670   1.973  13.073 -2.3711  0.3440 -3.3924
19739TIP3   OH280707   5.315   2.848  12.738 -0.3859  0.3817 -0.3141
19739TIP3    H180708   5.291   2.913  12.673  1.1779  1.0247 -0.3057
19739TIP3    H280709   5.299   2.890  12.822  1.0504  0.9649 -0.3073
19740TIP3   OH280710   4.161   1.637   2.231  0.4319 -0.3349 -0.6169
19740TIP3    H180711   4.127   1.576   2.297  0.5795  0.7138  0.4724
19740TIP3    H280712   4.103   1.627   2.156 -2.1952  1.1725  1.0382
19741TIP3   OH280713   3.063   4.522   3.296  0.0439 -0.1839 -0.2847
19741TIP3    H180714   3.054   4.445   3.239  2.6908 -0.2438 -0.7553
19741TIP3    H280715   3.080   4.594   3.236  2.6529 -0.2069  0.3182
19742TIP3   OH280716   3.597   2.423  10.924 -0.5863  0.3194  0.2846
19742TIP3    H180717   3.610   2.355  10.858 -3.1027 -2.9969  2.8354
19742TIP3    H280718   3.578   2.502  10.874  6.4165  0.6377 -3.0521
19743TIP3   OH280719   0.302   1.701  11.291  0.5068  0.1788 -0.0045
19743TIP3    H180720   0.209   1.684  11.307  0.0584  1.8428 -0.6871
19743TIP3    H280721   0.338   1.616  11.266 -1.0735 -0.2679 -0.8521
19744TIP3   OH280722   3.710   6.017   2.431  0.0319  0.1225 -0.4236
19744TIP3    H180723   3.768   6.034   2.505 -0.5834  1.9366 -0.3179
19744TIP3    H280724   3.673   6.102   2.409 -0.8932 -0.6193 -1.9192
19745TIP3   OH280725   3.593   3.397  16.909  0.3488  0.3041 -0.3209
19745TIP3    H180726   3.605   3.477  16.960  0.9206  0.1656 -0.2306
19745TIP3    H280727   3.574   3.329  16.974  0.2952  0.2791 -0.3622
19746TIP3   OH280728   0.682   6.818  16.813  0.2980  0.0256  1.0024
19746TIP3    H180729   0.761   6.873  16.810  0.7274 -0.4759  2.3512
19746TIP3    H280730   0.609   6.881  16.811  0.7118  0.4991 -0.1133
19747TIP3   OH280731   2.885   5.817   5.434  0.1272  0.0865 -0.3269
19747TIP3    H180732   2.973   5.839   5.465  0.2148 -3.2670  2.3556
19747TIP3    H280733   2.899   5.770   5.352  0.6412  1.0523 -0.8134
19748TIP3   OH280734   4.187   3.015   5.526 -0.1456 -0.1455  0.3123
19748TIP3    H180735   4.114   2.959   5.502 -1.8636  1.4842  1.4873
19748TIP3    H280736   4.180   3.090   5.468  0.7569 -0.0741  0.2798
19749TIP3   OH280737   2.417   0.575   4.475  0.5281 -0.6432  0.5350
19749TIP3    H180738   2.329   0.593   4.508  0.7171 -1.8398  1.7889
19749TIP3    H280739   2.473   0.578   4.553  2.0914  2.6025 -0.5249
19750TIP3   OH280740   3.738   3.512   3.008  0.6608 -0.1249  1.4763
19750TIP3    H180741   3.822   3.488   3.047  0.2449 -2.7693  0.9653
19750TIP3    H280742   3.731   3.454   2.932 -0.5169  1.8228  0.0252
19751TIP3   OH280743   2.044   0.306  12.404 -0.1313 -0.0588 -0.1197
19751TIP3    H180744   2.081   0.282  12.319 -2.7651 -0.5757 -1.2200
19751TIP3    H280745   1.964   0.353  12.383 -0.2345  0.8607  2.1105
19752TIP3   OH280746   5.870   2.862  16.673  0.2749  0.0465  0.4089
19752TIP3    H180747   5.832   2.814  16.745  0.0743  0.2684  0.4512
19752TIP3    H280748   5.841   2.816  16.594 -0.6993  0.6407  0.4042
19753TIP3   OH280749   4.961   4.367   3.588 -0.1086 -0.4119 -0.7398
19753TIP3    H180750   5.043   4.353   3.635 -0.1806  0.1892 -0.4206
19753TIP3    H280751   4.986   4.417   3.511 -0.0142 -1.2583 -1.2771
19754TIP3   OH280752   1.670   1.115  11.409  0.3419  0.4515  0.2656
19754TIP3    H180753   1.712   1.159  11.335 -0.2263 -0.1500 -0.4223
19754TIP3    H280754   1.668   1.023  11.385 -1.7123  0.5056  0.0880
19755TIP3   OH280755   3.790   6.259  12.640 -0.3483  0.4746 -0.2498
19755TIP3    H180756   3.696   6.271  12.652 -0.5180 -1.0147  0.1589
19755TIP3    H280757   3.819   6.210  12.717  0.5248 -0.1056 -0.9117
19756TIP3   OH280758   6.217   6.527  15.844  0.3401 -0.0036 -0.4750
19756TIP3    H180759   6.229   6.433  15.862 -0.8017 -0.0135  0.3396
19756TIP3    H280760   6.293   6.568  15.886 -0.2358 -0.3957  1.0393
19757TIP3   OH280761   1.409   1.746  16.660  0.2522 -0.0949  0.1440
19757TIP3    H180762   1.385   1.838  16.657  1.3450  0.1916 -0.4985
19757TIP3    H280763   1.339   1.701  16.613 -0.8534  0.2524  1.4021
19758TIP3   OH280764   1.691   2.466  15.007  0.2413 -0.3383 -0.1459
19758TIP3    H180765   1.784   2.452  14.987 -0.0684 -0.0038 -1.8879
19758TIP3    H280766   1.667   2.545  14.959 -0.9667 -0.4524  0.2401
19759TIP3   OH280767   4.404   1.738  11.469  0.3187  0.1160  0.5304
19759TIP3    H180768   4.406   1.833  11.458  0.5815  0.0370 -0.1863
19759TIP3    H280769   4.481   1.719  11.522 -0.0250  0.3467  1.1267
19760TIP3   OH280770   3.296   4.144   3.698  0.3541 -0.5170 -0.2621
19760TIP3    H180771   3.221   4.163   3.755 -0.1924  1.6524 -1.5659
19760TIP3    H280772   3.262   4.159   3.609  2.7505  2.4511 -0.8249
19761TIP3   OH280773   4.289   1.465   2.806 -0.6412 -0.4321  0.5617
19761TIP3    H180774   4.302   1.465   2.712  0.5718 -0.4821  0.7141
19761TIP3    H280775   4.213   1.522   2.820  0.5585  1.4862 -0.2768
19762TIP3   OH280776   0.133   1.531  14.563  0.1230 -0.2721 -0.4811
19762TIP3    H180777   0.153   1.523  14.657  0.7836  0.9015 -0.5046
19762TIP3    H280778   0.051   1.579  14.561 -1.3334 -2.5772 -0.4722
19763TIP3   OH280779   4.167   0.845   1.040 -0.1506  0.0956 -0.8668
19763TIP3    H180780   4.248   0.891   1.064 -0.7764  0.4808  0.5990
19763TIP3    H280781   4.185   0.753   1.059  0.0147  0.1511 -0.7557
19764TIP3   OH280782   1.551   5.858   3.229 -0.9383 -0.4056  0.0608
19764TIP3    H180783   1.579   5.842   3.139 -0.5507 -0.7306  0.2320
19764TIP3    H280784   1.613   5.807   3.282 -1.3711 -0.4856  0.4933
19765TIP3   OH280785   3.048   6.532  15.709 -0.0096 -0.2236 -0.5232
19765TIP3    H180786   3.051   6.618  15.752  0.1548 -0.2719 -0.4393
19765TIP3    H280787   2.954   6.511  15.706 -0.1291  0.3612 -1.3544
19766TIP3   OH280788   2.920   0.049   4.490 -0.1431  0.4082  0.4030
19766TIP3    H180789   2.851   0.111   4.466  0.1752  0.4879 -0.3162
19766TIP3    H280790   2.948   0.010   4.407 -0.7981 -1.1979  0.8883
19767TIP3   OH280791   0.564   3.044   2.295 -0.1932 -0.7357 -0.4737
19767TIP3    H180792   0.632   2.984   2.324 -0.9004 -1.3407 -0.0284
19767TIP3    H280793   0.509   3.057   2.372 -0.0699  0.4634 -0.5763
19768TIP3   OH280794   2.767   5.559   2.494  0.2344 -0.1653  0.4034
19768TIP3    H180795   2.856   5.548   2.528 -0.1654  1.4361  2.1509
19768TIP3    H280796   2.771   5.639   2.442  0.5342 -1.9155 -2.4537
19769TIP3   OH280797   1.178   0.382   5.770  0.5094 -0.3695  0.6352
19769TIP3    H180798   1.199   0.297   5.733 -0.2662 -0.6219  0.7703
19769TIP3    H280799   1.199   0.444   5.700  1.0794 -0.6627  0.5393
19770TIP3   OH280800   2.575   0.688   1.198  0.1045  0.0509 -0.4254
19770TIP3    H180801   2.500   0.676   1.140  0.7516 -1.8969 -0.9231
19770TIP3    H280802   2.546   0.652   1.282  0.2104  0.0894 -0.3726
19771TIP3   OH280803   4.811   3.613   0.276 -0.4699  0.1053 -0.1269
19771TIP3    H180804   4.732   3.572   0.309 -0.4498 -0.9185 -1.2633
19771TIP3    H280805   4.859   3.641   0.354 -1.0549 -0.9747  0.6345
19772TIP3   OH280806   4.106   4.917  14.903 -0.1133 -0.1239 -0.3528
19772TIP3    H180807   4.023   4.869  14.896  1.2489 -2.4622 -1.5987
19772TIP3    H280808   4.094   4.992  14.845 -0.8851 -1.2194 -1.6938
19773TIP3   OH280809   0.680   4.882  16.743 -0.1267 -0.3266  0.0576
19773TIP3    H180810   0.682   4.871  16.838  0.3676  1.1620  0.2434
19773TIP3    H280811   0.696   4.976  16.729 -1.8281 -0.2048 -1.4325
19774TIP3   OH280812   0.646   0.898  16.496  0.3088 -0.2654  0.1710
19774TIP3    H180813   0.623   0.805  16.500 -0.1265 -0.2082 -0.6619
19774TIP3    H280814   0.589   0.940  16.559  0.5259 -0.5676  0.5719
19775TIP3   OH280815   3.854   4.622   0.573 -0.3494 -0.1545 -0.3958
19775TIP3    H180816   3.880   4.562   0.502 -2.3789 -0.5414 -0.8612
19775TIP3    H280817   3.831   4.564   0.646 -0.7384  0.1410 -0.2838
19776TIP3   OH280818   2.504   5.170   3.979  0.0158 -0.4542 -0.0939
19776TIP3    H180819   2.461   5.138   3.900  0.7460  0.6430 -0.9811
19776TIP3    H280820   2.465   5.120   4.050 -0.4960 -1.6401 -1.1699
19777TIP3   OH280821   5.546   6.801  15.636  0.0155 -0.3719 -0.3287
19777TIP3    H180822   5.583   6.779  15.722  2.8615 -0.1792 -1.3685
19777TIP3    H280823   5.537   6.717  15.592 -0.6910 -0.4088 -0.1141
19778TIP3   OH280824   2.640   0.893   3.504  0.2053 -0.1969  0.3991
19778TIP3    H180825   2.639   0.980   3.543 -0.0130 -0.3128  0.6518
19778TIP3    H280826   2.733   0.872   3.497  0.2878  0.4229 -0.4922
19779TIP3   OH280827   3.351   1.392   2.388 -0.4782  0.1875 -0.5032
19779TIP3    H180828   3.263   1.419   2.359 -1.2531 -0.6160  0.9828
19779TIP3    H280829   3.363   1.436   2.472  0.0431 -0.6373 -0.1331
19780TIP3   OH280830   1.514   2.815  13.331 -0.9609 -0.2085  0.3517
19780TIP3    H180831   1.518   2.874  13.406 -1.0789 -0.3721  0.4863
19780TIP3    H280832   1.605   2.812  13.299 -1.3106  1.7391 -0.9870
19781TIP3   OH280833   5.820   3.740  16.242  0.3468 -0.1152  0.3443
19781TIP3    H180834   5.770   3.659  16.252  1.9730 -1.4641 -1.6764
19781TIP3    H280835   5.907   3.719  16.274  0.3833  1.3569  1.2897
19782TIP3   OH280836   2.398   6.641   5.902  0.5229  0.5129 -0.0598
19782TIP3    H180837   2.351   6.693   5.837 -0.5142  1.6102  1.5049
19782TIP3    H280838   2.360   6.553   5.894  1.2473  0.3115 -1.7006
19783TIP3   OH280839   6.069   4.469   1.660 -0.5055  0.3544  0.1736
19783TIP3    H180840   6.004   4.411   1.699 -0.2222  0.3253  0.6117
19783TIP3    H280841   6.148   4.455   1.712  0.4890 -1.1480 -1.6318
19784TIP3   OH280842   0.402   2.132  12.286  0.5381 -0.7646 -0.0525
19784TIP3    H180843   0.426   2.069  12.354 -0.6637 -0.1089  1.0312
19784TIP3    H280844   0.308   2.123  12.277  0.5571 -0.1752 -0.9731
19785TIP3   OH280845   1.369   4.399  10.614  0.4234  0.3644  0.2392
19785TIP3    H180846   1.354   4.468  10.549  2.2974  1.1221  0.5365
19785TIP3    H280847   1.288   4.348  10.614 -0.1742  1.2060 -1.6299
19786TIP3   OH280848   5.609   5.053  15.267 -0.4150 -0.0647 -0.7361
19786TIP3    H180849   5.563   5.026  15.188 -1.0591 -1.4482  0.0619
19786TIP3    H280850   5.688   5.096  15.235 -2.2217  2.4268 -2.1504
19787TIP3   OH280851   3.754   5.604  11.730  0.1635 -0.3247  0.1423
19787TIP3    H180852   3.734   5.634  11.641  0.6433  0.5451  0.3082
19787TIP3    H280853   3.848   5.584  11.728 -0.4670 -3.7366 -0.4607
19788TIP3   OH280854   3.994   3.409   2.069  0.1175  0.7720 -0.2397
19788TIP3    H180855   3.960   3.330   2.026  0.5985  0.3648  0.1334
19788TIP3    H280856   4.045   3.453   2.001  0.8357  0.1526 -0.1137
19789TIP3   OH280857   1.381   1.844   6.116  0.2302 -0.0211 -0.3314
19789TIP3    H180858   1.321   1.914   6.141  0.6278 -0.4072  1.9303
19789TIP3    H280859   1.467   1.888   6.111  0.3426 -0.1754  0.2166
19790TIP3   OH280860   5.789   6.675  12.942  0.4757  0.6815 -0.2579
19790TIP3    H180861   5.721   6.712  12.884  0.0889 -0.6154 -0.6747
19790TIP3    H280862   5.739   6.628  13.009  0.9186 -0.9641 -1.0179
19791TIP3   OH280863   5.537   0.839   1.637 -0.6507 -0.4691 -0.4642
19791TIP3    H180864   5.508   0.848   1.728 -3.3684 -2.8832 -0.9447
19791TIP3    H280865   5.621   0.792   1.643 -0.7889 -0.5870  0.8061
19792TIP3   OH280866   1.428   3.238  15.144 -0.2341 -0.2814 -0.5158
19792TIP3    H180867   1.340   3.206  15.166 -0.6759  1.3638  0.2478
19792TIP3    H280868   1.486   3.186  15.200 -0.9394  0.2417  0.7665
19793TIP3   OH280869   2.225   5.597  12.051 -0.9194  0.4469 -0.1368
19793TIP3    H180870   2.272   5.601  12.134  1.1273 -0.9376 -1.1589
19793TIP3    H280871   2.254   5.674  12.003 -1.1782  0.6041 -0.0441
19794TIP3   OH280872   2.916   3.772   2.198  0.2055  0.0773 -0.1426
19794TIP3    H180873   2.887   3.683   2.218  1.0146 -0.1441  0.1098
19794TIP3    H280874   2.912   3.819   2.281  2.8696 -0.6433  0.5086
19795TIP3   OH280875   4.017   0.119   5.009 -0.4053 -0.7539  0.4169
19795TIP3    H180876   3.942   0.089   5.061  0.0703 -1.7844  0.5358
19795TIP3    H280877   4.072   0.165   5.072 -2.5983  3.3939 -0.3163
19796TIP3   OH280878   0.009   3.004  16.674  0.5805 -0.0715 -0.4820
19796TIP3    H180879   0.066   3.009  16.751 -0.3082  1.0222  0.1485
19796TIP3    H280880  -0.035   2.920  16.682  2.4419 -1.1782 -1.2582
19797TIP3   OH280881   5.003   3.639   5.101  0.1915 -0.6235  0.0344
19797TIP3    H180882   4.968   3.574   5.040 -0.3793 -0.3905  0.1064
19797TIP3    H280883   5.039   3.707   5.045 -0.9087 -0.0998 -0.0610
19798TIP3   OH280884   6.384   2.564   0.960 -0.1698 -0.7625  0.1199
19798TIP3    H180885   6.429   2.577   0.876 -2.1624  0.4514 -0.8559
19798TIP3    H280886   6.315   2.631   0.960 -0.1373 -0.6337  2.8337
19799TIP3   OH280887   2.014   4.508   4.694  0.2121 -0.1192 -0.0904
19799TIP3    H180888   2.020   4.481   4.786 -0.4553 -0.7274 -0.2149
19799TIP3    H280889   1.954   4.583   4.695 -1.8174 -1.6589 -0.2958
19800TIP3   OH280890   6.263   2.233  12.512 -0.4549  0.0855  0.4467
19800TIP3    H180891   6.282   2.326  12.512  0.3430  0.1238 -3.5705
19800TIP3    H280892   6.167   2.228  12.515 -0.4846  0.9697  1.3448
19801TIP3   OH280893   3.635   2.192  15.326 -0.6744 -0.4571 -0.7363
19801TIP3    H180894   3.640   2.193  15.230 -2.1224 -1.7810 -0.8554
19801TIP3    H280895   3.553   2.237  15.346  0.1982  0.8639 -0.0362
19802TIP3   OH280896   3.057   1.399  16.907  0.2613  0.0528 -0.0882
19802TIP3    H180897   3.102   1.467  16.958  2.1440 -0.7761 -0.5699
19802TIP3    H280898   2.994   1.362  16.968 -1.0669  2.3856  0.1073
19803TIP3   OH280899   1.249   5.454   4.189 -0.4572  0.1546 -0.5587
19803TIP3    H180900   1.156   5.472   4.204 -0.7260  0.0321 -1.9700
19803TIP3    H280901   1.269   5.383   4.250 -1.1826  0.4272  0.0203
19804TIP3   OH280902   0.791   6.292   6.506 -1.0993 -0.0610 -0.0365
19804TIP3    H180903   0.712   6.317   6.554 -0.3304 -0.0762  1.2910
19804TIP3    H280904   0.760   6.275   6.417 -2.6216 -0.2948  0.4987
19805TIP3   OH280905   6.186   3.368  16.928 -0.1678  0.0189  0.3668
19805TIP3    H180906   6.194   3.379  16.833 -0.4454 -0.2721  0.3058
19805TIP3    H280907   6.121   3.432  16.955  0.8430  0.9834  0.5579
19806TIP3   OH280908   6.009   4.626   4.266  0.1771  0.8451  0.1406
19806TIP3    H180909   5.951   4.630   4.342 -0.3458  1.5672 -0.2863
19806TIP3    H280910   5.975   4.553   4.214 -0.0433  0.9545  0.1330
19807TIP3   OH280911   4.646   3.281   3.515 -0.1242 -0.1633  0.0250
19807TIP3    H180912   4.706   3.238   3.455  1.3704  2.2410 -0.3710
19807TIP3    H280913   4.703   3.335   3.571 -1.7781  0.7871  0.8931
19808TIP3   OH280914   0.243   3.311   6.040 -0.2455  0.3731  0.5103
19808TIP3    H180915   0.222   3.237   6.096  0.9594 -1.8693 -1.8210
19808TIP3    H280916   0.339   3.312   6.036 -0.2157 -0.9813 -3.0879
19809TIP3   OH280917   6.319   5.809  17.197 -0.3740 -0.2951  0.2682
19809TIP3    H180918   6.238   5.810  17.249  0.4938 -0.3988  1.6932
19809TIP3    H280919   6.327   5.720  17.165 -0.0689 -0.7001  1.4147
19810TIP3   OH280920   4.335   1.739   0.380  0.6759  0.5997  0.1307
19810TIP3    H180921   4.242   1.763   0.384  0.8439  1.0766  1.4265
19810TIP3    H280922   4.369   1.790   0.306  0.8205  3.7999  2.2177
19811TIP3   OH280923   5.857   1.822  15.921 -0.1421  0.4025 -0.2670
19811TIP3    H180924   5.817   1.810  16.007 -0.5254  0.4473 -0.4374
19811TIP3    H280925   5.919   1.894  15.933 -1.6004  1.7367 -0.4844
19812TIP3   OH280926   0.438   6.438  12.329 -0.1080 -0.1423 -0.2480
19812TIP3    H180927   0.437   6.422  12.423  0.0871  3.1689  0.4421
19812TIP3    H280928   0.512   6.387  12.297 -1.2824 -2.8241  0.9782
19813TIP3   OH280929   3.461   2.801  12.464  0.2807  0.2080  0.0601
19813TIP3    H180930   3.456   2.885  12.511 -0.1585  0.7764 -0.9754
19813TIP3    H280931   3.482   2.825  12.374  0.0567 -0.7932 -0.2705
19814TIP3   OH280932   0.441   2.897  15.577 -0.1647 -0.0286 -0.5354
19814TIP3    H180933   0.392   2.972  15.609  0.4313 -0.2160  0.8649
19814TIP3    H280934   0.527   2.905  15.617  0.3960 -0.6427 -1.5768
19815TIP3   OH280935   0.361   3.470   3.479  0.0207 -0.0420 -0.0593
19815TIP3    H180936   0.301   3.434   3.544 -0.1771  0.0522 -0.1907
19815TIP3    H280937   0.327   3.440   3.395  0.2016 -0.0534 -0.1302
19816TIP3   OH280938   5.471   5.552  16.254 -0.3956  0.4817 -0.0604
19816TIP3    H180939   5.545   5.611  16.268  0.7060 -0.3940 -1.8746
19816TIP3    H280940   5.501   5.468  16.289 -1.1533  0.4705  0.5961
19817TIP3   OH280941   0.041   2.788   4.066  0.2796  0.1354  0.2461
19817TIP3    H180942   0.030   2.862   4.007 -0.7110 -0.1400  0.0609
19817TIP3    H280943   0.130   2.757   4.049  0.0969  0.2030 -0.9537
19818TIP3   OH280944   1.785   3.289  15.709 -0.5373 -0.0477  0.0157
19818TIP3    H180945   1.880   3.289  15.715 -0.3998  0.0615 -1.7307
19818TIP3    H280946   1.763   3.203  15.672 -0.9915  0.4994 -1.0235
19819TIP3   OH280947   6.608   6.774   2.160 -0.0829 -0.1230 -0.1155
19819TIP3    H180948   6.537   6.709   2.165 -1.0987  0.9079 -0.6049
19819TIP3    H280949   6.682   6.732   2.204 -0.9262 -1.3197  0.2237
19820TIP3   OH280950   1.545   2.146  11.946 -0.0407  0.0151 -0.2075
19820TIP3    H180951   1.541   2.206  12.021  0.1827  0.6902 -0.7207
19820TIP3    H280952   1.628   2.167  11.903 -0.0748 -0.5042 -0.5318
19821TIP3   OH280953   4.235   4.954  14.585  0.0728  0.4336 -0.0139
19821TIP3    H180954   4.219   4.904  14.665 -1.5120 -0.0288 -0.5664
19821TIP3    H280955   4.221   5.045  14.611  1.5085  0.4746  0.6645
19822TIP3   OH280956   3.735   0.400   1.026  0.7827  0.0886 -0.6168
19822TIP3    H180957   3.702   0.313   1.005 -1.0382  1.3476 -3.5771
19822TIP3    H280958   3.803   0.418   0.961  1.3133  0.7949  0.1039
19823TIP3   OH280959   5.032   0.664   3.293  0.3188  0.3024  0.2339
19823TIP3    H180960   5.012   0.726   3.223  0.0495 -0.4434 -0.3530
19823TIP3    H280961   5.038   0.719   3.372 -2.9250  0.7938  0.2984
19824TIP3   OH280962   3.925   0.092   3.790  0.1022 -0.1721  0.4191
19824TIP3    H180963   3.875   0.108   3.710 -0.1484 -3.7783 -0.3050
19824TIP3    H280964   3.859   0.069   3.855  0.3876  1.8002  1.4887
19825TIP3   OH280965   3.519   4.576   4.135  0.2280 -0.0964  0.6754
19825TIP3    H180966   3.509   4.631   4.213  0.6027  1.2614 -0.2101
19825TIP3    H280967   3.540   4.637   4.065 -0.1039 -1.2979 -0.5084
19826TIP3   OH280968   5.896   4.677   1.748  0.2377  0.1244  0.5021
19826TIP3    H180969   5.945   4.711   1.824  1.4073  2.5966 -1.2171
19826TIP3    H280970   5.960   4.623   1.702  0.2891  0.5252  0.0919
19827TIP3   OH280971   0.204   0.422  15.191 -0.3111  0.6140  0.0657
19827TIP3    H180972   0.171   0.335  15.171 -0.1752  0.8150 -1.0788
19827TIP3    H280973   0.139   0.482  15.155  0.9120  1.0009 -1.5802
19828TIP3   OH280974   0.973   0.791   1.880  0.2612 -0.3495 -1.0638
19828TIP3    H180975   0.938   0.821   1.796 -0.5014  0.6568 -0.4192
19828TIP3    H280976   0.965   0.696   1.877  1.0940 -0.4065 -2.4805
19829TIP3   OH280977   1.750   3.072   0.846 -0.2479 -0.1351 -0.2186
19829TIP3    H180978   1.807   3.149   0.841  0.0363 -0.3237  0.1009
19829TIP3    H280979   1.803   3.001   0.808  0.4647 -0.7318  1.7581
19830TIP3   OH280980   3.694   5.548  14.060  0.4519  0.0920 -0.4485
19830TIP3    H180981   3.679   5.639  14.032 -1.3882  0.2752  0.9428
19830TIP3    H280982   3.711   5.555  14.154  2.7518 -0.8297 -0.7273
19831TIP3   OH280983   3.159   5.983  13.197  0.2339 -0.0792  0.1575
19831TIP3    H180984   3.212   5.952  13.271 -0.0543 -1.5608 -0.2424
19831TIP3    H280985   3.176   6.078  13.195  2.2231 -0.3734  0.5553
19832TIP3   OH280986   0.986   2.167  10.525  0.5470 -0.2549  0.2934
19832TIP3    H180987   0.983   2.217  10.607  0.1579  0.5113 -0.1786
19832TIP3    H280988   0.980   2.233  10.456 -3.9034 -1.0471 -0.3741
19833TIP3   OH280989   3.439   3.231  16.728 -0.7654 -0.5499 -0.5892
19833TIP3    H180990   3.462   3.140  16.709  0.3791 -0.6483  1.0180
19833TIP3    H280991   3.494   3.254  16.803  0.5072  2.1296 -2.1967
19834TIP3   OH280992   2.172   4.645   5.483  0.0225 -0.2372 -0.5920
19834TIP3    H180993   2.248   4.646   5.541 -0.1162 -0.1656 -0.4080
19834TIP3    H280994   2.097   4.634   5.542 -0.3619  2.3557 -0.4615
19835TIP3   OH280995   4.498   2.711   3.347  0.6380  0.5404 -0.2671
19835TIP3    H180996   4.563   2.730   3.415 -0.6605  0.1260  1.1469
19835TIP3    H280997   4.511   2.780   3.282  1.5045  1.3254  0.7018
19836TIP3   OH280998   2.453   4.535  12.915  0.4306 -0.4290  0.5028
19836TIP3    H180999   2.461   4.520  12.821  3.3435 -2.0869  0.8863
19836TIP3    H281000   2.516   4.474  12.954 -2.0018 -1.1888  3.6924
19837TIP3   OH281001   0.608   6.796   1.561  0.0685  0.1343 -0.2045
19837TIP3    H181002   0.623   6.704   1.582 -1.3761 -0.1912 -0.4933
19837TIP3    H281003   0.605   6.800   1.466  1.3023  0.7010 -0.2369
19838TIP3   OH281004   6.747   5.681  10.991 -0.0406  0.4297 -0.3744
19838TIP3    H181005   6.816   5.618  10.969  0.2987  0.3653  0.7896
19838TIP3    H281006   6.789   5.740  11.053 -1.3167 -0.2564  1.2106
19839TIP3   OH281007   6.283   3.204   1.013 -0.0726  0.3438  0.4001
19839TIP3    H181008   6.327   3.122   1.036 -0.6183 -0.3317 -0.8500
19839TIP3    H281009   6.243   3.234   1.094 -0.1311 -0.7920  0.8053
19840TIP3   OH281010   2.657   3.056  12.838 -0.2601  0.4786  0.4127
19840TIP3    H181011   2.642   3.029  12.929  1.6702  0.0649  0.6508
19840TIP3    H281012   2.690   3.146  12.844  1.3200 -0.0547  0.2882
19841TIP3   OH281013   0.063   4.453   2.039 -0.0964  0.2437  0.9980
19841TIP3    H181014   0.148   4.492   2.058  0.2933 -0.1238  0.0933
19841TIP3    H281015   0.037   4.492   1.955 -0.6265  0.0513  1.0663
19842TIP3   OH281016   4.558   1.325   2.619  0.1502 -0.6548 -0.5850
19842TIP3    H181017   4.499   1.372   2.560  1.2605 -0.8378 -1.8958
19842TIP3    H281018   4.602   1.394   2.668  1.0888 -0.3106 -1.8405
19843TIP3   OH281019   6.318   2.770   5.582 -0.5361  0.5401 -0.2035
19843TIP3    H181020   6.304   2.819   5.662 -1.3159  0.5573 -0.3463
19843TIP3    H281021   6.409   2.789   5.558 -0.3154  0.5690  0.6414
19844TIP3   OH281022   5.617   2.668  13.956 -0.2548 -0.4264  0.0007
19844TIP3    H181023   5.586   2.720  13.882  0.7049  0.6525  0.3210
19844TIP3    H281024   5.667   2.730  14.009 -2.1429 -0.8057  2.3576
19845TIP3   OH281025   2.657   6.274  16.506 -0.1549 -0.5135 -0.1926
19845TIP3    H181026   2.618   6.281  16.419 -1.8351 -1.6351  0.4299
19845TIP3    H281027   2.700   6.359  16.519  1.4572 -0.8365 -2.6654
19846TIP3   OH281028   0.899   0.749   0.760  0.3962  0.1586  0.4588
19846TIP3    H181029   0.958   0.699   0.703  0.0977 -0.0489  0.3319
19846TIP3    H281030   0.929   0.839   0.751 -0.0222  0.2142 -0.4994
19847TIP3   OH281031   5.628   6.475   4.497  0.4749  0.5704  0.1672
19847TIP3    H181032   5.591   6.555   4.459 -0.2279  0.2837  0.2194
19847TIP3    H281033   5.712   6.464   4.454 -0.1105  0.4793 -1.0068
19848TIP3   OH281034   0.358   2.692  15.821 -0.7153 -0.0558 -0.5684
19848TIP3    H181035   0.298   2.763  15.844 -0.1652  1.3543 -3.1057
19848TIP3    H281036   0.440   2.737  15.799 -0.3029 -1.4804 -2.1048
19849TIP3   OH281037   5.121   1.939  14.056  0.2929  0.0803  1.0285
19849TIP3    H181038   5.202   1.895  14.030 -1.2774 -2.3753 -0.0387
19849TIP3    H281039   5.109   1.914  14.148  0.5349  0.1557  1.0840
19850TIP3   OH281040   2.877   4.368   1.928  0.3615 -0.3683 -0.7331
19850TIP3    H181041   2.872   4.423   1.849 -1.4824 -2.2018 -1.9932
19850TIP3    H281042   2.916   4.286   1.898  3.9497  0.3886  1.3078
19851TIP3   OH281043   2.112   6.722  11.837 -0.2612  0.3292  0.1366
19851TIP3    H181044   2.106   6.688  11.747 -1.6001  0.6241  0.0954
19851TIP3    H281045   2.053   6.666  11.888  0.2267  0.3827  0.7674
19852TIP3   OH281046   6.270   0.805  12.511 -0.3193  0.5955  0.1111
19852TIP3    H181047   6.185   0.820  12.469 -0.2980  0.7920  0.1336
19852TIP3    H281048   6.294   0.716  12.486  0.6371  1.3706 -1.9849
19853TIP3   OH281049   1.590   5.923   5.220  0.4617  0.3688  0.1365
19853TIP3    H181050   1.534   5.877   5.283  3.0273 -0.5165  1.9519
19853TIP3    H281051   1.605   5.859   5.151 -2.3796  1.3491 -1.5828
19854TIP3   OH281052   2.324   3.695  17.022 -0.5606  0.7504  1.2649
19854TIP3    H181053   2.239   3.694  16.977 -0.8744  0.4101  1.8462
19854TIP3    H281054   2.309   3.642  17.101  0.1691  0.7665  1.4152
19855TIP3   OH281055   5.835   2.266   5.270  0.0034 -0.1510  0.4014
19855TIP3    H181056   5.907   2.328   5.261  1.1894 -1.7283 -2.2569
19855TIP3    H281057   5.770   2.295   5.206 -0.3916 -0.4346  0.6666
19856TIP3   OH281058   4.510   2.281  13.264 -0.1026 -0.1927 -0.2530
19856TIP3    H181059   4.521   2.186  13.265  2.8955  0.0666  1.0666
19856TIP3    H281060   4.435   2.297  13.321  0.1509 -1.7001  0.5584
19857TIP3   OH281061   4.621   4.261   0.974  0.1273  0.0673  0.0119
19857TIP3    H181062   4.592   4.274   1.064 -0.3723 -0.7761 -0.0134
19857TIP3    H281063   4.663   4.175   0.974  2.6983  1.2194  0.0385
19858TIP3   OH281064   1.526   0.607   5.408  0.4571 -0.0314 -0.8163
19858TIP3    H181065   1.492   0.692   5.438 -1.3930 -1.0752  0.1989
19858TIP3    H281066   1.448   0.553   5.394  1.6103 -1.7895 -0.7799
19859TIP3   OH281067   6.591   6.427  14.577 -0.1602  0.6128 -0.4533
19859TIP3    H181068   6.666   6.435  14.636  0.0655  1.8400 -0.8768
19859TIP3    H281069   6.625   6.383  14.500  0.1212  1.0858 -0.6061
19860TIP3   OH281070   6.010   0.180   2.989  0.0031 -0.6004  0.2993
19860TIP3    H181071   6.036   0.190   3.081  2.5710  0.5260 -0.4604
19860TIP3    H281072   6.039   0.092   2.966 -0.2745 -0.7326  0.4481
19861TIP3   OH281073   3.687   5.784  11.514 -0.1831 -0.2718  0.4130
19861TIP3    H181074   3.723   5.807  11.428 -0.5767 -1.0095  0.0450
19861TIP3    H281075   3.741   5.834  11.576  1.8723 -1.7169 -0.0805
19862TIP3   OH281076   4.246   1.254   6.117  0.3176  0.0481 -0.1058
19862TIP3    H181077   4.160   1.292   6.101  0.5347  0.6349  0.1171
19862TIP3    H281078   4.229   1.182   6.178 -0.0319  0.0788 -0.1650
19863TIP3   OH281079   2.103   0.065  11.121 -0.3878  0.1081 -0.1069
19863TIP3    H181080   2.117   0.108  11.037 -3.3148 -0.0750 -0.8171
19863TIP3    H281081   2.109   0.136  11.185 -0.0190  0.6031 -0.6739
19864TIP3   OH281082   3.397   3.203   0.789 -0.1068 -0.2908  0.1666
19864TIP3    H181083   3.382   3.243   0.875 -0.0488 -0.5993  0.3235
19864TIP3    H281084   3.491   3.185   0.788 -0.3333 -1.6112  0.6297
19865TIP3   OH281085   2.235   2.561  11.917  0.1084  0.2943 -0.1336
19865TIP3    H181086   2.169   2.549  11.985 -0.2010  0.5468 -0.3869
19865TIP3    H281087   2.214   2.495  11.851  1.0573 -0.6718  0.5055
19866TIP3   OH281088   3.469   3.271   0.235 -0.5216  0.0424  0.3732
19866TIP3    H181089   3.520   3.228   0.304  3.6928  0.5330 -2.0875
19866TIP3    H281090   3.502   3.234   0.154 -3.0082  1.7305 -1.5646
19867TIP3   OH281091   3.926   2.765   3.970  0.0219 -0.6197 -0.3570
19867TIP3    H181092   3.869   2.800   3.902 -2.4522 -2.0509  0.8258
19867TIP3    H281093   3.936   2.673   3.949  0.9316 -0.6511  0.1350
19868TIP3   OH281094   4.956   4.435  13.589  0.0694  0.6707  0.0422
19868TIP3    H181095   5.013   4.510  13.570  0.2755  0.4127 -0.3778
19868TIP3    H281096   4.991   4.365  13.535  1.8032 -0.6456  2.6308
19869TIP3   OH281097   4.886   5.072   1.544  0.3421 -0.1634  0.7888
19869TIP3    H181098   4.842   5.148   1.583  0.9556 -0.7927  2.8077
19869TIP3    H281099   4.837   4.996   1.577  0.4967 -0.7088 -0.1963
19870TIP3   OH281100   1.172   4.228   4.726 -0.4465  0.1388 -0.1913
19870TIP3    H181101   1.211   4.140   4.729 -4.2350 -1.7028  0.7929
19870TIP3    H281102   1.145   4.238   4.634 -0.8794 -0.1601 -0.0985
19871TIP3   OH281103   1.297   0.432   2.696  1.2034  0.0583 -0.3027
19871TIP3    H181104   1.346   0.467   2.623 -2.0871  1.9690 -1.8094
19871TIP3    H281105   1.207   0.424   2.664 -0.6324  1.7432  3.6469
19872TIP3   OH281106   5.745   1.337   1.229 -0.5166  0.6293 -0.3254
19872TIP3    H181107   5.690   1.273   1.184  0.2739 -0.1506 -0.2151
19872TIP3    H281108   5.834   1.305   1.216 -0.1514  1.3843  0.2521
19873TIP3   OH281109   0.359   1.912   0.211  0.0931  0.4667 -0.1323
19873TIP3    H181110   0.415   1.972   0.260  0.0733  0.4492 -0.0890
19873TIP3    H281111   0.391   1.918   0.121  0.6083 -0.0577  0.0095
19874TIP3   OH281112   1.684   3.427   1.429 -0.4971 -0.1705 -0.2097
19874TIP3    H181113   1.643   3.512   1.447  1.5618  1.1057 -1.1252
19874TIP3    H281114   1.702   3.390   1.516 -0.1479  0.9976  0.2339
19875TIP3   OH281115   3.091   4.348   4.616  0.3428  0.3228  0.1730
19875TIP3    H181116   3.167   4.289   4.619  0.3181  0.2163 -0.9524
19875TIP3    H281117   3.062   4.354   4.707  2.6843  1.6802  0.9207
19876TIP3   OH281118   2.690   0.222   4.410 -0.6044  0.2849  0.0315
19876TIP3    H181119   2.653   0.134   4.421 -0.0602 -0.1650 -1.4958
19876TIP3    H281120   2.730   0.241   4.495 -0.1386 -1.2372  0.1951
19877TIP3   OH281121   3.753   4.330  16.706 -0.8503  0.0991  0.1005
19877TIP3    H181122   3.740   4.424  16.716 -1.5445 -0.1471  1.7366
19877TIP3    H281123   3.700   4.290  16.775  0.5198 -1.4428  0.3204
19878TIP3   OH281124   2.827   1.569  17.019  0.2492 -0.0119 -0.2326
19878TIP3    H181125   2.802   1.501  16.957  0.3522 -0.7247  0.4868
19878TIP3    H281126   2.921   1.581  17.005  0.3277 -0.3706 -0.0364
19879TIP3   OH281127   3.548   0.881  15.818  1.0405  0.8797 -0.3311
19879TIP3    H181128   3.558   0.802  15.872  0.1197  0.5318 -0.6476
19879TIP3    H281129   3.637   0.905  15.793  1.4011  0.4614  0.5113
19880TIP3   OH281130   0.384   1.955   3.500 -0.0297  0.4072  0.6450
19880TIP3    H181131   0.468   2.001   3.506 -0.7957  1.9782 -0.0873
19880TIP3    H281132   0.318   2.024   3.509 -1.2403 -0.5522 -0.4309
19881TIP3   OH281133   1.040   2.810   5.194 -0.1330 -0.0808  0.3074
19881TIP3    H181134   1.082   2.742   5.141  2.7506  1.0103  1.0285
19881TIP3    H281135   1.048   2.777   5.284  0.4364  0.7413  0.5707
19882TIP3   OH281136   6.681   4.263  13.731  0.2530  0.5006  0.1241
19882TIP3    H181137   6.713   4.308  13.809 -0.4001  0.9578  0.1333
19882TIP3    H281138   6.757   4.212  13.700  0.1796 -0.7221  1.7893
19883TIP3   OH281139   2.704   1.843  16.144 -0.0315 -0.4552  0.4316
19883TIP3    H181140   2.780   1.797  16.179 -0.0369  0.4850  1.7515
19883TIP3    H281141   2.629   1.798  16.184 -0.2019 -1.3785 -0.8613
19884TIP3   OH281142   1.339   6.650  14.818  0.0754 -0.3692  0.2552
19884TIP3    H181143   1.434   6.665  14.813 -0.0422  1.3467  1.9081
19884TIP3    H281144   1.308   6.672  14.730  1.1862 -0.8266 -0.2768
19885TIP3   OH281145   4.220   2.995   0.172 -0.6798 -0.4399 -0.3785
19885TIP3    H181146   4.184   2.984   0.260  0.4421 -1.9521 -0.0651
19885TIP3    H281147   4.151   3.040   0.123 -1.8759 -0.8028  0.9089
19886TIP3   OH281148   3.695   5.693  15.766 -0.3553  0.7100  0.2900
19886TIP3    H181149   3.679   5.669  15.858  4.0655 -2.4785  0.5609
19886TIP3    H281150   3.776   5.744  15.769 -0.2180  0.6722 -1.8303
19887TIP3   OH281151   0.507   0.364  16.955  0.4234 -0.1119 -0.1219
19887TIP3    H181152   0.603   0.375  16.951  0.6337 -1.5350  0.6727
19887TIP3    H281153   0.479   0.427  17.020  1.2726 -2.0445  2.2567
19888TIP3   OH281154   2.286   4.523   1.062 -0.3194  0.2282  0.5341
19888TIP3    H181155   2.238   4.440   1.056 -1.1448  0.6411  1.2735
19888TIP3    H281156   2.374   4.497   1.092 -0.1899 -0.4841 -0.4131
19889TIP3   OH281157   4.928   5.699   3.119 -0.0699  0.5543  0.0121
19889TIP3    H181158   4.897   5.752   3.046 -0.0469  2.6533  1.4233
19889TIP3    H281159   4.926   5.609   3.087 -0.8563  1.3204 -2.2552
19890TIP3   OH281160   6.576   5.448  16.455  0.1703  0.0686  0.1786
19890TIP3    H181161   6.531   5.500  16.388 -0.3140  0.9687  1.1632
19890TIP3    H281162   6.518   5.374  16.471 -0.6545  0.8412  0.9198
19891TIP3   OH281163   2.840   4.921   5.649  0.3655  0.1295  0.0112
19891TIP3    H181164   2.924   4.940   5.609  0.1235 -0.0018 -0.5678
19891TIP3    H281165   2.831   4.987   5.718  1.0796 -0.0604  0.2872
19892TIP3   OH281166   5.477   5.430  11.466  0.0159  0.6399 -0.1357
19892TIP3    H181167   5.572   5.413  11.469 -0.4457 -3.3012 -1.3421
19892TIP3    H281168   5.448   5.422  11.556  0.7073  0.7296  0.0975
19893TIP3   OH281169   1.845   1.292  15.638  0.2890  0.1268  0.3443
19893TIP3    H181170   1.819   1.201  15.622 -0.0545  0.2293  0.3203
19893TIP3    H281171   1.903   1.313  15.565 -1.3893  0.6392 -0.8976
19894TIP3   OH281172   1.281   4.653   2.448  0.4861 -0.2800 -0.3643
19894TIP3    H181173   1.368   4.632   2.484 -0.2661 -2.5858  0.2617
19894TIP3    H281174   1.245   4.718   2.509  1.7306  0.7430 -0.6525
19895TIP3   OH281175   0.732   2.950  15.590 -0.1925  0.4177 -0.0961
19895TIP3    H181176   0.820   2.923  15.563 -0.5871 -1.4189  0.3286
19895TIP3    H281177   0.734   2.948  15.685 -0.7131  0.3298 -0.0844
19896TIP3   OH281178   1.526   1.532  11.172  0.3568  0.2381 -0.0067
19896TIP3    H181179   1.549   1.440  11.188 -1.9866 -0.2383  1.1780
19896TIP3    H281180   1.549   1.577  11.253 -2.9050 -0.3353  1.3848
19897TIP3   OH281181   0.307   0.053  10.495 -0.0474 -0.2770  0.4612
19897TIP3    H181182   0.384   0.109  10.487 -0.3853  0.3390  1.4288
19897TIP3    H281183   0.305   0.027  10.587  0.0349 -1.8035  0.0700
19898TIP3   OH281184   2.718   1.139   0.624  0.8633  0.4616 -0.1411
19898TIP3    H181185   2.778   1.154   0.697  2.2079  0.1037 -1.1556
19898TIP3    H281186   2.771   1.100   0.555 -0.8608 -1.5641 -0.4629
19899TIP3   OH281187   4.048   5.007   2.872 -0.1445  0.7130  0.1246
19899TIP3    H181188   4.013   5.082   2.920 -0.1456 -0.1302  1.5147
19899TIP3    H281189   3.980   4.940   2.879  0.0055  0.4603 -0.7782
19900TIP3   OH281190   0.412   0.215   3.215 -0.0506  1.0325  0.0895
19900TIP3    H181191   0.333   0.203   3.268  0.3821 -0.3245  0.4504
19900TIP3    H281192   0.451   0.128   3.210  1.1374  1.5861 -0.5434
19901TIP3   OH281193   0.917   3.542  12.200  0.0342 -0.5634  0.1037
19901TIP3    H181194   0.836   3.504  12.234  0.3158 -1.3784 -0.1056
19901TIP3    H281195   0.921   3.511  12.109  0.7955 -0.8964  0.2460
19902TIP3   OH281196   5.398   2.104   6.273  0.1096  0.2772  0.1050
19902TIP3    H181197   5.417   2.058   6.191  0.2807  0.6608 -0.0761
19902TIP3    H281198   5.304   2.120   6.270  0.3950  2.0499 -0.9780
19903TIP3   OH281199   6.100   5.931   6.640  0.0160 -0.4555  1.0331
19903TIP3    H181200   6.073   5.940   6.549  0.3841  0.2381  0.9853
19903TIP3    H281201   6.100   6.020   6.675  0.0666 -0.6905  1.6566
19904TIP3   OH281202   3.947   4.764   2.794 -0.6024 -0.0399  0.2838
19904TIP3    H181203   3.870   4.759   2.737  0.0668  0.2007 -0.6720
19904TIP3    H281204   4.020   4.780   2.734  0.0738  0.6555  1.2595
19905TIP3   OH281205   6.402   3.458  12.211 -0.0519 -0.2584 -0.1129
19905TIP3    H181206   6.328   3.517  12.203 -0.7746 -1.0762  0.3209
19905TIP3    H281207   6.479   3.512  12.194 -0.6910  0.7892  0.2645
19906TIP3   OH281208   4.480   5.197   3.694 -0.7556 -0.2396  0.5891
19906TIP3    H181209   4.531   5.277   3.687 -1.3195  0.0834  0.0943
19906TIP3    H281210   4.397   5.224   3.734 -0.1034 -0.9638  2.5146
19907TIP3   OH281211   3.180   2.303   4.264  0.2579 -0.4775 -0.2464
19907TIP3    H181212   3.119   2.361   4.310  0.6939 -0.0891 -0.1431
19907TIP3    H281213   3.132   2.221   4.252  0.7422 -1.2834  2.5918
19908TIP3   OH281214   5.782   2.237  15.152  0.3319  0.7660 -0.1758
19908TIP3    H181215   5.747   2.310  15.100  1.2948 -0.5934 -2.9137
19908TIP3    H281216   5.736   2.160  15.119  0.9106 -0.1752  1.1262
19909TIP3   OH281217   5.646   5.893   1.112 -0.0966 -0.6014  0.4639
19909TIP3    H181218   5.614   5.917   1.025 -0.2563 -1.2914  0.3254
19909TIP3    H281219   5.689   5.972   1.144  0.3936 -0.4783 -0.4442
19910TIP3   OH281220   0.957   1.392  15.014  0.1958 -0.1138  0.3424
19910TIP3    H181221   0.893   1.443  14.964 -0.2212 -2.1899 -1.3668
19910TIP3    H281222   0.914   1.377  15.098  0.5071  2.6219  1.0818
19911TIP3   OH281223   5.432   3.902   3.275 -0.7200  0.2307  0.0824
19911TIP3    H181224   5.345   3.944   3.278 -0.6920  0.4403 -1.2831
19911TIP3    H281225   5.479   3.950   3.207  0.9922  1.0401  1.7574
19912TIP3   OH281226   3.243   3.878  16.395 -0.6165  0.2413  0.0237
19912TIP3    H181227   3.165   3.834  16.430 -1.5889  2.2017  0.4760
19912TIP3    H281228   3.299   3.807  16.365 -1.1990 -1.4076  2.5420
19913TIP3   OH281229   0.307   3.782   0.028 -0.5274 -0.0794  0.3849
19913TIP3    H181230   0.375   3.770  -0.037 -1.1629 -1.1546 -0.1006
19913TIP3    H281231   0.267   3.696   0.038 -1.0531  0.2763  1.5130
19914TIP3   OH281232   5.504   2.585   5.276  0.0191  0.0789  0.2283
19914TIP3    H181233   5.445   2.652   5.243  0.4274  0.4736  0.2762
19914TIP3    H281234   5.526   2.614   5.365 -1.3933 -1.1798  1.0372
19915TIP3   OH281235   3.778   2.723   3.484 -0.7189 -0.5221  0.5714
19915TIP3    H181236   3.735   2.651   3.530 -0.2982 -0.8018  0.5348
19915TIP3    H281237   3.814   2.778   3.553 -0.1380 -0.9112  0.5909
19916TIP3   OH281238   0.851   4.086   0.954 -0.1778  0.1014  0.0459
19916TIP3    H181239   0.778   4.080   0.893 -1.3193 -1.4111  1.4656
19916TIP3    H281240   0.818   4.141   1.026 -0.0561 -0.8292  0.8365
19917TIP3   OH281241   6.733   6.493   3.209 -0.0993 -0.9725 -0.2014
19917TIP3    H181242   6.751   6.508   3.302 -0.7833  1.5177 -0.4047
19917TIP3    H281243   6.698   6.404   3.206 -1.1896 -0.7139  2.1275
19918TIP3   OH281244   3.775   2.754   1.689 -0.3417 -0.0702 -0.1947
19918TIP3    H181245   3.816   2.801   1.617  1.2170 -1.8112 -0.5161
19918TIP3    H281246   3.786   2.812   1.765  1.7124  0.0604 -0.5261
19919TIP3   OH281247   6.030   2.167   2.240  0.0351  0.0586  0.3787
19919TIP3    H181248   6.071   2.083   2.258  0.6434  0.8955  3.5073
19919TIP3    H281249   5.941   2.158   2.274  0.2600  0.7998  1.2055
19920TIP3   OH281250   2.055   0.002   5.821  0.1853 -0.5857  0.0400
19920TIP3    H181251   2.071   0.067   5.889 -0.6260  0.0653 -0.3820
19920TIP3    H281252   1.997   0.045   5.758 -0.0298 -1.5677 -0.4685
19921TIP3   OH281253   4.929   2.298   6.532 -0.1326  0.8592  0.5858
19921TIP3    H181254   4.941   2.381   6.579  0.4794  1.0993  0.0254
19921TIP3    H281255   5.017   2.277   6.500 -0.0124 -0.6817  1.8018
19922TIP3   OH281256   4.753   6.817  15.692 -0.0979  0.7483  0.6504
19922TIP3    H181257   4.783   6.824  15.601  0.8535  0.3547  0.9202
19922TIP3    H281258   4.687   6.886  15.701 -0.3857  0.6293 -0.4047
19923TIP3   OH281259   1.064   5.108   4.329  0.0263 -0.4722  0.2692
19923TIP3    H181260   0.986   5.111   4.384 -0.3180  2.0307 -0.2725
19923TIP3    H281261   1.031   5.110   4.239  0.6623  1.3015  0.0299
19924TIP3   OH281262   2.719   3.666   2.425  0.1816 -0.2192  0.0688
19924TIP3    H181263   2.753   3.754   2.410  0.1197 -0.2717 -0.4040
19924TIP3    H281264   2.772   3.631   2.496  1.6693 -0.6111 -1.1962
19925TIP3   OH281265   5.405   5.705   1.318 -0.2342 -0.0173  0.7868
19925TIP3    H181266   5.394   5.797   1.344 -0.1788 -0.7530  3.7873
19925TIP3    H281267   5.453   5.665   1.391  0.5359 -2.2638 -0.8458
19926TIP3   OH281268   2.057   6.074  11.313 -0.0460 -0.1712  0.7552
19926TIP3    H181269   2.090   6.138  11.250 -0.5156 -0.9044 -0.2727
19926TIP3    H281270   2.135   6.033  11.349  0.3316 -2.3838 -2.1526
19927TIP3   OH281271   6.660   4.241  13.045  0.4390  0.0515 -0.0951
19927TIP3    H181272   6.683   4.213  13.134 -0.6979  1.1315  0.5773
19927TIP3    H281273   6.730   4.300  13.020  0.6878 -0.1371  0.1486
19928TIP3   OH281274   4.932   4.528   4.059  0.5077 -0.0382  0.1515
19928TIP3    H181275   4.915   4.620   4.078  0.0203 -0.2709  0.8991
19928TIP3    H281276   4.917   4.519   3.965 -0.1939  0.4853  0.2089
19929TIP3   OH281277   6.426   5.050   5.607 -0.2214  0.8468 -0.8833
19929TIP3    H181278   6.401   5.099   5.528  0.5353 -0.2451 -1.8449
19929TIP3    H281279   6.476   4.975   5.573  0.1239  0.3565  0.6489
19930TIP3   OH281280   0.912   5.721  12.174  0.3258  0.3580  0.0493
19930TIP3    H181281   0.919   5.626  12.175 -0.5846  0.2836  0.5012
19930TIP3    H281282   0.987   5.750  12.122 -1.5042 -0.8009 -3.5852
19931TIP3   OH281283   4.765   5.931  16.553  0.4068  0.1958 -0.7383
19931TIP3    H181284   4.833   5.867  16.575  0.5737  1.1400  1.8202
19931TIP3    H281285   4.684   5.880  16.550  0.4875 -0.1505  1.5918
19932TIP3   OH281286   4.583   3.264   5.165 -0.6188 -0.3682  0.0450
19932TIP3    H181287   4.583   3.174   5.198  2.1689 -0.9238 -1.1498
19932TIP3    H281288   4.622   3.258   5.078 -0.8531  1.9403 -0.2926
19933TIP3   OH281289   1.776   5.516  11.312 -0.0754 -0.2589  0.6847
19933TIP3    H181290   1.807   5.504  11.222 -0.2327  1.1999  0.4139
19933TIP3    H281291   1.856   5.509  11.365  0.1715 -0.0971  0.3387
19934TIP3   OH281292   3.853   3.731  13.087  0.1383  0.2678 -0.6410
19934TIP3    H181293   3.837   3.769  13.173  0.7077 -0.2684 -0.2880
19934TIP3    H281294   3.779   3.761  13.033 -1.7479 -1.6085  0.7477
19935TIP3   OH281295   6.192   1.500  16.098  0.6928  0.2075 -0.1702
19935TIP3    H181296   6.267   1.470  16.047  1.4650  1.7646 -0.0187
19935TIP3    H281297   6.195   1.595  16.092 -0.2332  0.3721  1.3115
19936TIP3   OH281298   2.292   6.759   3.556 -0.0276 -0.6246 -0.3369
19936TIP3    H181299   2.250   6.774   3.472  0.6055 -1.1893 -0.7613
19936TIP3    H281300   2.276   6.667   3.575  1.5741 -1.0542 -0.8481
19937TIP3   OH281301   3.235   6.333   3.479 -0.7052  0.1566  0.2753
19937TIP3    H181302   3.163   6.359   3.537  0.3559  0.4281  1.5026
19937TIP3    H281303   3.272   6.415   3.447 -0.8601  0.0169 -0.2913
19938TIP3   OH281304   4.981   4.530  13.266  0.0033 -0.4635  0.2345
19938TIP3    H181305   5.026   4.574  13.338  2.7693 -2.2098 -0.2642
19938TIP3    H281306   4.972   4.439  13.295 -1.5047 -0.5735 -0.5017
19939TIP3   OH281307   4.481   2.020  10.967 -0.3363 -0.4561 -0.0585
19939TIP3    H181308   4.446   1.931  10.973 -0.6568 -0.4179 -1.1639
19939TIP3    H281309   4.415   2.075  11.010 -0.2129 -0.7244  0.4866
19940TIP3   OH281310   1.182   6.003   5.861  0.3012 -0.5902 -0.9223
19940TIP3    H181311   1.152   5.913   5.869  0.0512 -0.4789 -0.6041
19940TIP3    H281312   1.233   6.019   5.941 -1.1134  0.1022 -0.1133
19941TIP3   OH281313   0.001   6.658   0.247 -0.3020  0.0585 -0.1905
19941TIP3    H181314  -0.080   6.694   0.213 -1.1434 -0.7997  0.8271
19941TIP3    H281315   0.059   6.652   0.171 -1.0237  1.0816 -0.8519
19942TIP3   OH281316   1.470   0.409  11.126 -0.2767  0.2034  0.2398
19942TIP3    H181317   1.405   0.342  11.103 -0.1617  0.0230  0.4349
19942TIP3    H281318   1.428   0.492  11.103 -0.1856  0.0305 -0.5712
19943TIP3   OH281319   5.578   1.174   3.759  0.0904 -0.7159 -0.3232
19943TIP3    H181320   5.493   1.199   3.795 -0.6613 -0.8665 -1.9437
19943TIP3    H281321   5.582   1.215   3.673  1.1185 -1.7351 -0.7993
19944TIP3   OH281322   3.074   0.296  13.991  0.0708  0.0233  0.3361
19944TIP3    H181323   3.045   0.375  13.945  0.4072  0.9230  1.6126
19944TIP3    H281324   3.027   0.298  14.074  0.4649 -0.8758  0.5974
19945TIP3   OH281325   0.541   5.473   5.211 -0.1919  0.1657  0.4556
19945TIP3    H181326   0.455   5.485   5.250 -2.0743 -1.0772 -2.8674
19945TIP3    H281327   0.560   5.380   5.224  0.8093  0.4795  1.3667
19946TIP3   OH281328   2.017   4.871   2.191 -0.0078 -0.0944  0.2843
19946TIP3    H181329   2.074   4.802   2.225  1.7672  1.5701  0.9158
19946TIP3    H281330   1.999   4.846   2.101  2.4540 -0.3455 -0.2191
19947TIP3   OH281331   2.416   5.378  10.804  0.4080 -1.2912 -0.3790
19947TIP3    H181332   2.413   5.332  10.720 -1.4149 -0.9484 -0.5375
19947TIP3    H281333   2.435   5.469  10.781  0.8908 -1.3789 -0.3314
19948TIP3   OH281334   4.759   1.966   2.206  0.1976 -0.1586  0.5491
19948TIP3    H181335   4.758   2.060   2.185 -1.0501 -0.1876  0.4142
19948TIP3    H281336   4.850   1.948   2.230  0.4570  1.0845  0.5690
19949TIP3   OH281337   1.583   4.517   0.016  0.1796  0.0210 -0.1382
19949TIP3    H181338   1.592   4.606  -0.018  0.3489 -0.8292 -2.4839
19949TIP3    H281339   1.672   4.490   0.036  0.0227  0.7781  1.8964
19950TIP3   OH281340   1.797   1.324  16.991 -0.5754 -0.2224  0.0878
19950TIP3    H181341   1.719   1.374  17.014  0.3106  1.3537 -0.1940
19950TIP3    H281342   1.859   1.343  17.062 -0.4956 -1.6337  0.4255
19951TIP3   OH281343   2.397   3.443   4.832 -0.4369 -1.1506 -0.6032
19951TIP3    H181344   2.416   3.380   4.762  0.4292 -3.8059  1.8607
19951TIP3    H281345   2.378   3.390   4.909 -1.1300  1.6249  1.3149
19952TIP3   OH281346   0.200   6.447   1.374  0.1467 -0.0822  0.0267
19952TIP3    H181347   0.135   6.484   1.315  1.4647  0.2709 -1.2804
19952TIP3    H281348   0.152   6.385   1.428 -1.1201 -0.4873 -1.4854
19953TIP3   OH281349   0.386   0.237   4.494 -0.6438 -0.1945  0.3374
19953TIP3    H181350   0.411   0.244   4.586 -0.3132  2.1295  0.1258
19953TIP3    H281351   0.312   0.297   4.485 -0.2107  0.1495 -1.0753
19954TIP3   OH281352   6.051   0.544  15.862 -0.1163 -0.0442  0.2297
19954TIP3    H181353   6.045   0.462  15.813  1.3790 -0.2284  0.3282
19954TIP3    H281354   6.041   0.613  15.796 -0.2486 -0.2961 -0.0127
19955TIP3   OH281355   4.744   2.912   1.182 -0.1540  0.7711  0.5543
19955TIP3    H181356   4.753   2.972   1.256  0.6467 -0.3493  1.4066
19955TIP3    H281357   4.742   2.825   1.222 -0.9510  0.1965 -0.6675
19956TIP3   OH281358   5.284   1.802   5.495 -0.2400 -0.7273 -0.0707
19956TIP3    H181359   5.228   1.834   5.424  1.2095  1.0492 -0.4892
19956TIP3    H281360   5.360   1.765   5.451 -0.4608 -1.9313  0.5269
19957TIP3   OH281361   6.189   3.655  14.458 -0.1109 -0.2525 -0.4477
19957TIP3    H181362   6.095   3.638  14.455  0.2234 -2.3929 -0.5459
19957TIP3    H281363   6.223   3.586  14.516  1.4060  0.4582 -0.4522
19958TIP3   OH281364   2.583   0.902  13.620  0.0877  0.7095  0.1346
19958TIP3    H181365   2.494   0.867  13.608  0.2318 -0.7135  2.4889
19958TIP3    H281366   2.638   0.847  13.565 -0.1337 -0.6227  1.1856
19959TIP3   OH281367   2.015   2.023   1.460  0.1804  0.1116 -0.6072
19959TIP3    H181368   2.108   2.008   1.480 -0.4613 -1.6602  1.3590
19959TIP3    H281369   1.980   2.063   1.539 -1.0246 -0.4713 -0.8323
19960TIP3   OH281370   0.686   2.919  12.004  0.5539  0.2443  0.1056
19960TIP3    H181371   0.657   2.993  12.057  0.9751  0.3031  0.2559
19960TIP3    H281372   0.645   2.843  12.046 -0.8817  0.5005 -0.7719
19961TIP3   OH281373   4.329   1.150  10.925 -0.0276 -0.0099 -0.1300
19961TIP3    H181374   4.288   1.077  10.879 -2.5619  1.1331  0.1132
19961TIP3    H281375   4.339   1.119  11.015  1.7449 -1.0397 -0.6226
19962TIP3   OH281376   1.187   5.946  10.637  0.3058  0.2124 -0.5858
19962TIP3    H181377   1.250   6.014  10.613 -0.5141  0.7088 -1.3988
19962TIP3    H281378   1.101   5.982  10.612 -0.2185 -0.7980 -0.3185
19963TIP3   OH281379   6.280   4.684  10.555 -0.2628  0.8739  0.2864
19963TIP3    H181380   6.257   4.664  10.464  0.5079  0.0558  0.2565
19963TIP3    H281381   6.329   4.607  10.585  0.8766  1.7929  0.8874
19964TIP3   OH281382   1.086   0.380  15.999 -0.7052 -0.3709 -0.1908
19964TIP3    H181383   1.149   0.337  15.940  0.7463  2.5466 -0.9439
19964TIP3    H281384   1.112   0.350  16.086 -1.0186 -2.4776 -0.7638
19965TIP3   OH281385   6.423   4.022   5.267  0.1810  0.6620  0.5393
19965TIP3    H181386   6.495   3.961   5.250 -0.4735 -0.2714  0.9998
19965TIP3    H281387   6.451   4.072   5.344  0.0011 -0.2700  1.2283
19966TIP3   OH281388   6.479   2.766  16.021 -0.0254  0.6757  0.6662
19966TIP3    H181389   6.482   2.774  15.926  3.1345  0.7029  0.6625
19966TIP3    H281390   6.434   2.683  16.037  0.2522  0.2057 -0.8926
19967TIP3   OH281391   1.748   6.799   2.992 -0.4715 -0.4994  0.5308
19967TIP3    H181392   1.754   6.887   2.955 -1.8844 -0.5436  0.1240
19967TIP3    H281393   1.812   6.748   2.943  0.6033  0.3601  1.0006
19968TIP3   OH281394   3.488   4.550   6.037  0.3023  0.1591  0.2010
19968TIP3    H181395   3.491   4.458   6.065 -0.0574 -0.1495 -0.7391
19968TIP3    H281396   3.516   4.549   5.946 -1.1978  0.7581 -0.3005
19969TIP3   OH281397   0.769   1.526   1.162 -0.0370 -0.0731 -0.4147
19969TIP3    H181398   0.783   1.589   1.092  3.4717 -1.0497 -0.8266
19969TIP3    H281399   0.739   1.447   1.117  0.5810 -0.1973 -0.6216
19970TIP3   OH281400   0.818   3.003   5.243  0.3481 -0.2803 -0.0804
19970TIP3    H181401   0.759   2.963   5.306  0.8151 -1.4643 -0.3675
19970TIP3    H281402   0.893   2.944   5.239  0.7917  0.3103 -0.9751
19971TIP3   OH281403   4.570   4.036  16.044  0.2352 -0.7080 -0.0041
19971TIP3    H181404   4.528   3.950  16.046 -0.9260 -0.1567  0.4118
19971TIP3    H281405   4.663   4.018  16.038 -0.1157 -1.9725 -2.4658
19972TIP3   OH281406   0.599   6.019  12.291 -0.1019 -0.0385  0.0504
19972TIP3    H181407   0.690   5.995  12.309 -0.2808 -0.1507  0.8157
19972TIP3    H281408   0.589   6.005  12.197  2.0086  4.4119 -1.1127
19973TIP3   OH281409   3.962   5.368  11.919  0.0437 -0.3529 -0.3680
19973TIP3    H181410   3.929   5.280  11.936  1.2950 -0.9579 -0.8975
19973TIP3    H281411   3.999   5.397  12.003  0.5848 -0.7784 -0.4537
19974TIP3   OH281412   1.491   0.417   5.033  0.0751 -0.4300 -0.0720
19974TIP3    H181413   1.561   0.438   4.971 -0.0964 -0.9067 -0.4319
19974TIP3    H281414   1.488   0.322   5.035 -0.2382 -0.4166  0.3154
19975TIP3   OH281415   3.447   6.081   3.588  0.7524 -0.3260 -0.1056
19975TIP3    H181416   3.388   6.138   3.637 -1.3736 -1.5299 -1.0838
19975TIP3    H281417   3.471   6.133   3.511  1.0492  0.2118  0.3426
19976TIP3   OH281418   4.048   1.084   1.695  0.2550 -0.0799  0.1222
19976TIP3    H181419   3.983   1.151   1.714  1.3347  1.3500 -1.0433
19976TIP3    H281420   4.121   1.104   1.754  0.7279  0.0111 -0.4817
19977TIP3   OH281421   3.435   1.819  17.082  0.0195 -0.2620  0.2994
19977TIP3    H181422   3.491   1.792  17.009 -0.7756  0.3000 -0.5451
19977TIP3    H281423   3.477   1.898  17.116  0.9068 -1.0421  1.0830
19978TIP3   OH281424   4.307   5.554  15.709  0.3999  0.2517  0.2692
19978TIP3    H181425   4.261   5.550  15.625  0.5345 -1.0805  0.2322
19978TIP3    H281426   4.305   5.463  15.741 -1.1354  0.9902  2.4996
19979TIP3   OH281427   4.513   5.560   1.236  0.5221 -0.4971 -0.3429
19979TIP3    H181428   4.582   5.585   1.298 -0.4136  0.1715  0.4828
19979TIP3    H281429   4.502   5.638   1.181 -1.6477  0.6554  1.5283
19980TIP3   OH281430   0.187   0.413   3.345 -0.2932 -0.2148 -0.1688
19980TIP3    H181431   0.155   0.324   3.362  0.6664 -0.1599  2.3564
19980TIP3    H281432   0.195   0.418   3.250 -2.4357 -2.0731 -0.5428
19981TIP3   OH281433   4.185   2.653   0.207  0.5174 -0.0112  0.0042
19981TIP3    H181434   4.190   2.567   0.248  0.2870 -0.8513 -1.6454
19981TIP3    H281435   4.271   2.665   0.167  0.1562 -0.0474 -0.8128
19982TIP3   OH281436   4.960   6.379   4.088 -0.2958 -0.0968 -0.3522
19982TIP3    H181437   5.053   6.374   4.109  0.1045 -1.7033 -2.2402
19982TIP3    H281438   4.954   6.351   3.997 -2.3129  2.8543 -1.2985
19983TIP3   OH281439   3.587   3.839  11.564  0.7095  0.3146 -0.2965
19983TIP3    H181440   3.551   3.916  11.518  2.0895  1.1833  0.0213
19983TIP3    H281441   3.667   3.818  11.517  1.1349  0.0097  0.5409
19984TIP3   OH281442   4.630   5.696   2.359 -0.3629  0.5332 -0.2189
19984TIP3    H181443   4.673   5.630   2.303  0.4316  0.7697  0.0997
19984TIP3    H281444   4.698   5.761   2.376 -0.8808  0.9671  0.2300
19985TIP3   OH281445   4.202   3.458  13.664  0.2427  0.3493  0.4922
19985TIP3    H181446   4.142   3.428  13.733 -0.4508 -2.2475 -1.1140
19985TIP3    H281447   4.192   3.553  13.664 -1.5112  0.2385  2.3736
19986TIP3   OH281448   4.125   0.901  16.902 -0.5123 -0.4187  0.1217
19986TIP3    H181449   4.119   0.986  16.944 -0.9131 -0.2700 -0.2321
19986TIP3    H281450   4.034   0.875  16.886 -0.3894  0.3244 -2.2138
19987TIP3   OH281451   6.486   0.680  11.199  0.3503 -0.3473  0.6591
19987TIP3    H181452   6.445   0.615  11.256 -0.3514  0.3572  0.9760
19987TIP3    H281453   6.541   0.629  11.139 -0.9915 -1.3306  0.2275
19988TIP3   OH281454   3.651   1.473   3.917  0.0042  0.6360 -0.2596
19988TIP3    H181455   3.597   1.460   3.995 -0.1391  1.5242 -0.1983
19988TIP3    H281456   3.739   1.486   3.951  0.3190 -0.9797 -0.3679
19989TIP3   OH281457   6.349   1.398  15.901  0.2631  0.0703 -0.1455
19989TIP3    H181458   6.398   1.451  15.838 -1.6116  1.4033 -0.5666
19989TIP3    H281459   6.324   1.319  15.853 -0.6024  0.7875 -0.9125
19990TIP3   OH281460   4.252   0.593   3.170 -0.3984 -0.1215  0.1717
19990TIP3    H181461   4.193   0.596   3.245  0.3660 -0.7900  0.8086
19990TIP3    H281462   4.277   0.501   3.162  0.7783  0.1925  0.0887
19991TIP3   OH281463   5.406   5.281   1.647 -0.0888  0.2370  0.3499
19991TIP3    H181464   5.343   5.317   1.709  0.9518  2.8203 -0.0018
19991TIP3    H281465   5.415   5.348   1.579  2.0646 -0.6117 -0.2895
19992TIP3   OH281466   5.184   4.765  13.925 -0.3653  0.7159  0.7164
19992TIP3    H181467   5.160   4.787  14.015 -0.7324 -0.6366  0.9848
19992TIP3    H281468   5.100   4.760  13.878 -0.2278  0.8027  0.4623
19993TIP3   OH281469   6.801   6.298  16.854  0.5856 -0.2477 -0.0173
19993TIP3    H181470   6.777   6.218  16.901  0.4719 -0.6977 -0.8387
19993TIP3    H281471   6.837   6.268  16.771 -2.3979  0.5543 -1.7593
19994TIP3   OH281472   0.669   3.138   1.857  0.0833 -0.2679 -0.3755
19994TIP3    H181473   0.613   3.147   1.934  1.8632  0.8868  0.8679
19994TIP3    H281474   0.729   3.066   1.879  0.3459 -0.2071 -0.8688
19995TIP3   OH281475   1.037   6.046  14.460  0.3913 -0.3848 -0.7307
19995TIP3    H181476   1.025   6.051  14.365  0.2253 -0.0914 -0.6975
19995TIP3    H281477   1.016   6.134  14.491  0.4026 -0.4914 -0.4165
19996TIP3   OH281478   3.685   6.806   1.637  0.7146 -0.5123  0.0876
19996TIP3    H181479   3.741   6.769   1.569 -1.3266 -0.5293 -1.7059
19996TIP3    H281480   3.652   6.731   1.686  0.1031 -0.7203 -0.6382
19997TIP3   OH281481   0.187   3.534   5.918 -0.1713  0.1855 -0.1495
19997TIP3    H181482   0.141   3.577   5.990 -1.5505 -0.0305 -0.8667
19997TIP3    H281483   0.194   3.443   5.945 -0.8675  0.0643 -0.3553
19998TIP3   OH281484   4.285   6.101   1.340 -0.4153  0.0099  0.5034
19998TIP3    H181485   4.264   6.148   1.260 -0.4007 -1.7031 -0.5407
19998TIP3    H281486   4.377   6.077   1.332  0.0268  1.1520  1.7614
19999TIP3   OH281487   2.018   2.103  11.839 -0.0395 -0.2015  0.2346
19999TIP3    H181488   2.083   2.106  11.910 -0.5401  1.2996  0.6844
19999TIP3    H281489   2.014   2.011  11.813  1.6173 -0.4593  0.7929
20000TIP3   OH281490   4.180   6.508  13.868  0.1265  0.0080 -0.0230
20000TIP3    H181491   4.224   6.436  13.914  1.8603  1.4457  0.6389
20000TIP3    H281492   4.217   6.587  13.905 -1.0104  1.2684 -1.4517
20001TIP3   OH281493   4.505   2.414  16.322 -0.2404  0.3702 -0.1264
20001TIP3    H181494   4.441   2.345  16.336 -0.9652  0.8951 -0.7293
20001TIP3    H281495   4.580   2.389  16.376 -0.7459 -0.5287  0.1832
20002TIP3   OH281496   6.397   1.690   5.885  1.2188 -0.4396  0.1707
20002TIP3    H181497   6.304   1.669   5.891  0.6283  2.1250  1.5943
20002TIP3    H281498   6.422   1.664   5.796 -1.0184 -0.5856 -0.4657
20003TIP3   OH281499   0.005   0.378   0.031  0.2081 -0.0251 -0.2576
20003TIP3    H181500  -0.028   0.454   0.080 -0.0199 -0.0755 -0.3363
20003TIP3    H281501  -0.073   0.328   0.008  0.4521 -1.0554  1.0573
20004TIP3   OH281502   2.165   5.966  17.029  0.2661 -0.0576 -0.1356
20004TIP3    H181503   2.256   5.983  17.053  0.0456 -1.7619  2.3193
20004TIP3    H281504   2.125   5.934  17.110 -2.1121 -0.8692 -1.5432
20005TIP3   OH281505   4.355   6.307   5.377 -0.1880  0.1138  0.2262
20005TIP3    H181506   4.265   6.291   5.404 -0.2342  1.9363  1.3759
20005TIP3    H281507   4.400   6.224   5.391 -1.4614 -0.5336  0.6176
20006TIP3   OH281508   1.786   4.682  13.650 -0.2850  0.3599  0.8348
20006TIP3    H181509   1.777   4.607  13.592 -2.5152  0.5731  0.8168
20006TIP3    H281510   1.839   4.651  13.723  0.9875 -0.4486 -0.3810
20007TIP3   OH281511   0.527   1.942   5.605 -0.6036 -0.0935  0.4753
20007TIP3    H181512   0.596   2.008   5.613 -0.8847  0.2368  0.2350
20007TIP3    H281513   0.508   1.939   5.511 -0.2062 -0.9271  0.4151
20008TIP3   OH281514   0.272   4.754   3.664 -0.6396  0.2483  0.0710
20008TIP3    H181515   0.360   4.729   3.693 -0.8661  0.1269  0.6846
20008TIP3    H281516   0.215   4.685   3.698 -1.1888  1.1930  1.1807
20009TIP3   OH281517   4.403   6.022   3.451  0.1449  0.0772  0.2315
20009TIP3    H181518   4.317   6.005   3.414  0.0757 -0.5340  0.6655
20009TIP3    H281519   4.403   6.116   3.471  0.3640  0.5596 -1.7745
20010TIP3   OH281520   3.523   2.516  13.885 -0.2798 -0.2624 -0.7049
20010TIP3    H181521   3.536   2.606  13.913  3.0702 -1.1258  1.0815
20010TIP3    H281522   3.449   2.485  13.938 -0.0165  0.7982  0.3229
20011TIP3   OH281523   3.164   1.280   2.775  0.2762  0.5466  0.0692
20011TIP3    H181524   3.162   1.238   2.689  0.5758  0.3916  0.1343
20011TIP3    H281525   3.214   1.220   2.830 -1.3161 -0.1673  0.8025
20012TIP3   OH281526   5.995   5.182  17.029  0.4601  0.5202 -0.5518
20012TIP3    H181527   6.080   5.164  17.070  0.4057  0.3393 -0.5168
20012TIP3    H281528   6.011   5.258  16.973  1.1473 -0.7209 -2.0977
20013TIP3   OH281529   0.695   0.402  15.813 -0.5275  0.1720  0.1752
20013TIP3    H181530   0.630   0.364  15.755  0.2792  0.9827 -1.3408
20013TIP3    H281531   0.771   0.345  15.806 -0.4222  0.2732  0.4443
20014TIP3   OH281532   3.309   3.357   4.585 -0.6108 -0.3220 -0.1948
20014TIP3    H181533   3.299   3.263   4.569  1.1424 -0.3717 -1.2341
20014TIP3    H281534   3.274   3.370   4.674  0.7698 -2.2886  0.7004
20015TIP3   OH281535   4.602   6.804   3.756 -0.1840 -0.6035 -0.6358
20015TIP3    H181536   4.609   6.896   3.729 -3.0152 -0.0790  0.1213
20015TIP3    H281537   4.607   6.754   3.674  0.3334  0.2817 -1.1579
20016TIP3   OH281538   4.104   3.230  15.466 -0.4104  0.3657 -0.5405
20016TIP3    H181539   4.056   3.287  15.526 -0.1809 -0.4655  0.4531
20016TIP3    H281540   4.056   3.147  15.468 -0.1703  0.2001 -1.2110
20017TIP3   OH281541   3.511   2.029  13.823  0.3941  0.2896  0.6118
20017TIP3    H181542   3.468   2.026  13.908  1.0552  0.2352  0.9464
20017TIP3    H281543   3.553   2.116  13.820  0.6912  0.1457  0.5021
20018TIP3   OH281544   6.655   1.321   5.474 -0.3890  0.4623  0.3812
20018TIP3    H181545   6.694   1.406   5.496 -0.3935  0.0904  1.9396
20018TIP3    H281546   6.731   1.264   5.455 -0.3282  0.5313  0.4168
20019TIP3   OH281547   2.965   5.394   3.391  0.1019  0.0975 -0.4958
20019TIP3    H181548   3.003   5.409   3.304  2.4207  0.6398  0.5468
20019TIP3    H281549   3.019   5.446   3.450 -1.1305 -0.6428  1.3684
20020TIP3   OH281550   4.067   0.522   1.328  0.4999 -0.4925 -0.1174
20020TIP3    H181551   4.010   0.445   1.320 -1.2916  0.6678  0.9223
20020TIP3    H281552   4.067   0.560   1.240  0.6347 -1.1657 -0.4123
20021TIP3   OH281553   6.367   1.397   4.650 -0.1558  0.0132 -0.2538
20021TIP3    H181554   6.435   1.329   4.645  0.5420  0.7624 -1.3098
20021TIP3    H281555   6.342   1.399   4.742  0.5356 -0.9765 -0.0279
20022TIP3   OH281556   0.785   2.548  16.108  0.8190 -0.8571 -0.1788
20022TIP3    H181557   0.734   2.504  16.039  0.3278  0.6183 -0.7982
20022TIP3    H281558   0.724   2.613  16.144  1.4736 -0.7867  0.8123
20023TIP3   OH281559   5.384   4.058   4.337  0.4125 -0.0523  0.3207
20023TIP3    H181560   5.448   4.062   4.408  1.4861 -1.0516 -0.5536
20023TIP3    H281561   5.359   4.150   4.323  0.5236  0.2076  1.6662
20024TIP3   OH281562   3.002   1.451   0.218  0.5744 -0.4309  0.5935
20024TIP3    H181563   2.996   1.425   0.310 -0.5182 -0.0565  0.6343
20024TIP3    H281564   3.084   1.501   0.213 -0.6583  1.8742  1.9641
20025TIP3   OH281565   5.696   2.044  16.048  0.1019 -0.7386  0.0600
20025TIP3    H181566   5.601   2.044  16.038 -0.1292  0.3888  1.7284
20025TIP3    H281567   5.730   2.069  15.962 -1.1124 -1.0289 -0.5177
20026TIP3   OH281568   4.997   2.025  16.069 -0.3830  0.1829 -0.1235
20026TIP3    H181569   4.931   2.059  16.129 -1.5602 -2.1066  0.0120
20026TIP3    H281570   5.075   2.077  16.087 -1.3708  1.1555  1.6804
20027TIP3   OH281571   0.873   3.764  15.398  0.0312 -0.2731  0.3740
20027TIP3    H181572   0.964   3.743  15.420 -0.0467 -1.2258 -0.1360
20027TIP3    H281573   0.850   3.701  15.329 -0.6212  0.7570 -0.3793
20028TIP3   OH281574   1.718   0.943  16.163  0.1352  0.1624 -0.4470
20028TIP3    H181575   1.708   0.873  16.228 -0.5956  0.5682 -0.1138
20028TIP3    H281576   1.667   1.016  16.198  0.7744  0.8219 -0.8645
20029TIP3   OH281577   5.426   4.998  16.393  0.1973  0.1157  0.2421
20029TIP3    H181578   5.352   5.059  16.393 -0.0124 -0.0774 -1.9436
20029TIP3    H281579   5.416   4.950  16.475 -1.5422  0.7450  0.4540
20030TIP3   OH281580   3.368   4.013  14.325  0.2261  0.1109 -0.6204
20030TIP3    H181581   3.288   4.012  14.378  1.5451 -0.3807  1.5111
20030TIP3    H281582   3.409   3.928  14.341  0.8533  0.0824 -2.2277
20031TIP3   OH281583   4.963   0.852   3.500  0.0236  0.2346 -0.1465
20031TIP3    H181584   5.028   0.919   3.479 -3.0902  3.5097 -0.4695
20031TIP3    H281585   4.957   0.853   3.596  0.0626  0.3679 -0.1457
20032TIP3   OH281586   3.128   5.826   2.179 -0.0729  0.4587 -0.1255
20032TIP3    H181587   3.218   5.834   2.211  0.0551 -0.0889 -0.3498
20032TIP3    H281588   3.075   5.868   2.247  0.2442 -0.2559  0.5759
20033TIP3   OH281589   5.818   2.524  13.818 -0.2762 -0.3370 -0.2957
20033TIP3    H181590   5.765   2.594  13.855 -1.1771 -0.5295 -1.1948
20033TIP3    H281591   5.869   2.491  13.892 -0.7492  0.4387  0.3900
20034TIP3   OH281592   3.616   3.705   4.936 -0.5934  0.0367 -0.5662
20034TIP3    H181593   3.694   3.670   4.893 -0.4922  0.0711 -0.4120
20034TIP3    H281594   3.582   3.770   4.875 -0.5973 -0.0995 -0.7091
20035TIP3   OH281595   5.009   1.684  11.790 -0.1190  0.0335  0.2496
20035TIP3    H181596   4.919   1.652  11.783 -1.0800  2.3964  0.7861
20035TIP3    H281597   5.035   1.703  11.700  0.4092 -1.9406 -0.0581
20036TIP3   OH281598   6.573   6.711   3.188  0.4240  0.1916  0.1509
20036TIP3    H181599   6.536   6.745   3.107  0.3428 -0.9851 -0.3159
20036TIP3    H281600   6.655   6.668   3.162  0.8922  0.6381  0.8293
20037TIP3   OH281601   2.922   5.152  13.414  0.2381  0.3267  0.4439
20037TIP3    H181602   2.933   5.086  13.345 -1.1754 -0.1423  0.6355
20037TIP3    H281603   2.896   5.101  13.491 -1.9134  1.1567  0.3331
20038TIP3   OH281604   6.519   3.119   3.293  0.3801 -0.1226 -0.2158
20038TIP3    H181605   6.433   3.082   3.273  0.2547 -0.5513  1.0009
20038TIP3    H281606   6.500   3.195   3.348  0.6068  2.2342 -3.1766
20039TIP3   OH281607   0.068   4.239   1.631  0.1664 -0.3733  0.4743
20039TIP3    H181608   0.111   4.296   1.567  1.2727 -0.9948  0.6461
20039TIP3    H281609  -0.001   4.294   1.669 -0.2710  0.1326 -0.9664
20040TIP3   OH281610   4.358   2.676   4.055  0.0913 -0.3465 -0.0024
20040TIP3    H181611   4.403   2.603   4.014  0.4845 -0.9864  1.4801
20040TIP3    H281612   4.428   2.734   4.086 -0.1969  0.2820 -0.4957
20041TIP3   OH281613   5.045   3.675   3.443  0.4906 -0.3807 -0.4502
20041TIP3    H181614   4.976   3.693   3.379 -0.7303 -0.9708  0.6813
20041TIP3    H281615   5.103   3.614   3.398 -0.5301 -1.0491 -0.8915
20042TIP3   OH281616   4.143   1.060  12.241  0.8586  0.2629 -0.0107
20042TIP3    H181617   4.080   1.132  12.249 -1.3583 -1.5806  0.0838
20042TIP3    H281618   4.182   1.052  12.328 -0.6531 -0.1673  0.6496
20043TIP3   OH281619   6.656   1.505  12.052 -0.8075 -0.4096  0.3460
20043TIP3    H181620   6.623   1.499  12.141  0.9076 -0.3441  1.0143
20043TIP3    H281621   6.690   1.417  12.034 -0.8019 -0.3156 -0.1106
20044TIP3   OH281622   0.116   3.444   0.540 -0.4192 -0.0167  0.1031
20044TIP3    H181623   0.092   3.375   0.601  2.2686 -0.2715  0.9846
20044TIP3    H281624   0.198   3.414   0.500  0.1887  2.1052 -0.3727
20045TIP3   OH281625   2.803   3.803   0.017  0.2771  0.1823  0.4675
20045TIP3    H181626   2.853   3.880  -0.010  1.7534 -0.1605  2.0786
20045TIP3    H281627   2.713   3.833   0.021  0.6557  1.4701 -0.2118
20046TIP3   OH281628   6.432   6.459   4.095  1.0581  0.0138 -0.5805
20046TIP3    H181629   6.386   6.387   4.051 -0.0563  0.0184  0.5011
20046TIP3    H281630   6.511   6.420   4.131  0.3003 -0.7692  0.2730
20047TIP3   OH281631   4.887   3.422   4.407  0.0128 -0.1272 -0.6618
20047TIP3    H181632   4.889   3.456   4.496  0.0746  0.0399 -0.7277
20047TIP3    H281633   4.849   3.492   4.355  0.2502 -0.1119 -0.8153
20048TIP3   OH281634   0.441   6.363   0.201  0.2209 -0.1919  0.4280
20048TIP3    H181635   0.372   6.426   0.221 -0.3665 -0.4725 -0.6758
20048TIP3    H281636   0.431   6.295   0.267 -0.9334 -0.5200 -0.0702
20049TIP3   OH281637   3.018   5.465  16.344  0.2375 -0.6701 -0.5839
20049TIP3    H181638   2.938   5.481  16.293  0.5131  0.1749 -0.7700
20049TIP3    H281639   3.077   5.536  16.318  1.4657 -1.9131 -1.2792
20050TIP3   OH281640   2.449   2.942   5.991 -0.4205  0.0970 -0.3055
20050TIP3    H181641   2.448   2.905   5.903  0.6740  2.6099 -1.4772
20050TIP3    H281642   2.510   2.886   6.040 -1.8895 -2.0019 -0.7492
20051TIP3   OH281643   5.808   5.510   1.087  0.7782  0.1198 -0.0192
20051TIP3    H181644   5.758   5.441   1.131  0.6598 -1.1584 -2.0345
20051TIP3    H281645   5.742   5.559   1.036  1.1388  0.5144 -0.1159
20052TIP3   OH281646   5.243   6.070   0.462  0.2022  0.1698 -0.1406
20052TIP3    H181647   5.251   6.160   0.432 -0.8478  0.4581  0.4101
20052TIP3    H281648   5.333   6.038   0.466  0.7756  1.8571  1.6338
20053TIP3   OH281649   4.971   1.642   1.369 -0.6779 -0.2558  0.2397
20053TIP3    H181650   5.066   1.650   1.359 -0.8981  0.7202 -1.5588
20053TIP3    H281651   4.942   1.600   1.288 -1.8756  0.3857  0.3194
20054TIP3   OH281652   6.071   1.622   1.186  0.7196 -0.4798 -0.6518
20054TIP3    H181653   6.144   1.684   1.191  2.0147 -2.0022  0.3026
20054TIP3    H281654   6.019   1.640   1.264  1.8035 -1.3891  0.3182
20055TIP3   OH281655   2.669   5.284   3.265  0.1750 -0.3993  0.3157
20055TIP3    H181656   2.757   5.276   3.229 -0.4363  0.4685 -1.4639
20055TIP3    H281657   2.660   5.376   3.289 -0.5067 -0.2946 -0.2867
20056TIP3   OH281658   1.548   3.636  16.789 -0.0685 -0.3012 -0.3683
20056TIP3    H181659   1.465   3.678  16.811 -0.4514 -0.3292 -1.6450
20056TIP3    H281660   1.528   3.583  16.712  0.7657 -1.6171  0.2773
20057TIP3   OH281661   3.725   3.544  11.400 -0.1447 -0.1263  0.4299
20057TIP3    H181662   3.804   3.530  11.453 -0.9563  1.3610  2.1090
20057TIP3    H281663   3.746   3.620  11.345 -1.0283  1.5512  2.3047
20058TIP3   OH281664   2.833   5.028  16.294 -0.0090 -0.0465  0.7691
20058TIP3    H181665   2.866   4.943  16.326 -1.9566 -0.2876  2.3145
20058TIP3    H281666   2.884   5.093  16.342 -0.1387 -0.3756  1.3594
20059TIP3   OH281667   1.146   3.504   2.824 -0.5828  0.5953 -0.3550
20059TIP3    H181668   1.166   3.425   2.874 -0.8394  0.0381 -1.1160
20059TIP3    H281669   1.123   3.569   2.890 -0.6226 -0.0388  0.2630
20060TIP3   OH281670   5.617   4.554  14.552  0.6145 -0.2455 -0.1202
20060TIP3    H181671   5.681   4.505  14.500  1.4085  1.6415 -0.9838
20060TIP3    H281672   5.543   4.567  14.492  0.1834 -0.7779  0.2762
20061TIP3   OH281673   1.360   5.106   3.403  0.4616  0.4243 -0.5022
20061TIP3    H181674   1.328   5.113   3.313  0.4052  1.2654 -0.4250
20061TIP3    H281675   1.449   5.074   3.395 -0.9371 -4.0428 -0.6483
20062TIP3   OH281676   5.789   0.956   3.210 -0.8048 -0.5293  0.6737
20062TIP3    H181677   5.710   1.001   3.237 -0.8635  0.8959 -1.6175
20062TIP3    H281678   5.781   0.947   3.115  1.6796 -0.4844  0.3781
20063TIP3   OH281679   1.947   4.398  13.203 -0.0695  0.2234 -0.2258
20063TIP3    H181680   1.956   4.328  13.269 -0.0548  0.2696 -0.1786
20063TIP3    H281681   2.032   4.400  13.160 -0.3780 -0.4350 -0.8742
20064TIP3   OH281682   3.584   4.653  15.129  0.3167 -0.0207 -0.4401
20064TIP3    H181683   3.667   4.700  15.126  0.7206 -0.7584 -1.2533
20064TIP3    H281684   3.579   4.618  15.218 -0.0630  1.6465  0.2332
20065TIP3   OH281685   1.012   0.643   3.394 -0.2452  0.4253 -0.4523
20065TIP3    H181686   1.042   0.579   3.329 -0.0643  0.2759 -0.2240
20065TIP3    H281687   0.971   0.590   3.462 -1.5362  0.6666 -1.0231
20066TIP3   OH281688   1.589   2.909  14.708 -0.7325 -0.6736  0.6954
20066TIP3    H181689   1.525   2.971  14.743 -1.2792 -0.2396 -0.9590
20066TIP3    H281690   1.543   2.862  14.639  0.0848 -1.9919  1.0001
20067TIP3   OH281691   4.166   0.836   0.597  0.0183 -0.4526 -0.6152
20067TIP3    H181692   4.121   0.865   0.518  0.6591 -0.6759 -1.0625
20067TIP3    H281693   4.121   0.882   0.668  0.4538  0.9788 -1.2311
20068TIP3   OH281694   5.430   1.279  11.792 -0.1924 -0.1645  0.1844
20068TIP3    H181695   5.343   1.314  11.809  0.0211  0.9415 -0.9158
20068TIP3    H281696   5.476   1.349  11.746  0.0355 -2.0815 -2.7441
20069TIP3   OH281697   2.009   0.530   3.465 -0.0653  0.2101  0.1820
20069TIP3    H181698   2.018   0.458   3.526 -0.1893 -0.7863 -0.9470
20069TIP3    H281699   2.060   0.601   3.503  0.2368 -0.5410  1.1950
20070TIP3   OH281700   3.606   4.619  12.001 -0.4720  0.3594  0.3589
20070TIP3    H181701   3.607   4.713  11.984 -1.1646  0.2351 -0.3864
20070TIP3    H281702   3.697   4.592  11.990 -0.3874  0.8223 -0.0897
20071TIP3   OH281703   3.155   6.757  11.698  0.2224 -0.9477 -0.4260
20071TIP3    H181704   3.186   6.824  11.637 -0.3848 -0.6033 -0.3695
20071TIP3    H281705   3.193   6.781  11.782 -0.6376 -0.1999 -0.2379
20072TIP3   OH281706   0.372   5.324  16.729  0.2256  0.2753 -0.3757
20072TIP3    H181707   0.329   5.377  16.797  0.7038  0.4329 -0.1915
20072TIP3    H281708   0.306   5.315  16.661  0.4025  1.8239 -0.7840
20073TIP3   OH281709   3.043   1.007  12.867 -0.4000 -0.2551  0.5732
20073TIP3    H181710   3.027   0.917  12.840  2.0233 -0.0906 -1.8108
20073TIP3    H281711   2.987   1.060  12.811  0.3132 -0.1853 -0.0933
20074TIP3   OH281712   2.369   3.623  16.419 -0.3020 -0.2593  0.0399
20074TIP3    H181713   2.410   3.616  16.333  3.4096  0.2865  1.6133
20074TIP3    H281714   2.322   3.706  16.417 -0.5749 -0.4266 -1.5346
20075TIP3   OH281715   4.372   5.507  14.049  0.0697  0.0356 -0.1506
20075TIP3    H181716   4.316   5.463  14.112 -0.5811  1.0294 -0.0196
20075TIP3    H281717   4.386   5.442  13.980 -1.7778 -0.0155 -0.5134
20076TIP3   OH281718   1.305   1.732   1.505 -0.7058  0.2373  0.2898
20076TIP3    H181719   1.238   1.698   1.445 -1.2719 -0.6353  1.3786
20076TIP3    H281720   1.309   1.667   1.576  1.7356 -0.0800 -0.0311
20077TIP3   OH281721   0.968   3.441   1.413 -0.1162 -0.2648  0.4029
20077TIP3    H181722   0.974   3.503   1.340  0.3459 -1.2507 -0.4282
20077TIP3    H281723   1.059   3.414   1.428 -0.3488 -1.0523  0.4580
20078TIP3   OH281724   6.303   1.458  15.169 -0.2346 -0.1278 -0.5117
20078TIP3    H181725   6.303   1.461  15.074 -0.7690  0.6944 -0.4911
20078TIP3    H281726   6.382   1.505  15.195 -1.4592  2.0631 -0.5113
20079TIP3   OH281727   5.900   6.336   5.662  0.0069 -0.4142  0.2923
20079TIP3    H181728   5.813   6.347   5.625  0.0018  0.1853  0.4630
20079TIP3    H281729   5.902   6.397   5.736  0.1789 -1.2372  0.9782
20080TIP3   OH281730   3.057   0.253  11.853 -0.2257  0.0390 -0.2306
20080TIP3    H181731   2.962   0.257  11.867 -0.2996  0.4043 -0.8184
20080TIP3    H281732   3.080   0.341  11.822  0.5897  0.5401  1.6457
20081TIP3   OH281733   5.909   0.080   0.958  0.1676  0.0707  0.0638
20081TIP3    H181734   5.885   0.090   1.050  0.4157  0.8673  0.0534
20081TIP3    H281735   6.005   0.078   0.958  0.1940  0.8170 -0.2301
20082TIP3   OH281736   0.063   3.813  11.684  0.4480 -0.0734 -0.0502
20082TIP3    H181737   0.064   3.876  11.756  1.0599 -0.5310  0.3595
20082TIP3    H281738   0.072   3.728  11.727 -0.2974 -0.4391 -0.5972
20083TIP3   OH281739   1.231   2.890  13.434 -0.2207 -0.5065 -0.0460
20083TIP3    H181740   1.282   2.884  13.353  0.4929  0.1555  0.3418
20083TIP3    H281741   1.160   2.828  13.422 -0.6279  0.2061 -1.5521
20084TIP3   OH281742   1.649   4.959  14.292  0.0157  0.2211 -0.2651
20084TIP3    H181743   1.619   4.973  14.381 -0.7922  0.9580 -0.6343
20084TIP3    H281744   1.615   5.034  14.243  2.3725  1.0657 -0.7447
20085TIP3   OH281745   2.028   3.455  10.920 -0.5629 -0.9579 -0.2485
20085TIP3    H181746   1.968   3.478  10.848 -0.1142 -2.4136 -1.1379
20085TIP3    H281747   2.067   3.372  10.892  3.3328  0.7817 -0.6509
20086TIP3   OH281748   0.551   6.734  13.581  0.3003  0.1451  0.5251
20086TIP3    H181749   0.531   6.710  13.491  0.4598 -1.9676  0.9895
20086TIP3    H281750   0.468   6.726  13.627  0.4725 -0.0774  0.8021
20087TIP3   OH281751   5.973   4.025   4.186  0.2677  0.0086  0.1761
20087TIP3    H181752   5.981   3.953   4.124  0.6976 -1.8748  2.2796
20087TIP3    H281753   5.938   4.098   4.134 -1.1359 -1.9660 -1.8554
20088TIP3   OH281754   5.423   1.307   5.425 -0.0588 -0.3134 -0.1211
20088TIP3    H181755   5.337   1.279   5.456  0.7086 -0.7312  1.7284
20088TIP3    H281756   5.424   1.283   5.332 -1.6784 -0.9163 -0.0029
20089TIP3   OH281757   3.205   0.569   6.253  0.0248  0.7847  0.1969
20089TIP3    H181758   3.200   0.554   6.347  2.8769 -0.0530  0.3189
20089TIP3    H281759   3.202   0.665   6.244 -2.9543  0.8352  0.8111
20090TIP3   OH281760   3.281   5.195   5.665  0.3418 -0.3279 -0.2852
20090TIP3    H181761   3.257   5.116   5.713  2.0687  0.0498  1.3286
20090TIP3    H281762   3.218   5.261   5.695  2.3941  0.3805  3.0831
20091TIP3   OH281763   6.218   0.754  11.170  0.4638  0.2064  0.2297
20091TIP3    H181764   6.307   0.723  11.182  2.2908  3.7379 -2.2195
20091TIP3    H281765   6.204   0.815  11.242  1.1431  1.5628 -0.7269
20092TIP3   OH281766   2.913   0.283  11.073  0.1877  0.3728  0.3311
20092TIP3    H181767   2.904   0.353  11.007  2.3387  1.2985  0.9146
20092TIP3    H281768   3.007   0.279  11.090  0.2736 -3.3108 -0.2894
20093TIP3   OH281769   5.837   2.379   2.636  0.4994 -0.0007 -0.1968
20093TIP3    H181770   5.858   2.452   2.694 -2.2400  0.2632  0.5696
20093TIP3    H281771   5.898   2.390   2.563  3.2854  0.3318  1.9742
20094TIP3   OH281772   1.655   6.615   6.391 -0.7681 -0.3246 -0.1640
20094TIP3    H181773   1.625   6.573   6.472  0.6218  1.8747  1.6249
20094TIP3    H281774   1.601   6.576   6.323 -4.0154 -0.3468  2.1426
20095TIP3   OH281775   4.930   5.531  14.693  0.3248  0.2267  0.3807
20095TIP3    H181776   4.922   5.613  14.741  1.1595 -0.1450  1.1839
20095TIP3    H281777   4.882   5.467  14.746 -1.1982  0.3745 -0.7560
20096TIP3   OH281778   3.034   1.389   0.496 -0.0318  0.7115 -0.4899
20096TIP3    H181779   3.035   1.456   0.564 -0.4303  0.7960 -0.5655
20096TIP3    H281780   3.061   1.309   0.542 -0.9217  0.6335 -0.0764
20097TIP3   OH281781   4.743   0.693  12.457 -0.2463  0.0814 -0.4888
20097TIP3    H181782   4.679   0.634  12.498 -0.2371  0.4146  0.0120
20097TIP3    H281783   4.700   0.725  12.378 -1.4687  1.7667  0.7895
20098TIP3   OH281784   5.279   6.635  13.691 -0.1905  0.1674 -0.2573
20098TIP3    H181785   5.254   6.550  13.728  1.0364 -0.0211  0.1879
20098TIP3    H281786   5.288   6.692  13.767  0.8381  0.1878 -0.3854
20099TIP3   OH281787   2.698   1.258  11.076 -0.1542  0.1545 -0.4732
20099TIP3    H181788   2.678   1.312  11.152 -1.5305 -0.5289 -0.3208
20099TIP3    H281789   2.729   1.319  11.009 -0.9695  1.0190 -0.0635
20100TIP3   OH281790   0.562   3.460   4.112  0.3364  0.1193  0.0945
20100TIP3    H181791   0.622   3.467   4.037  0.8283  1.5482  0.5838
20100TIP3    H281792   0.483   3.419   4.076  1.2511 -0.9399 -0.7728
20101TIP3   OH281793   0.979   0.729   0.300 -0.1465 -0.7919  0.4375
20101TIP3    H181794   1.047   0.730   0.233 -0.7629 -1.9037 -0.2394
20101TIP3    H281795   1.020   0.769   0.377  0.8026 -0.1521 -0.3739
20102TIP3   OH281796   5.194   3.003   3.234 -0.4314 -0.0353  0.1995
20102TIP3    H181797   5.248   3.082   3.235 -0.1185 -0.2018  2.6897
20102TIP3    H281798   5.250   2.937   3.192 -0.1696  0.7158 -0.6600
20103TIP3   OH281799   2.486   0.746   5.118 -0.3852  0.2008  0.4574
20103TIP3    H181800   2.554   0.813   5.115  2.6414 -2.6031  0.5864
20103TIP3    H281801   2.460   0.741   5.210 -1.3637  1.7933  0.2895
20104TIP3   OH281802   0.798   1.297  13.236  0.1860 -0.7774 -0.5045
20104TIP3    H181803   0.742   1.220  13.250 -3.0800  1.3862 -0.6309
20104TIP3    H281804   0.879   1.276  13.282 -1.3061 -3.4774  1.1628
20105TIP3   OH281805   2.197   2.594  16.095 -0.1444  0.0402  0.3040
20105TIP3    H181806   2.133   2.527  16.117 -0.5859  0.2659 -0.2583
20105TIP3    H281807   2.176   2.667  16.152  0.1107 -0.1701  0.6677
20106TIP3   OH281808   2.308   1.440  12.935 -0.3590  0.3894  0.0167
20106TIP3    H181809   2.221   1.469  12.964 -0.2739  1.4040 -0.6953
20106TIP3    H281810   2.366   1.512  12.957  0.0259  0.3846 -0.9213
20107TIP3   OH281811   0.783   2.397  11.960  0.4812 -0.3408  0.2341
20107TIP3    H181812   0.749   2.309  11.942 -0.1346 -0.2275  0.7999
20107TIP3    H281813   0.841   2.385  12.035 -0.4549 -0.1114  1.0274
20108TIP3   OH281814   0.883   4.780   0.657 -0.0929  0.1631 -0.1152
20108TIP3    H181815   0.943   4.853   0.640 -0.2049  0.3557  0.3132
20108TIP3    H281816   0.796   4.819   0.652 -0.1647 -0.0047 -0.1856
20109TIP3   OH281817   6.532   0.609  13.402  0.1749  0.1535 -0.3937
20109TIP3    H181818   6.486   0.576  13.479 -0.3306  0.3832 -0.5979
20109TIP3    H281819   6.501   0.699  13.392 -0.7116 -0.2685 -1.6083
20110TIP3   OH281820   3.825   0.557   1.716  0.3549  0.3454 -0.1713
20110TIP3    H181821   3.813   0.610   1.637 -0.0880 -0.7394 -0.8506
20110TIP3    H281822   3.770   0.599   1.781 -0.4264  0.4051 -0.8565
20111TIP3   OH281823   3.299   2.117  14.394 -0.0709 -0.1968 -0.4971
20111TIP3    H181824   3.292   2.146  14.485  0.1485 -0.5459 -0.3668
20111TIP3    H281825   3.392   2.131  14.372  0.0271 -0.7526 -0.4475
20112TIP3   OH281826   5.407   6.181  11.405 -0.1798  0.1159  0.1282
20112TIP3    H181827   5.369   6.265  11.430  0.3277  0.1981  0.6546
20112TIP3    H281828   5.338   6.136  11.356 -1.3688 -0.1911  1.9776
20113TIP3   OH281829   2.092   3.771  10.793 -0.1800  0.6346 -0.4109
20113TIP3    H181830   2.044   3.801  10.716 -2.0277  1.3394  0.9451
20113TIP3    H281831   2.030   3.782  10.866  1.4337 -0.1602  1.1550
20114TIP3   OH281832   0.394   6.430   1.164 -0.2709  0.1320 -0.4361
20114TIP3    H181833   0.344   6.430   1.246 -1.3102 -2.8575 -0.9297
20114TIP3    H281834   0.330   6.454   1.097 -0.4261 -1.0392 -0.7420
20115TIP3   OH281835   3.430   0.546  14.101 -0.2578 -0.1224 -0.1204
20115TIP3    H181836   3.339   0.573  14.091 -0.5113 -1.2065 -0.9905
20115TIP3    H281837   3.426   0.468  14.157 -0.0085 -0.8656 -1.1065
20116TIP3   OH281838   0.048   4.221  12.105 -0.1110  0.1816  0.2804
20116TIP3    H181839   0.023   4.275  12.180 -1.3160 -0.4059  0.3305
20116TIP3    H281840   0.091   4.145  12.143  2.4709  1.4821  0.1655
20117TIP3   OH281841   5.146   3.855  14.191 -0.0524 -0.5298 -0.2898
20117TIP3    H181842   5.095   3.931  14.165  2.4467  1.0470 -0.9677
20117TIP3    H281843   5.109   3.783  14.140 -1.9755  0.3453 -0.2320
20118TIP3   OH281844   3.971   1.843  11.737  0.3431 -0.6034  0.0898
20118TIP3    H181845   4.066   1.840  11.721  0.7392  1.5967  1.5655
20118TIP3    H281846   3.950   1.937  11.738 -2.3092 -1.0301 -2.3611
20119TIP3   OH281847   4.017   4.387   1.962  0.0458  0.1865 -0.3464
20119TIP3    H181848   3.999   4.314   2.021  0.7084  0.1642 -0.1591
20119TIP3    H281849   3.976   4.362   1.879  0.3223 -0.4312 -0.3017
20120TIP3   OH281850   3.826   4.927  13.557 -0.5816  0.0791 -0.2063
20120TIP3    H181851   3.798   4.922  13.649  2.5597 -0.0860  0.8817
20120TIP3    H281852   3.804   4.841  13.521 -1.1446 -0.1490  0.6348
20121TIP3   OH281853   5.831   3.993  17.065  0.1183 -0.1035 -0.5499
20121TIP3    H181854   5.866   4.023  16.981 -1.3462  0.4555 -0.9948
20121TIP3    H281855   5.895   3.931  17.097  1.2852  0.5572 -1.5277
20122TIP3   OH281856   4.265   6.390  12.266 -0.1725  0.3185 -0.2064
20122TIP3    H181857   4.308   6.468  12.302 -0.1291  0.2175 -0.0354
20122TIP3    H281858   4.297   6.319  12.321  0.1708  0.1084 -0.6666
20123TIP3   OH281859   6.113   1.081  14.528  0.0813  0.1323  0.7237
20123TIP3    H181860   6.157   0.999  14.504 -0.4762 -0.0880  0.4087
20123TIP3    H281861   6.047   1.093  14.459 -0.6612  0.1910  1.4240
20124TIP3   OH281862   1.202   4.989  17.172  0.8105  0.2336  0.1433
20124TIP3    H181863   1.208   5.065  17.231  0.5634 -1.6609  2.8009
20124TIP3    H281864   1.200   4.914  17.231  1.1848 -1.8828 -2.3796
20125TIP3   OH281865   4.938   5.753  16.267 -0.2562 -0.4299  0.0965
20125TIP3    H181866   4.900   5.668  16.288  1.2271 -0.7195  1.9526
20125TIP3    H281867   4.863   5.810  16.254 -1.2907 -1.8776 -0.6096
20126TIP3   OH281868   1.963   3.204  16.791 -0.2101 -0.4545  0.1780
20126TIP3    H181869   1.921   3.219  16.707 -0.9367  0.2573  0.6444
20126TIP3    H281870   1.891   3.186  16.851  0.3133 -1.1267  0.6137
20127TIP3   OH281871   0.678   4.082  13.322 -0.2278 -0.0499 -0.4382
20127TIP3    H181872   0.758   4.090  13.271 -1.2655  2.0186 -1.8685
20127TIP3    H281873   0.675   4.161  13.376 -0.8253 -0.5898  0.3609
20128TIP3   OH281874   1.858   3.551  14.702 -0.1418 -0.6795  0.8453
20128TIP3    H181875   1.859   3.621  14.637  2.3300 -1.0598  0.3616
20128TIP3    H281876   1.789   3.576  14.764  0.7977  2.3081  0.8295
20129TIP3   OH281877   6.407   1.471  15.496 -0.0845  0.6535  0.1875
20129TIP3    H181878   6.340   1.539  15.491 -0.9338 -0.2155 -0.4747
20129TIP3    H281879   6.362   1.394  15.530  0.8565  0.3891  0.8798
20130TIP3   OH281880   3.380   6.573  15.395 -0.0165  0.5599 -0.6183
20130TIP3    H181881   3.289   6.557  15.419  0.5073 -2.4204 -0.2356
20130TIP3    H281882   3.407   6.494  15.349  1.7876  2.2909 -2.7721
20131TIP3   OH281883   5.501   1.076   2.133  0.1903  1.2346 -0.0649
20131TIP3    H181884   5.564   1.137   2.093  3.7543 -1.4288  0.9531
20131TIP3    H281885   5.505   1.097   2.227  1.2273 -0.2147  0.2571
20132TIP3   OH281886   2.971   1.071   2.977 -0.2176  0.3732  0.2340
20132TIP3    H181887   3.012   1.003   2.924 -1.8661 -1.1386  0.8213
20132TIP3    H281888   2.998   1.052   3.067 -0.7778  0.4412  0.4177
20133TIP3   OH281889   6.128   0.344  13.395  0.3253  0.1924 -0.5933
20133TIP3    H181890   6.141   0.341  13.300  0.0192  0.1470 -0.6345
20133TIP3    H281891   6.034   0.355  13.406  0.4314  0.8733 -0.3009
20134TIP3   OH281892   1.942   3.336  16.538  0.1073  0.0628 -0.5050
20134TIP3    H181893   2.032   3.360  16.560  0.7974 -0.1964 -2.8257
20134TIP3    H281894   1.950   3.258  16.483 -1.5462  0.0139 -0.7431
20135TIP3   OH281895   6.418   0.110   3.920 -0.0428  0.1190  0.1743
20135TIP3    H181896   6.359   0.174   3.880 -0.4063 -0.8820 -0.9522
20135TIP3    H281897   6.503   0.154   3.922  0.3662 -0.2578 -3.1548
20136TIP3   OH281898   4.916   5.439   3.051 -0.0810 -0.0124 -0.2471
20136TIP3    H181899   4.829   5.421   3.086  0.5703 -1.6284  0.6523
20136TIP3    H281900   4.917   5.395   2.966 -0.0539 -0.2350 -0.1326
20137TIP3   OH281901   4.612   6.817   0.179 -0.0778  0.2294  0.1717
20137TIP3    H181902   4.518   6.801   0.186 -0.0169  0.2230  1.1144
20137TIP3    H281903   4.631   6.805   0.086 -0.9473 -0.1149  0.0231
20138TIP3   OH281904   1.653   2.973  12.278  0.0034 -0.2816 -0.8604
20138TIP3    H181905   1.661   2.963  12.373  0.5806  0.0223 -0.8718
20138TIP3    H281906   1.605   2.895  12.249 -0.3284 -0.2882 -0.3001
20139TIP3   OH281907   6.728   1.362   1.032 -0.8198 -0.3433 -0.0662
20139TIP3    H181908   6.781   1.359   1.111 -1.6086  1.0835  0.5599
20139TIP3    H281909   6.760   1.438   0.984 -2.8669  1.1913  0.8259
20140TIP3   OH281910   0.889   0.760  12.128 -0.2672 -0.1996 -0.2939
20140TIP3    H181911   0.961   0.700  12.106 -1.0354 -0.8395 -1.1596
20140TIP3    H281912   0.877   0.813  12.049 -2.7633 -2.2157 -1.4485
20141TIP3   OH281913   2.930   1.071  16.925 -0.0491 -0.0255  0.3332
20141TIP3    H181914   2.862   1.115  16.874  2.0920  1.8278 -1.0994
20141TIP3    H281915   2.921   1.107  17.013  0.0605  1.4668 -0.2302
20142TIP3   OH281916   6.146   3.573   4.565 -0.0324  0.2943  0.2435
20142TIP3    H181917   6.189   3.497   4.526 -0.7795 -0.3947  0.7023
20142TIP3    H281918   6.054   3.562   4.542  0.0516  1.9329 -1.0370
20143TIP3   OH281919   6.218   3.269  12.832  0.1905 -0.0184  0.1449
20143TIP3    H181920   6.283   3.204  12.804 -1.3483 -1.3065 -0.6318
20143TIP3    H281921   6.241   3.348  12.784  0.3603 -0.8613 -1.2085
20144TIP3   OH281922   6.765   4.103   4.502  0.4554  0.0775  0.0095
20144TIP3    H181923   6.671   4.110   4.482  0.2859 -1.9234 -0.1020
20144TIP3    H281924   6.809   4.139   4.426 -0.1944  1.9562  0.4741
20145TIP3   OH281925   2.739   1.945  15.870 -0.6704 -0.0299  0.7883
20145TIP3    H181926   2.738   1.883  15.943 -1.7010 -0.4080  0.4624
20145TIP3    H281927   2.692   2.022  15.903  0.9165  0.7708  1.3194
20146TIP3   OH281928   3.934   6.752   1.491 -0.8733 -0.1724 -0.4519
20146TIP3    H181929   3.973   6.667   1.474 -0.6702 -1.0774  3.5909
20146TIP3    H281930   4.005   6.815   1.476 -0.4141 -0.9148 -1.4476
20147TIP3   OH281931   2.370   3.816  11.700 -0.2580 -0.7489 -0.1120
20147TIP3    H181932   2.389   3.762  11.777  0.1809  0.0720  0.3651
20147TIP3    H281933   2.278   3.839  11.709  0.0309  0.1449  0.6925
20148TIP3   OH281934   1.477   0.283  17.124 -0.2586 -0.0644  0.1837
20148TIP3    H181935   1.441   0.321  17.043 -1.3696  0.9242  1.1067
20148TIP3    H281936   1.570   0.269  17.104 -0.6034 -0.3404 -1.4307
20149TIP3   OH281937   1.674   4.677  10.226  0.3735 -0.1068  0.2218
20149TIP3    H181938   1.713   4.593  10.251 -0.4465 -0.5697 -0.0268
20149TIP3    H281939   1.671   4.674  10.130 -3.0615 -1.4283  0.2472
20150TIP3   OH281940   6.197   1.146   0.709  0.2160 -0.1861  0.5283
20150TIP3    H181941   6.163   1.236   0.714  0.3427 -0.0661 -0.5808
20150TIP3    H281942   6.292   1.157   0.711  0.3260 -0.0686 -2.1087
20151TIP3   OH281943   0.340   1.722   3.031  0.1696 -0.9952 -0.5250
20151TIP3    H181944   0.251   1.715   3.066  0.3285 -1.4735 -0.2161
20151TIP3    H281945   0.391   1.761   3.102  0.4294 -1.7006 -0.3164
20152TIP3   OH281946   0.047   3.234   0.711  0.3054 -0.1202 -0.1202
20152TIP3    H181947   0.057   3.139   0.707 -0.5443 -0.2396  0.4900
20152TIP3    H281948   0.057   3.255   0.804  0.8403  0.4384 -0.2946
20153TIP3   OH281949   2.205   3.880   4.134 -0.3150  0.0556  0.5244
20153TIP3    H181950   2.262   3.809   4.104 -0.0358 -0.2686  1.7400
20153TIP3    H281951   2.148   3.899   4.060  1.8750  0.9177 -1.0403
20154TIP3   OH281952   3.197   4.140  15.300  0.4139  0.0940 -0.2178
20154TIP3    H181953   3.166   4.143  15.209 -0.8209 -1.1430  0.1429
20154TIP3    H281954   3.121   4.165  15.352 -0.2646 -3.4160  0.7180
20155TIP3   OH281955   4.156   1.846  12.048 -0.3880 -0.0918  0.7017
20155TIP3    H181956   4.076   1.896  12.033 -0.7027  0.2071  3.0520
20155TIP3    H281957   4.180   1.813  11.961 -2.0475  1.2879 -0.3497
20156TIP3   OH281958   2.799   2.909   2.638 -0.1734  0.4344 -0.0222
20156TIP3    H181959   2.752   2.991   2.621  0.6071  0.8504 -0.2291
20156TIP3    H281960   2.848   2.892   2.557 -1.1607 -0.8279 -0.3890
20157TIP3   OH281961   4.412   3.049  16.869 -0.1401 -0.2311  0.2946
20157TIP3    H181962   4.507   3.063  16.876 -0.3869  0.9254  2.2916
20157TIP3    H281963   4.377   3.137  16.854 -0.8849 -0.7447 -1.1136
20158TIP3   OH281964   1.186   3.701   6.027  0.0693  0.5543  0.5851
20158TIP3    H181965   1.143   3.745   6.101 -1.5351  2.2448 -1.2465
20158TIP3    H281966   1.114   3.666   5.975  1.0075  1.3839 -1.3505
20159TIP3   OH281967   3.692   5.736  16.080  0.3916 -0.4921  0.6134
20159TIP3    H181968   3.711   5.730  16.174 -3.0031  2.4860  1.7597
20159TIP3    H281969   3.735   5.817  16.052 -0.4670 -0.1417  0.2486
20160TIP3   OH281970   3.089   1.270  12.402  0.0568 -0.0567 -0.4671
20160TIP3    H181971   3.071   1.351  12.450 -0.4711 -0.9020  0.8075
20160TIP3    H281972   3.150   1.297  12.333  1.4576  1.0971  1.1153
20161TIP3   OH281973   1.524   0.646  12.178  0.4901 -0.4736  0.2902
20161TIP3    H181974   1.595   0.710  12.174 -0.1174  0.1283 -1.9382
20161TIP3    H281975   1.499   0.632  12.087 -1.4502 -1.5918  0.9433
20162TIP3   OH281976   4.126   4.481  14.154  0.6425  0.1143 -0.2984
20162TIP3    H181977   4.084   4.398  14.175  2.7971 -0.8793  0.4231
20162TIP3    H281978   4.065   4.548  14.185 -0.3972 -1.2266  0.6524
20163TIP3   OH281979   5.884   1.063  15.870  0.2663 -0.0413 -0.2627
20163TIP3    H181980   5.920   0.975  15.865 -0.7466 -0.4353 -1.0011
20163TIP3    H281981   5.897   1.090  15.961  2.1558 -0.2433 -0.4456
20164TIP3   OH281982   3.371   6.346   4.877 -0.2232  0.7185 -0.2518
20164TIP3    H181983   3.359   6.258   4.915 -0.8397  0.4450 -1.0591
20164TIP3    H281984   3.288   6.365   4.833  0.5716  0.8715 -1.7559
20165TIP3   OH281985   1.349   5.221   1.033 -0.6624 -0.1274  0.5095
20165TIP3    H181986   1.385   5.133   1.019  3.3605  1.4352  0.0119
20165TIP3    H281987   1.368   5.240   1.125  0.3236  0.9625  0.0882
20166TIP3   OH281988   1.450   1.277  16.040  0.0131  0.6932 -0.5970
20166TIP3    H181989   1.544   1.267  16.053 -0.1707  1.1481  1.4513
20166TIP3    H281990   1.413   1.280  16.129 -2.1437 -1.1499 -1.3414
20167TIP3   OH281991   6.665   2.977  13.839  0.3172 -0.1840  0.5787
20167TIP3    H181992   6.613   3.050  13.872  0.2441 -0.4212  1.0013
20167TIP3    H281993   6.733   2.964  13.906  1.2223  0.4267 -0.1841
20168TIP3   OH281994   4.145   0.115   1.508  0.3236  0.5199 -0.4974
20168TIP3    H181995   4.220   0.171   1.525 -0.2500  0.9589  0.7171
20168TIP3    H281996   4.072   0.175   1.497  0.1080  0.0935 -1.5080
20169TIP3   OH281997   4.401   2.986  10.952  0.0622  0.0408  0.0781
20169TIP3    H181998   4.435   2.897  10.944  0.7678  0.3622 -0.5820
20169TIP3    H281999   4.446   3.021  11.029  0.2777  0.0448 -0.0492
20170TIP3   OH282000   0.334   1.565   4.232 -0.2839  0.2403  0.4488
20170TIP3    H182001   0.261   1.609   4.187 -0.8509 -0.8377  0.2798
20170TIP3    H282002   0.408   1.623   4.218 -1.1035  1.3585  0.6095
20171TIP3   OH282003   1.318   1.735  15.795 -0.2559  0.1171  0.2162
20171TIP3    H182004   1.401   1.701  15.760 -0.9820  0.4723 -2.0422
20171TIP3    H282005   1.343   1.808  15.851  1.0695 -1.3549  1.6775
20172TIP3   OH282006   3.891   0.506  12.501 -0.1548 -0.2937  1.3737
20172TIP3    H182007   3.965   0.478  12.448 -0.6184  0.4169  0.3255
20172TIP3    H282008   3.892   0.447  12.576 -0.5276 -2.4766 -0.2586
20173TIP3   OH282009   2.031   1.881   2.329  0.0216 -0.0093 -0.3870
20173TIP3    H182010   2.124   1.871   2.310  0.4344  1.2344  0.7933
20173TIP3    H282011   2.010   1.808   2.388 -0.2840 -1.4661 -2.2009
20174TIP3   OH282012   4.601   0.600  10.409  0.0524  0.0343  1.0847
20174TIP3    H182013   4.652   0.606  10.490  0.2180 -0.4523  1.0198
20174TIP3    H282014   4.634   0.520  10.366  1.5606  1.4307 -0.5288
20175TIP3   OH282015   1.953   2.535  16.951 -0.8731  0.4783 -0.0779
20175TIP3    H182016   2.011   2.474  16.997 -0.5712  0.4647 -0.4723
20175TIP3    H282017   1.875   2.541  17.006 -0.4306  0.6213  0.5428
20176TIP3   OH282018   6.312   1.766   0.764  0.0834  0.4941 -0.4092
20176TIP3    H182019   6.307   1.721   0.680  0.7697  1.5781 -1.0474
20176TIP3    H282020   6.338   1.855   0.743  0.3446  0.7750  0.9628
20177TIP3   OH282021   6.594   3.549   4.927  0.2398 -0.2911  0.1333
20177TIP3    H182022   6.656   3.503   4.983  1.0333  1.3922  0.7056
20177TIP3    H282023   6.648   3.593   4.861 -0.5748 -1.0605 -1.0965
20178TIP3   OH282024   3.916   5.780  16.754 -0.1656 -0.5041 -0.2782
20178TIP3    H182025   3.971   5.782  16.676 -1.5498 -0.3381 -1.2959
20178TIP3    H282026   3.966   5.828  16.820  1.4329 -1.4301 -0.7677
20179TIP3   OH282027   3.089   4.978   3.435 -0.1523  0.5478 -0.0588
20179TIP3    H182028   3.019   5.032   3.473 -1.8389 -0.4498 -1.5664
20179TIP3    H282029   3.079   4.893   3.478 -0.8989 -0.0426 -1.3290
20180TIP3   OH282030   3.365   5.885  11.294 -0.6229  0.2311 -0.1953
20180TIP3    H182031   3.308   5.808  11.289 -0.3065 -0.1840  1.7272
20180TIP3    H282032   3.453   5.850  11.277 -0.6095  0.3857 -0.4509
20181TIP3   OH282033   1.872   6.802   1.061  0.1233  0.0801 -0.1828
20181TIP3    H182034   1.906   6.828   0.976  0.8320 -1.5556 -0.4373
20181TIP3    H282035   1.930   6.732   1.090 -1.6884 -1.2656  0.3847
20182TIP3   OH282036   3.063   3.441  16.409 -0.1068  0.0755 -0.0596
20182TIP3    H182037   3.110   3.446  16.492  3.2881  2.0135 -1.8824
20182TIP3    H282038   3.010   3.520  16.407 -0.0104  0.1460  0.1691
20183TIP3   OH282039   2.058   6.621   3.393  0.1240  0.2943 -0.5273
20183TIP3    H182040   2.001   6.627   3.470 -2.8895  0.3574 -2.5959
20183TIP3    H282041   2.055   6.708   3.354  0.8938  0.0243 -1.2246
20184TIP3   OH282042   2.497   5.607   2.504 -0.2286  0.3754  0.0840
20184TIP3    H182043   2.466   5.561   2.582  0.8300 -2.6515 -1.1293
20184TIP3    H282044   2.589   5.582   2.495 -0.2769  0.7411 -2.0438
20185TIP3   OH282045   5.907   0.572  15.077  0.5260 -0.3056 -0.1598
20185TIP3    H182046   5.968   0.588  15.149 -0.1514  0.0654  0.3473
20185TIP3    H282047   5.832   0.628  15.097  0.2158 -0.4065 -1.0141
20186TIP3   OH282048   1.269   0.821   1.905  0.1750 -0.5507  0.6937
20186TIP3    H182049   1.270   0.747   1.967 -0.6222 -0.0438  1.3398
20186TIP3    H282050   1.177   0.833   1.884  0.5497 -1.8229 -2.0085
20187TIP3   OH282051   1.866   1.529   3.427 -0.1383 -0.3177 -0.2882
20187TIP3    H182052   1.840   1.472   3.500  1.5597 -0.1977  0.4599
20187TIP3    H282053   1.933   1.586   3.464 -0.1134  0.5773 -1.6481
20188TIP3   OH282054   0.737   1.641   1.693  0.5444 -0.1864 -0.2163
20188TIP3    H182055   0.750   1.694   1.615  0.1867 -0.9478 -0.8111
20188TIP3    H282056   0.644   1.620   1.693  0.6885 -0.8582 -0.0259
20189TIP3   OH282057   1.501   3.457  14.917 -0.4883  0.4044 -0.7533
20189TIP3    H182058   1.578   3.425  14.963 -0.4118  0.6009 -0.7424
20189TIP3    H282059   1.436   3.387  14.925 -0.6611  0.6545  0.1035
20190TIP3   OH282060   3.156   6.010   0.230  0.1398  0.6656 -0.5647
20190TIP3    H182061   3.197   5.923   0.236 -1.2363 -0.0545 -1.1042
20190TIP3    H282062   3.230   6.070   0.220  1.1509 -0.3928  0.1816
20191TIP3   OH282063   0.247   0.361  10.950 -0.2782 -0.5298  0.3343
20191TIP3    H182064   0.278   0.378  11.039 -2.1422 -0.7595  1.0832
20191TIP3    H282065   0.175   0.423  10.938  1.5733  1.3312 -2.0528
20192TIP3   OH282066   5.048   5.638   4.701 -0.0730 -0.0232  0.2586
20192TIP3    H182067   5.087   5.596   4.624 -0.4484  1.6492 -0.8902
20192TIP3    H282068   5.114   5.700   4.731 -0.6994  0.7709  0.0392
20193TIP3   OH282069   3.863   2.526  13.699 -0.1801 -0.6628  0.5002
20193TIP3    H182070   3.806   2.566  13.633  0.1483 -0.2571  0.4593
20193TIP3    H282071   3.921   2.468  13.649  1.4322  1.1608  0.1452
20194TIP3   OH282072   0.151   5.446  16.057  0.4467 -0.7566  0.7202
20194TIP3    H182073   0.233   5.411  16.022  1.7406  1.3486  1.4900
20194TIP3    H282074   0.114   5.373  16.108  1.2974 -2.0506 -0.4434
20195TIP3   OH282075   5.184   0.834   6.046 -0.2114  0.0555 -0.4350
20195TIP3    H182076   5.228   0.765   6.097 -1.8390  0.0241  1.0285
20195TIP3    H282077   5.202   0.813   5.955  2.8072  0.0795  0.0498
20196TIP3   OH282078   4.160   1.880   4.403  0.0466  0.1758 -0.3010
20196TIP3    H182079   4.228   1.923   4.352  0.2798 -1.0593 -1.0746
20196TIP3    H282080   4.078   1.921   4.375  0.3717  0.9922 -0.0765
20197TIP3   OH282081   1.392   3.583   2.670  0.3302 -0.3264  0.5971
20197TIP3    H182082   1.442   3.659   2.641  0.8670 -1.0084 -0.3095
20197TIP3    H282083   1.317   3.620   2.716  0.2151  0.7783 -0.4216
20198TIP3   OH282084   6.823   5.919   5.035  0.5930  0.3303 -0.1657
20198TIP3    H182085   6.742   5.962   5.064  0.6081  1.1696 -1.2801
20198TIP3    H282086   6.891   5.956   5.090  0.2890 -0.0850  0.5107
20199TIP3   OH282087   5.559   4.010  17.069 -0.1224  0.2531  0.3924
20199TIP3    H182088   5.652   4.001  17.090 -0.7925  0.3697  4.1997
20199TIP3    H282089   5.537   4.100  17.091 -1.3478 -0.0963  0.7264
20200TIP3   OH282090   6.761   2.415   2.728 -0.2462  0.4748  0.3676
20200TIP3    H182091   6.836   2.398   2.672 -0.6867  0.9768 -0.3948
20200TIP3    H282092   6.711   2.482   2.682 -0.6471  0.8693  1.3387
20201TIP3   OH282093   0.367   5.081   0.528 -0.7277 -0.1147 -0.2052
20201TIP3    H182094   0.412   5.156   0.569 -3.0809  0.4960  1.4531
20201TIP3    H282095   0.334   5.030   0.602 -1.8595 -1.0710 -1.3451
20202TIP3   OH282096   5.149   1.546   5.703  0.0822 -0.3381  0.3195
20202TIP3    H182097   5.121   1.596   5.780  1.4931  1.4801 -0.2582
20202TIP3    H282098   5.098   1.584   5.631  0.2289 -0.6354  0.0582
20203TIP3   OH282099   6.074   5.763  14.873 -0.3565 -0.5295  0.0873
20203TIP3    H182100   6.136   5.697  14.843  1.6912  0.7323  1.3049
20203TIP3    H282101   6.023   5.785  14.795  2.0758 -0.2020 -1.5069
20204TIP3   OH282102   3.968   5.225  12.248 -0.2562 -0.1211 -1.1188
20204TIP3    H182103   3.878   5.255  12.236 -0.5696 -0.2186  0.6378
20204TIP3    H282104   3.999   5.273  12.325 -0.3082 -3.1089  0.9594
20205TIP3   OH282105   4.906   5.139   4.556  0.1479  0.0047 -0.4333
20205TIP3    H182106   4.873   5.163   4.642  0.4254 -0.4548 -0.1969
20205TIP3    H282107   4.925   5.046   4.562  0.8305  0.1119 -0.7734
20206TIP3   OH282108   5.446   4.756  13.410  0.8026  0.6305 -0.3451
20206TIP3    H182109   5.509   4.711  13.467  2.1802  2.8134 -0.0249
20206TIP3    H282110   5.470   4.728  13.322  1.2343  0.2554 -0.1141
20207TIP3   OH282111   0.893   5.403   5.665  0.4213  0.1757 -0.1766
20207TIP3    H182112   0.815   5.376   5.713  1.1747  0.2762  1.1409
20207TIP3    H282113   0.947   5.448   5.730  1.2668  0.7277 -1.2303
20208TIP3   OH282114   5.534   5.545   1.838  0.3328 -0.6264  0.0196
20208TIP3    H182115   5.542   5.569   1.930 -0.8400  0.5274 -0.1588
20208TIP3    H282116   5.623   5.553   1.804  0.9758 -2.0094  1.2395
20209TIP3   OH282117   5.347   1.489   4.028 -0.7604  0.3041  0.9409
20209TIP3    H182118   5.403   1.532   3.964 -0.2017 -0.2482  1.0485
20209TIP3    H282119   5.408   1.459   4.096 -1.0990 -0.9051  0.7267
20210TIP3   OH282120   3.875   1.862   2.211 -0.1293  0.0483 -0.3245
20210TIP3    H182121   3.867   1.768   2.197 -0.1916 -0.1961  1.1891
20210TIP3    H282122   3.950   1.872   2.270 -2.1191  0.5901  2.3435
20211TIP3   OH282123   3.441   5.788  15.718 -0.2043 -0.0017 -0.0792
20211TIP3    H182124   3.397   5.705  15.701 -0.4764  0.2372 -0.5579
20211TIP3    H282125   3.535   5.768  15.713 -0.2634 -0.3657  0.2396
20212TIP3   OH282126   1.377   1.372   1.379  0.1470  0.4567 -0.2991
20212TIP3    H182127   1.372   1.391   1.285 -0.5304 -1.0132 -0.5856
20212TIP3    H282128   1.464   1.402   1.405 -0.0911  1.9939 -1.1184
20213TIP3   OH282129   4.655   0.744  11.708  0.0556  0.4546  0.2242
20213TIP3    H182130   4.688   0.691  11.636 -0.6530 -1.0072  0.9307
20213TIP3    H282131   4.610   0.682  11.765  1.3715  1.4036  2.4168
20214TIP3   OH282132   4.655   0.375  16.644  0.8090 -0.1332 -0.0232
20214TIP3    H182133   4.598   0.381  16.568 -0.7073  1.3528  1.1582
20214TIP3    H282134   4.611   0.428  16.711  3.5448  1.0424  0.9756
20215TIP3   OH282135   3.394   3.756   4.540 -0.2802  0.5044 -0.4895
20215TIP3    H182136   3.450   3.785   4.612  1.4270 -1.6194 -0.8660
20215TIP3    H282137   3.449   3.765   4.462  0.7792 -4.1770 -0.5644
20216TIP3   OH282138   2.088   0.911  15.362 -0.5006  0.2293  0.1011
20216TIP3    H182139   2.090   0.821  15.395  0.5945  0.4383  0.6537
20216TIP3    H282140   2.075   0.902  15.267 -2.7658 -0.4088  0.4266
20217TIP3   OH282141   5.121   0.381   4.926 -0.3537 -0.3847 -0.1445
20217TIP3    H182142   5.194   0.395   4.987  0.3005 -1.2816 -0.6911
20217TIP3    H282143   5.134   0.292   4.893 -0.8248 -0.0132 -1.4023
20218TIP3   OH282144   2.499   5.846  13.936 -0.3276 -0.0897  0.1537
20218TIP3    H182145   2.417   5.873  13.978  1.1133  3.6829  0.9618
20218TIP3    H282146   2.539   5.786  13.998 -1.1900  0.3017  1.1167
20219TIP3   OH282147   2.992   1.947  16.451 -0.0800 -0.7722  0.1969
20219TIP3    H182148   2.950   1.940  16.365 -0.9954  0.4218  0.5290
20219TIP3    H282149   2.933   1.900  16.510  0.5425 -1.5818  0.1890
20220TIP3   OH282150   2.186   2.010   3.042  0.6523 -0.1360  0.6040
20220TIP3    H182151   2.228   2.011   2.956  1.3453  2.0358  0.9072
20220TIP3    H282152   2.257   1.997   3.104  0.2872 -0.6878  0.9203
20221TIP3   OH282153   1.867   2.347   5.955  0.2975 -0.0274  0.2912
20221TIP3    H182154   1.851   2.339   6.049  0.7149  1.0387  0.4778
20221TIP3    H282155   1.851   2.260   5.920 -4.6752  0.5296  0.5596
20222TIP3   OH282156   6.428   6.732   0.735 -0.3554  0.1943 -0.4030
20222TIP3    H182157   6.510   6.694   0.765 -0.3332  0.3167 -0.3095
20222TIP3    H282158   6.378   6.657   0.702 -0.5632 -0.0123  0.3464
20223TIP3   OH282159   3.440   2.307  16.915 -0.4330  0.6290  0.0244
20223TIP3    H182160   3.507   2.243  16.892  0.0312  0.8327  0.7899
20223TIP3    H282161   3.362   2.255  16.935  0.3807  0.1598  2.2389
20224TIP3   OH282162   6.526   5.918   2.458  0.0650  0.1557  1.0836
20224TIP3    H182163   6.619   5.900   2.444 -0.1518  0.3539 -0.9722
20224TIP3    H282164   6.483   5.884   2.379 -1.4916  0.9524  1.5447
20225TIP3   OH282165   0.673   3.846   4.726 -0.2083 -0.5524  0.4856
20225TIP3    H182166   0.761   3.809   4.722  0.3240  0.7611 -0.8395
20225TIP3    H282167   0.687   3.935   4.760 -0.6359  0.5854 -2.0662
20226TIP3   OH282168   0.003   2.191  13.786 -0.6120 -0.1775  0.7787
20226TIP3    H182169  -0.020   2.178  13.878 -2.8652 -1.5348  0.1183
20226TIP3    H282170  -0.080   2.212  13.743  0.3098  0.0092 -1.0270
20227TIP3   OH282171   5.747   6.237  16.264  0.2092 -0.5430 -0.1337
20227TIP3    H182172   5.779   6.320  16.228  0.4963 -0.2410  0.7925
20227TIP3    H282173   5.654   6.253  16.280  0.2811 -0.3704  0.1179
20228TIP3   OH282174   2.916   3.228   2.176  0.4437 -0.2169  0.6160
20228TIP3    H182175   2.821   3.213   2.181  0.3915  0.3433  1.5144
20228TIP3    H282176   2.931   3.253   2.085 -0.5043  1.1672  0.8077
20229TIP3   OH282177   2.618   1.716  11.833 -0.2576 -1.4617 -0.0616
20229TIP3    H182178   2.615   1.668  11.751  0.5890  0.8684 -1.5470
20229TIP3    H282179   2.688   1.780  11.821 -2.0677  0.9492  1.3311
20230TIP3   OH282180   3.402   1.958  15.087  0.0166  0.1285  0.0074
20230TIP3    H182181   3.372   1.891  15.027 -1.7558  1.4153 -0.6285
20230TIP3    H282182   3.475   2.001  15.042 -1.5786  1.3772 -1.4880
20231TIP3   OH282183   2.448   5.470  17.070  0.5727 -0.0642 -0.2370
20231TIP3    H182184   2.542   5.472  17.087  0.5245 -0.2537  0.0627
20231TIP3    H282185   2.423   5.562  17.061  1.1222 -0.0633 -2.2547
20232TIP3   OH282186   2.417   6.429  14.090  0.2220  0.3357  0.7457
20232TIP3    H182187   2.336   6.413  14.040  0.8955  0.0941 -0.2935
20232TIP3    H282188   2.457   6.343  14.098  1.5649  0.7550 -0.8660
20233TIP3   OH282189   6.504   0.755  15.534  0.2103  0.0549  0.6953
20233TIP3    H182190   6.568   0.822  15.555 -1.6595  2.8832 -1.7795
20233TIP3    H282191   6.437   0.762  15.603  0.6893 -0.3109  1.2098
20234TIP3   OH282192   4.491   3.897  14.739  0.1563  0.4497  0.6195
20234TIP3    H182193   4.481   3.811  14.698 -0.9486  1.2830 -0.9523
20234TIP3    H282194   4.581   3.896  14.774  1.4750 -0.1083 -2.4512
20235TIP3   OH282195   4.052   2.873   1.115  0.0058 -0.6557  0.2304
20235TIP3    H182196   4.001   2.792   1.117 -1.1640  0.0593  1.5086
20235TIP3    H282197   4.069   2.891   1.208 -0.1239  0.7682 -0.0086
20236TIP3   OH282198   4.097   5.077  12.509 -0.1104  0.2055 -0.7254
20236TIP3    H182199   4.003   5.075  12.528 -0.5943 -1.7981 -2.7596
20236TIP3    H282200   4.117   5.169  12.493 -1.3207  0.8865  1.3540
20237TIP3   OH282201   1.814   3.514   5.070  0.3177 -0.2812  0.7282
20237TIP3    H182202   1.901   3.484   5.042  0.3885  2.1494 -2.3084
20237TIP3    H282203   1.832   3.578   5.139  0.9924  0.3019  0.0306
20238TIP3   OH282204   5.288   4.739   5.647 -0.1545  0.2361 -0.2177
20238TIP3    H182205   5.346   4.742   5.723 -0.1500  0.3376 -0.2248
20238TIP3    H282206   5.231   4.664   5.662  0.2750 -0.1400 -0.4230
20239TIP3   OH282207   2.495   0.456   5.764 -0.7844 -0.2579  0.1931
20239TIP3    H182208   2.571   0.399   5.773 -1.1569 -0.7201  0.4066
20239TIP3    H282209   2.530   0.545   5.776 -0.7229 -0.6012  3.0823
20240LIG     O182210   1.824   4.956  16.300  0.3329  0.2509 -0.4057
20240LIG     O282211   1.651   5.141  16.216 -0.2427  0.0929  0.7881
20240LIG     O382212   1.642   4.746  16.191  0.3911 -0.2652  0.7458
20240LIG     O482213   1.736   5.296  16.063 -0.0569 -0.0206  0.1020
20240LIG     O582214   1.632   4.947  15.985  0.3230  0.0498  0.3622
20240LIG     O682215   1.561   5.104  15.739 -0.2763 -0.4203 -0.5291
20240LIG     O782216   1.768   5.312  15.701  0.8099  0.1457 -0.3900
20240LIG     O882217   1.952   5.511  15.880 -0.2189 -0.2894  0.2838
20240LIG     O982218   1.738   5.555  15.930 -0.0765  0.0946 -0.6823
20240LIG      N82219   1.881   5.016  16.791  0.1057 -0.3076  0.3255
20240LIG     C182220   1.828   5.033  16.517  0.0998  0.1308 -0.2977
20240LIG     C282221   1.753   5.130  16.611  0.0489 -0.1791  0.3021
20240LIG     C382222   1.841   5.078  16.375  0.2930 -0.1745  0.5634
20240LIG     C482223   1.745   5.049  16.738  0.4578  0.4419  0.2940
20240LIG     C582224   1.965   4.992  16.564 -0.3537 -0.0819  0.1905
20240LIG     C682225   1.746   4.909  16.510 -0.7017  0.1392  0.0847
20240LIG     C782226   1.651   4.918  16.731  0.3899  0.5185 -0.0409
20240LIG     C882227   1.951   4.927  16.702  0.0425 -0.0127 -0.4672
20240LIG     C982228   1.735   5.183  16.325  0.0816  0.0084  0.1594
20240LIG    C1082229   1.647   4.859  16.596  0.5383 -0.4812 -0.6279
20240LIG    C1182230   1.635   5.202  16.552 -0.5694  0.5612 -1.1028
20240LIG    C1282231   1.744   4.873  16.378 -0.6853  0.4141 -0.0316
20240LIG    C1382232   1.625   5.225  16.422 -0.6972 -0.6959 -0.0086
20240LIG    C1482233   1.959   5.134  16.844  1.2201  0.6029  0.4619
20240LIG    C1582234   1.553   4.766  16.552 -0.3521 -0.1484 -1.0107
20240LIG    C1682235   1.661   4.763  16.334 -0.2112  0.0544 -0.3424
20240LIG    C1782236   1.563   4.705  16.425 -0.3061 -1.2612  0.6254
20240LIG    C1882237   1.715   5.156  16.088 -0.2906  0.6196  0.2158
20240LIG    C1982238   1.633   5.090  15.976 -0.8538 -0.6477 -0.1204
20240LIG    C2082239   1.668   5.133  15.834  0.7292 -0.3105 -0.2919
20240LIG    C2182240   1.709   5.282  15.827  0.5802 -0.3715  0.7221
20240LIG    C2282241   1.803   5.324  15.938 -0.4686  0.3933 -0.1398
20240LIG    C2382242   1.824   5.470  15.910 -0.5503 -0.0815 -0.0278
20240LIG     H182243   1.831   5.208  16.624 -0.0553  0.4153 -2.2379
20240LIG     H282244   1.947   5.107  16.357  0.3373  0.0746  1.2255
20240LIG     H382245   1.701   5.124  16.808 -0.4633 -1.6068  2.0170
20240LIG     H482246   2.023   5.086  16.571  0.4189 -0.4747 -0.5910
20240LIG     H582247   2.027   4.924  16.501  0.0573 -0.0607  0.5663
20240LIG     H682248   1.550   4.952  16.762  1.3627  0.5960  3.4956
20240LIG     H782249   1.678   4.844  16.809  2.3533  1.1474 -0.0616
20240LIG     H882250   1.907   4.826  16.688 -1.6982  0.5796  0.4498
20240LIG     H982251   2.056   4.909  16.735  0.3242  1.1155 -0.6940
20240LIG    H1082252   1.791   5.271  16.287  0.7682 -0.2195  0.6199
20240LIG    H1182253   1.554   5.232  16.620 -1.3288 -0.2015 -1.6367
20240LIG    H1282254   1.549   5.300  16.394 -1.1093 -1.5071 -1.1166
20240LIG    H1382255   2.011   5.187  16.761 -0.8451 -1.9611 -2.7645
20240LIG    H1482256   2.027   5.096  16.924  0.8089  0.0694  0.5660
20240LIG    H1582257   1.889   5.208  16.887  0.8435  0.1465  0.6437
20240LIG    H1682258   1.478   4.728  16.621 -2.1512  2.2170 -1.5265
20240LIG    H1782259   1.490   4.632  16.395 -0.6058 -0.3704 -0.9209
20240LIG    H1882260   1.814   5.107  16.099 -0.4885  0.2259  0.2531
20240LIG    H1982261   1.532   5.132  15.995 -0.1057  0.7702  0.9908
20240LIG    H2082262   1.760   5.079  15.800 -1.9754 -3.7461 -2.9728
20240LIG    H2182263   1.655   4.826  16.139  2.9860 -1.8996 -1.3859
20240LIG    H2282264   1.611   5.332  15.846  0.9013  0.2829  0.6858
20240LIG    H2382265   1.895   5.263  15.926 -0.8404  0.0978 -1.7343
20240LIG    H2482266   1.575   4.921  15.912  1.7448 -0.3690 -0.6508
20240LIG    H2582267   1.602   5.093  15.653 -0.3029 -0.1532 -0.5787
20240LIG    H2682268   1.697   5.328  15.638  0.0995 -1.1813  0.0432
20240LIG    H2782269   1.961   5.607  15.874 -1.7640 -0.0170  1.7683
   6.82887   6.82887  17.22585
